--------------------------------------------------------------------------
WARNING: No preset parameters were found for the device that Open MPI
detected:

  Local host:            bear-pg0206u36b
  Device name:           mlx5_0
  Device vendor ID:      0x02c9
  Device vendor part ID: 4123

Default device parameters will be used, which may result in lower
performance.  You can edit any of the files specified by the
btl_openib_device_param_files MCA parameter to set values for your
device.

NOTE: You can turn off this warning by setting the MCA parameter
      btl_openib_warn_no_device_params_found to 0.
--------------------------------------------------------------------------
--------------------------------------------------------------------------
WARNING: There was an error initializing an OpenFabrics device.

  Local host:   bear-pg0206u36b
  Local device: mlx5_0
--------------------------------------------------------------------------

     Program PWSCF v.6.3 starts on 13Jun2020 at 22:56:51 

     This program is part of the open-source Quantum ESPRESSO suite
     for quantum simulation of materials; please cite
         "P. Giannozzi et al., J. Phys.:Condens. Matter 21 395502 (2009);
         "P. Giannozzi et al., J. Phys.:Condens. Matter 29 465901 (2017);
          URL http://www.quantum-espresso.org", 
     in publications or presentations arising from this work. More details at
     http://www.quantum-espresso.org/quote

     Parallel version (MPI & OpenMP), running on      20 processor cores
     Number of MPI processes:                20
     Threads/MPI process:                     1

     MPI processes distributed on     1 nodes
     R & G space division:  proc/nbgrp/npool/nimage =      20
     Reading input from wd/eos/eos_008.in
Warning: card &IONS ignored
Warning: card ION_DYNAMICS = 'BFGS', ignored
Warning: card / ignored
Warning: card &CELL ignored
Warning: card CELL_DYNAMICS = 'BFGS', ignored
Warning: card CELL_FACTOR = 2.0, ignored
Warning: card PRESS = 0.0, ignored
Warning: card / ignored

     Current dimensions of program PWSCF are:
     Max number of different atomic species (ntypx) = 10
     Max number of k-points (npk) =  40000
     Max angular momentum in pseudopotentials (lmaxx) =  3
               file Fe.pbe-spn-kjpaw_psl.1.0.0.UPF: wavefunction(s)  3P 3D renormalized
               file Fe.pbe-spn-kjpaw_psl.1.0.0.UPF: wavefunction(s)  3P 3D renormalized

     Subspace diagonalization in iterative solution of the eigenvalue problem:
     a serial algorithm will be used

     Found symmetry operation: I + (  0.0000  0.0000 -0.5000)
     This is a supercell, fractional translations are disabled
 
     Parallelization info
     --------------------
     sticks:   dense  smooth     PW     G-vecs:    dense   smooth      PW
     Min         191     126     35                 8952     4802     717
     Max         193     127     36                 8955     4807     720
     Sum        3833    2537    717               179069    96105   14363
 


     bravais-lattice index     =            0
     lattice parameter (alat)  =      10.5935  a.u.
     unit-cell volume          =    1188.8329 (a.u.)^3
     number of atoms/cell      =           16
     number of atomic types    =            2
     number of electrons       =       256.00
     number of Kohn-Sham states=          154
     kinetic-energy cutoff     =      71.0000  Ry
     charge density cutoff     =     430.0000  Ry
     convergence threshold     =      1.0E-06
     mixing beta               =       0.1000
     number of iterations used =           10  plain     mixing
     Exchange-correlation      = SLA PW PBX PBC ( 1  4  3  4 0 0)

     celldm(1)=  10.593520  celldm(2)=   0.000000  celldm(3)=   0.000000
     celldm(4)=   0.000000  celldm(5)=   0.000000  celldm(6)=   0.000000

     crystal axes: (cart. coord. in units of alat)
               a(1) = (   1.000000   0.000000   0.000000 )  
               a(2) = (   0.000000   1.000000   0.000000 )  
               a(3) = (   0.000000   0.000000   1.000000 )  

     reciprocal axes: (cart. coord. in units 2 pi/alat)
               b(1) = (  1.000000  0.000000  0.000000 )  
               b(2) = (  0.000000  1.000000  0.000000 )  
               b(3) = (  0.000000  0.000000  1.000000 )  


     PseudoPot. # 1 for Fe read from file:
     /rds/homes/b/bxp912/pp/Fe.pbe-spn-kjpaw_psl.1.0.0.UPF
     MD5 check sum: 42f43b795421b414b0dc916aa790dbcb
     Pseudo is Projector augmented-wave + core cor, Zval = 16.0
     Generated using "atomic" code by A. Dal Corso v.6.3
     Shape of augmentation charge: PSQ
     Using radial grid of 1191 points,  6 beta functions with: 
                l(1) =   0
                l(2) =   0
                l(3) =   1
                l(4) =   1
                l(5) =   2
                l(6) =   2
     Q(r) pseudized with 0 coefficients 


     PseudoPot. # 2 for Fe read from file:
     /rds/homes/b/bxp912/pp/Fe.pbe-spn-kjpaw_psl.1.0.0.UPF
     MD5 check sum: 42f43b795421b414b0dc916aa790dbcb
     Pseudo is Projector augmented-wave + core cor, Zval = 16.0
     Generated using "atomic" code by A. Dal Corso v.6.3
     Shape of augmentation charge: PSQ
     Using radial grid of 1191 points,  6 beta functions with: 
                l(1) =   0
                l(2) =   0
                l(3) =   1
                l(4) =   1
                l(5) =   2
                l(6) =   2
     Q(r) pseudized with 0 coefficients 


     atomic species   valence    mass     pseudopotential
        Fe1           16.00    55.84500     Fe( 1.00)
        Fe2           16.00    55.84500     Fe( 1.00)

     Starting magnetic structure 
     atomic species   magnetization
        Fe1          0.100
        Fe2          0.100

     48 Sym. Ops., with inversion, found



   Cartesian axes

     site n.     atom                  positions (alat units)
         1           Fe1 tau(   1) = (   0.0000000   0.0000000   0.0000000  )
         2           Fe2 tau(   2) = (   0.2500004   0.2500004   0.2500004  )
         3           Fe1 tau(   3) = (   0.0000000   0.0000000   0.5000000  )
         4           Fe2 tau(   4) = (   0.2500004   0.2500004   0.7499996  )
         5           Fe1 tau(   5) = (   0.0000000   0.5000000   0.0000000  )
         6           Fe2 tau(   6) = (   0.2500004   0.7499996   0.2500004  )
         7           Fe1 tau(   7) = (   0.0000000   0.5000000   0.5000000  )
         8           Fe2 tau(   8) = (   0.2500004   0.7499996   0.7499996  )
         9           Fe1 tau(   9) = (   0.5000000   0.0000000   0.0000000  )
        10           Fe2 tau(  10) = (   0.7499996   0.2500004   0.2500004  )
        11           Fe1 tau(  11) = (   0.5000000   0.0000000   0.5000000  )
        12           Fe2 tau(  12) = (   0.7499996   0.2500004   0.7499996  )
        13           Fe1 tau(  13) = (   0.5000000   0.5000000   0.0000000  )
        14           Fe2 tau(  14) = (   0.7499996   0.7499996   0.2500004  )
        15           Fe1 tau(  15) = (   0.5000000   0.5000000   0.5000000  )
        16           Fe2 tau(  16) = (   0.7499996   0.7499996   0.7499996  )

     number of k points=    35  Marzari-Vanderbilt smearing, width (Ry)=  0.0400
                       cart. coord. in units 2pi/alat
        k(    1) = (   0.0555556   0.0555556   0.0555556), wk =   0.0109739
        k(    2) = (   0.0555556   0.0555556   0.1666667), wk =   0.0329218
        k(    3) = (   0.0555556   0.0555556   0.2777778), wk =   0.0329218
        k(    4) = (   0.0555556   0.0555556   0.3888889), wk =   0.0329218
        k(    5) = (   0.0555556   0.0555556  -0.5000000), wk =   0.0164609
        k(    6) = (   0.0555556   0.1666667   0.1666667), wk =   0.0329218
        k(    7) = (   0.0555556   0.1666667   0.2777778), wk =   0.0658436
        k(    8) = (   0.0555556   0.1666667   0.3888889), wk =   0.0658436
        k(    9) = (   0.0555556   0.1666667  -0.5000000), wk =   0.0329218
        k(   10) = (   0.0555556   0.2777778   0.2777778), wk =   0.0329218
        k(   11) = (   0.0555556   0.2777778   0.3888889), wk =   0.0658436
        k(   12) = (   0.0555556   0.2777778  -0.5000000), wk =   0.0329218
        k(   13) = (   0.0555556   0.3888889   0.3888889), wk =   0.0329218
        k(   14) = (   0.0555556   0.3888889  -0.5000000), wk =   0.0329218
        k(   15) = (   0.0555556  -0.5000000  -0.5000000), wk =   0.0082305
        k(   16) = (   0.1666667   0.1666667   0.1666667), wk =   0.0109739
        k(   17) = (   0.1666667   0.1666667   0.2777778), wk =   0.0329218
        k(   18) = (   0.1666667   0.1666667   0.3888889), wk =   0.0329218
        k(   19) = (   0.1666667   0.1666667  -0.5000000), wk =   0.0164609
        k(   20) = (   0.1666667   0.2777778   0.2777778), wk =   0.0329218
        k(   21) = (   0.1666667   0.2777778   0.3888889), wk =   0.0658436
        k(   22) = (   0.1666667   0.2777778  -0.5000000), wk =   0.0329218
        k(   23) = (   0.1666667   0.3888889   0.3888889), wk =   0.0329218
        k(   24) = (   0.1666667   0.3888889  -0.5000000), wk =   0.0329218
        k(   25) = (   0.1666667  -0.5000000  -0.5000000), wk =   0.0082305
        k(   26) = (   0.2777778   0.2777778   0.2777778), wk =   0.0109739
        k(   27) = (   0.2777778   0.2777778   0.3888889), wk =   0.0329218
        k(   28) = (   0.2777778   0.2777778  -0.5000000), wk =   0.0164609
        k(   29) = (   0.2777778   0.3888889   0.3888889), wk =   0.0329218
        k(   30) = (   0.2777778   0.3888889  -0.5000000), wk =   0.0329218
        k(   31) = (   0.2777778  -0.5000000  -0.5000000), wk =   0.0082305
        k(   32) = (   0.3888889   0.3888889   0.3888889), wk =   0.0109739
        k(   33) = (   0.3888889   0.3888889  -0.5000000), wk =   0.0164609
        k(   34) = (   0.3888889  -0.5000000  -0.5000000), wk =   0.0082305
        k(   35) = (  -0.5000000  -0.5000000  -0.5000000), wk =   0.0013717

     Dense  grid:   179069 G-vectors     FFT dimensions: (  72,  72,  72)

     Smooth grid:    96105 G-vectors     FFT dimensions: (  60,  60,  60)

     Estimated max dynamical RAM per process >     153.32 MB

     Estimated total dynamical RAM >       2.99 GB
     Generating pointlists ...
     new r_m :   0.1786 (alat units)  1.8922 (a.u.) for type    1
     new r_m :   0.1786 (alat units)  1.8922 (a.u.) for type    2

     Check: negative/imaginary core charge=   -0.000006    0.000000

     Initial potential from superposition of free atoms

     starting charge  255.99300, renormalised to  256.00000
     Starting wfcs are  160 randomized atomic wfcs
     Checking if some PAW data can be deallocated... 

     total cpu time spent up to now is        8.9 secs

     Self-consistent Calculation

     iteration #  1     ecut=    71.00 Ry     beta= 0.10
     Davidson diagonalization with overlap
     ethr =  1.00E-02,  avg # of iterations =  3.3

     Threshold (ethr) on eigenvalues was too large:
     Diagonalizing with lowered threshold

     Davidson diagonalization with overlap
     ethr =  2.01E-04,  avg # of iterations =  3.5

     total cpu time spent up to now is       67.9 secs

     total energy              =   -5267.97680198 Ry
     Harris-Foulkes estimate   =   -5268.02585205 Ry
     estimated scf accuracy    <       0.59563633 Ry

     total magnetization       =    28.02 Bohr mag/cell
     absolute magnetization    =    28.12 Bohr mag/cell

     iteration #  2     ecut=    71.00 Ry     beta= 0.10
     Davidson diagonalization with overlap
     ethr =  2.33E-04,  avg # of iterations =  1.0

     total cpu time spent up to now is       85.9 secs

     total energy              =   -5267.96275151 Ry
     Harris-Foulkes estimate   =   -5267.98829900 Ry
     estimated scf accuracy    <       0.34475070 Ry

     total magnetization       =    28.66 Bohr mag/cell
     absolute magnetization    =    28.79 Bohr mag/cell

     iteration #  3     ecut=    71.00 Ry     beta= 0.10
     Davidson diagonalization with overlap
     ethr =  1.35E-04,  avg # of iterations =  3.1

     total cpu time spent up to now is      115.7 secs

     total energy              =   -5268.02330496 Ry
     Harris-Foulkes estimate   =   -5268.02633457 Ry
     estimated scf accuracy    <       0.35231347 Ry

     total magnetization       =    29.95 Bohr mag/cell
     absolute magnetization    =    30.26 Bohr mag/cell

     iteration #  4     ecut=    71.00 Ry     beta= 0.10
     Davidson diagonalization with overlap
     ethr =  1.35E-04,  avg # of iterations =  1.0

     total cpu time spent up to now is      133.8 secs

     total energy              =   -5268.04040220 Ry
     Harris-Foulkes estimate   =   -5268.03176886 Ry
     estimated scf accuracy    <       0.11549336 Ry

     total magnetization       =    30.17 Bohr mag/cell
     absolute magnetization    =    30.50 Bohr mag/cell

     iteration #  5     ecut=    71.00 Ry     beta= 0.10
     Davidson diagonalization with overlap
     ethr =  4.51E-05,  avg # of iterations =  1.3

     total cpu time spent up to now is      152.7 secs

     total energy              =   -5268.12335428 Ry
     Harris-Foulkes estimate   =   -5268.04460737 Ry
     estimated scf accuracy    <       0.10349713 Ry

     total magnetization       =    30.22 Bohr mag/cell
     absolute magnetization    =    30.60 Bohr mag/cell

     iteration #  6     ecut=    71.00 Ry     beta= 0.10
     Davidson diagonalization with overlap
     ethr =  4.04E-05,  avg # of iterations =  3.3

     negative rho (up, down):  0.000E+00 3.392E-03

     total cpu time spent up to now is      184.5 secs

     total energy              =   -5268.14077841 Ry
     Harris-Foulkes estimate   =   -5268.15900593 Ry
     estimated scf accuracy    <       0.21415795 Ry

     total magnetization       =    30.89 Bohr mag/cell
     absolute magnetization    =    31.62 Bohr mag/cell

     iteration #  7     ecut=    71.00 Ry     beta= 0.10
     Davidson diagonalization with overlap
     ethr =  4.04E-05,  avg # of iterations =  2.9

     negative rho (up, down):  0.000E+00 2.012E-03

     total cpu time spent up to now is      214.0 secs

     total energy              =   -5268.18142236 Ry
     Harris-Foulkes estimate   =   -5268.18729703 Ry
     estimated scf accuracy    <       0.01187699 Ry

     total magnetization       =    32.31 Bohr mag/cell
     absolute magnetization    =    33.87 Bohr mag/cell

     iteration #  8     ecut=    71.00 Ry     beta= 0.10
     Davidson diagonalization with overlap
     ethr =  4.64E-06,  avg # of iterations =  2.6

     negative rho (up, down):  0.000E+00 1.961E-03

     total cpu time spent up to now is      239.6 secs

     total energy              =   -5268.18412516 Ry
     Harris-Foulkes estimate   =   -5268.18326507 Ry
     estimated scf accuracy    <       0.00843445 Ry

     total magnetization       =    32.23 Bohr mag/cell
     absolute magnetization    =    33.59 Bohr mag/cell

     iteration #  9     ecut=    71.00 Ry     beta= 0.10
     Davidson diagonalization with overlap
     ethr =  3.29E-06,  avg # of iterations =  1.3

     negative rho (up, down):  0.000E+00 2.400E-03

     total cpu time spent up to now is      258.8 secs

     total energy              =   -5268.18730611 Ry
     Harris-Foulkes estimate   =   -5268.18434841 Ry
     estimated scf accuracy    <       0.00545647 Ry

     total magnetization       =    32.31 Bohr mag/cell
     absolute magnetization    =    33.72 Bohr mag/cell

     iteration # 10     ecut=    71.00 Ry     beta= 0.10
     Davidson diagonalization with overlap
     ethr =  2.13E-06,  avg # of iterations =  3.3

     negative rho (up, down):  0.000E+00 2.325E-03

     total cpu time spent up to now is      288.3 secs

     total energy              =   -5268.18881458 Ry
     Harris-Foulkes estimate   =   -5268.18874218 Ry
     estimated scf accuracy    <       0.00086046 Ry

     total magnetization       =    32.63 Bohr mag/cell
     absolute magnetization    =    34.27 Bohr mag/cell

     iteration # 11     ecut=    71.00 Ry     beta= 0.10
     Davidson diagonalization with overlap
     ethr =  3.36E-07,  avg # of iterations =  1.2

     negative rho (up, down):  0.000E+00 2.103E-03

     total cpu time spent up to now is      307.1 secs

     total energy              =   -5268.18906379 Ry
     Harris-Foulkes estimate   =   -5268.18883088 Ry
     estimated scf accuracy    <       0.00070808 Ry

     total magnetization       =    32.64 Bohr mag/cell
     absolute magnetization    =    34.28 Bohr mag/cell

     iteration # 12     ecut=    71.00 Ry     beta= 0.10
     Davidson diagonalization with overlap
     ethr =  2.77E-07,  avg # of iterations =  1.9

     negative rho (up, down):  0.000E+00 2.376E-03

     total cpu time spent up to now is      329.2 secs

     total energy              =   -5268.18921551 Ry
     Harris-Foulkes estimate   =   -5268.18915037 Ry
     estimated scf accuracy    <       0.00068805 Ry

     total magnetization       =    32.71 Bohr mag/cell
     absolute magnetization    =    34.38 Bohr mag/cell

     iteration # 13     ecut=    71.00 Ry     beta= 0.10
     Davidson diagonalization with overlap
     ethr =  2.69E-07,  avg # of iterations =  3.3

     negative rho (up, down):  0.000E+00 2.422E-03

     total cpu time spent up to now is      359.4 secs

     total energy              =   -5268.18943625 Ry
     Harris-Foulkes estimate   =   -5268.18944706 Ry
     estimated scf accuracy    <       0.00013640 Ry

     total magnetization       =    32.85 Bohr mag/cell
     absolute magnetization    =    34.62 Bohr mag/cell

     iteration # 14     ecut=    71.00 Ry     beta= 0.10
     Davidson diagonalization with overlap
     ethr =  5.33E-08,  avg # of iterations =  2.2

     negative rho (up, down):  0.000E+00 2.426E-03

     total cpu time spent up to now is      382.7 secs

     total energy              =   -5268.18945676 Ry
     Harris-Foulkes estimate   =   -5268.18945987 Ry
     estimated scf accuracy    <       0.00014555 Ry

     total magnetization       =    32.87 Bohr mag/cell
     absolute magnetization    =    34.64 Bohr mag/cell

     iteration # 15     ecut=    71.00 Ry     beta= 0.10
     Davidson diagonalization with overlap
     ethr =  5.33E-08,  avg # of iterations =  1.0

     negative rho (up, down):  0.000E+00 2.435E-03

     total cpu time spent up to now is      400.8 secs

     total energy              =   -5268.18948291 Ry
     Harris-Foulkes estimate   =   -5268.18946629 Ry
     estimated scf accuracy    <       0.00002264 Ry

     total magnetization       =    32.89 Bohr mag/cell
     absolute magnetization    =    34.67 Bohr mag/cell

     iteration # 16     ecut=    71.00 Ry     beta= 0.10
     Davidson diagonalization with overlap
     ethr =  8.84E-09,  avg # of iterations =  2.8

     negative rho (up, down):  0.000E+00 2.444E-03

     total cpu time spent up to now is      427.4 secs

     total energy              =   -5268.18948840 Ry
     Harris-Foulkes estimate   =   -5268.18948661 Ry
     estimated scf accuracy    <       0.00000714 Ry

     total magnetization       =    32.89 Bohr mag/cell
     absolute magnetization    =    34.65 Bohr mag/cell

     iteration # 17     ecut=    71.00 Ry     beta= 0.10
     Davidson diagonalization with overlap
     ethr =  2.79E-09,  avg # of iterations =  3.2

     negative rho (up, down):  0.000E+00 2.450E-03

     total cpu time spent up to now is      457.4 secs

     total energy              =   -5268.18949207 Ry
     Harris-Foulkes estimate   =   -5268.18949093 Ry
     estimated scf accuracy    <       0.00000393 Ry

     total magnetization       =    32.90 Bohr mag/cell
     absolute magnetization    =    34.67 Bohr mag/cell

     iteration # 18     ecut=    71.00 Ry     beta= 0.10
     Davidson diagonalization with overlap
     ethr =  1.54E-09,  avg # of iterations =  2.6

     negative rho (up, down):  0.000E+00 2.465E-03
 
     Magnetic moment per site:
     atom:    1    charge:   14.3664    magn:    2.0989    constr:    0.0000
     atom:    2    charge:   14.3664    magn:    2.1010    constr:    0.0000
     atom:    3    charge:   14.3664    magn:    2.0996    constr:    0.0000
     atom:    4    charge:   14.3664    magn:    2.1010    constr:    0.0000
     atom:    5    charge:   14.3664    magn:    2.0996    constr:    0.0000
     atom:    6    charge:   14.3664    magn:    2.1010    constr:    0.0000
     atom:    7    charge:   14.3665    magn:    2.1001    constr:    0.0000
     atom:    8    charge:   14.3664    magn:    2.1010    constr:    0.0000
     atom:    9    charge:   14.3664    magn:    2.0996    constr:    0.0000
     atom:   10    charge:   14.3664    magn:    2.1010    constr:    0.0000
     atom:   11    charge:   14.3665    magn:    2.1001    constr:    0.0000
     atom:   12    charge:   14.3664    magn:    2.1010    constr:    0.0000
     atom:   13    charge:   14.3665    magn:    2.1001    constr:    0.0000
     atom:   14    charge:   14.3664    magn:    2.1010    constr:    0.0000
     atom:   15    charge:   14.3665    magn:    2.1005    constr:    0.0000
     atom:   16    charge:   14.3664    magn:    2.1010    constr:    0.0000

     total cpu time spent up to now is      482.5 secs

     End of self-consistent calculation

 ------ SPIN UP ------------


          k = 0.0556 0.0556 0.0556 ( 11990 PWs)   bands (ev):

   -69.0896 -69.0132 -69.0132 -69.0132 -69.0012 -69.0012 -69.0012 -68.9998
   -68.9997 -68.9997 -68.9993 -68.9993 -68.9990 -68.9949 -68.9935 -68.9349
   -35.3130 -35.3129 -35.3129 -35.3106 -35.3106 -35.3105 -35.1838 -35.1838
   -35.1789 -35.1193 -35.1162 -35.1162 -35.1162 -35.0991 -35.0991 -35.0880
   -35.0880 -35.0880 -35.0594 -35.0594 -35.0400 -35.0291 -35.0290 -35.0290
   -35.0196 -35.0196 -35.0196 -35.0101 -35.0100 -35.0100 -35.0071 -35.0071
   -35.0071 -35.0001 -35.0001 -35.0001 -34.9911 -34.9911 -34.9911 -34.8600
   -34.8580 -34.8580 -34.8579 -34.8555 -34.8555 -34.8555 -34.8554 -34.8554
    10.3543  13.9163  13.9163  13.9163  13.9355  13.9355  13.9355  13.9646
    13.9646  13.9646  13.9669  13.9669  14.3732  14.3732  14.3732  15.5511
    15.5637  15.5637  15.5637  15.5764  15.5764  15.5764  15.6363  15.6363
    15.7118  15.7118  15.7118  15.7805  15.7805  15.8358  16.0514  16.0514
    16.0514  16.7001  16.7001  16.7426  17.0277  17.0277  17.0277  17.1069
    17.1070  17.1070  17.2003  17.2003  17.2003  17.2815  17.2815  17.2815
    17.9178  17.9178  17.9178  17.9188  17.9188  17.9619  17.9619  17.9619
    18.0080  18.0080  18.0080  18.0145  18.0146  18.0146  18.1294  18.1294
    18.1294  18.1399  18.1399  18.1400  18.1682  18.1682  18.1697  18.1697
    19.0339  19.0339  19.0339  19.0874  19.0874  19.0874  19.1985  19.2650
    19.2650  19.2796  19.2796  19.2796  19.6072  19.6072  19.6072  19.8059
    19.8059  19.8060

          k = 0.0556 0.0556 0.1667 ( 12005 PWs)   bands (ev):

   -69.0867 -69.0268 -69.0127 -69.0126 -69.0026 -69.0025 -69.0008 -68.9996
   -68.9995 -68.9989 -68.9987 -68.9986 -68.9953 -68.9939 -68.9867 -68.9370
   -35.3067 -35.3067 -35.3057 -35.3036 -35.2998 -35.2998 -35.1867 -35.1788
   -35.1710 -35.1486 -35.1417 -35.1416 -35.1400 -35.1389 -35.1144 -35.1144
   -35.0871 -35.0649 -35.0578 -35.0553 -35.0479 -35.0288 -35.0288 -35.0203
   -35.0148 -35.0129 -35.0129 -35.0115 -35.0098 -35.0052 -35.0052 -35.0005
   -35.0005 -34.9965 -34.9964 -34.9719 -34.9691 -34.9691 -34.9636 -34.8714
   -34.8653 -34.8653 -34.8642 -34.8621 -34.8593 -34.8579 -34.8579 -34.8569
    10.4857  13.4139  13.9346  13.9346  13.9935  13.9935  14.0093  14.0129
    14.0129  14.0233  14.0264  14.0272  14.4096  14.4097  14.5981  15.3767
    15.4448  15.5418  15.5504  15.5618  15.5636  15.6083  15.6083  15.6463
    15.6463  15.6684  15.6944  15.6944  15.9773  15.9786  16.0017  16.0017
    16.3776  16.6790  16.6985  16.7993  16.8345  16.8345  16.8914  16.9849
    16.9966  16.9967  17.2245  17.2245  17.3490  17.3490  17.4116  17.5013
    17.5808  17.5808  17.7006  17.8459  17.8460  17.8594  17.9068  17.9443
    17.9658  17.9658  18.0209  18.0233  18.0426  18.0427  18.1210  18.1210
    18.1318  18.1637  18.1657  18.1662  18.1692  18.3366  18.3366  18.3603
    18.4649  18.6628  18.7106  19.0123  19.0123  19.0515  19.0565  19.0565
    19.1489  19.2581  19.3768  19.3768  19.6699  19.6699  19.6773  19.6773
    20.1267  20.1267

          k = 0.0556 0.0556 0.2778 ( 12000 PWs)   bands (ev):

   -69.0814 -69.0402 -69.0115 -69.0115 -69.0044 -69.0043 -69.0001 -68.9992
   -68.9992 -68.9984 -68.9984 -68.9982 -68.9960 -68.9945 -68.9746 -68.9409
   -35.2923 -35.2923 -35.2916 -35.2899 -35.2808 -35.2808 -35.1868 -35.1820
   -35.1771 -35.1755 -35.1755 -35.1684 -35.1589 -35.1581 -35.1498 -35.1498
   -35.0854 -35.0751 -35.0750 -35.0608 -35.0274 -35.0274 -35.0234 -35.0205
   -35.0194 -35.0162 -35.0162 -35.0036 -35.0036 -35.0007 -35.0007 -34.9833
   -34.9770 -34.9679 -34.9679 -34.9453 -34.9420 -34.9420 -34.9376 -34.8911
   -34.8776 -34.8776 -34.8767 -34.8752 -34.8684 -34.8655 -34.8655 -34.8641
    10.7447  12.7943  13.9836  13.9836  14.0800  14.0800  14.0861  14.0861
    14.1350  14.1389  14.1881  14.2035  14.4416  14.4416  14.6524  15.0587
    15.2957  15.3435  15.4899  15.5271  15.5367  15.5399  15.7082  15.7082
    15.7265  15.7265  15.7708  15.7708  15.9892  15.9892  16.2231  16.2346
    16.5747  16.5747  16.6386  16.6679  16.6956  16.7215  16.7215  16.7905
    16.8832  16.9528  17.1144  17.1144  17.3644  17.3645  17.4105  17.4105
    17.4618  17.4619  17.4943  17.6620  17.7054  17.7423  17.7610  17.8747
    17.9002  17.9002  17.9840  17.9840  17.9925  18.0447  18.0619  18.1360
    18.1532  18.1559  18.1611  18.1687  18.3434  18.3836  18.3836  18.4269
    18.5724  18.5925  18.5925  18.8284  18.9383  19.0163  19.0163  19.1029
    19.1030  19.1950  19.3484  19.3485  19.5444  19.5444  19.7856  19.7856
    20.2167  20.2168

          k = 0.0556 0.0556 0.3889 ( 12003 PWs)   bands (ev):

   -69.0738 -69.0528 -69.0100 -69.0100 -69.0063 -69.0063 -68.9991 -68.9989
   -68.9989 -68.9983 -68.9983 -68.9974 -68.9969 -68.9953 -68.9638 -68.9468
   -35.2708 -35.2706 -35.2706 -35.2698 -35.2547 -35.2547 -35.2148 -35.2125
   -35.2103 -35.2103 -35.1872 -35.1872 -35.1848 -35.1713 -35.1533 -35.1430
   -35.1109 -35.1005 -35.0616 -35.0520 -35.0346 -35.0293 -35.0253 -35.0253
   -35.0193 -35.0193 -35.0025 -35.0025 -35.0011 -35.0011 -34.9847 -34.9494
   -34.9458 -34.9402 -34.9402 -34.9212 -34.9176 -34.9167 -34.9167 -34.9142
   -34.8948 -34.8944 -34.8942 -34.8942 -34.8822 -34.8780 -34.8779 -34.8766
    11.1230  12.1751  14.0483  14.0483  14.1193  14.1193  14.2029  14.2030
    14.2871  14.2994  14.4151  14.4151  14.4381  14.4491  14.5842  14.7676
    15.0411  15.0512  15.4724  15.4887  15.5008  15.5086  15.8587  15.8587
    15.8863  15.8863  15.9445  15.9445  16.0900  16.0900  16.3302  16.3302
    16.4453  16.4454  16.5404  16.5490  16.6426  16.6426  16.6680  16.6963
    16.7131  16.7229  16.8485  16.8485  16.9961  17.1160  17.3050  17.3262
    17.3716  17.5715  17.5878  17.5878  17.6024  17.6024  17.8134  17.8134
    17.8968  17.8968  17.9454  18.0515  18.0620  18.0757  18.0806  18.1342
    18.1361  18.1420  18.1551  18.1707  18.2160  18.2681  18.5515  18.6362
    18.6362  18.6641  18.7692  18.8426  18.8426  18.9704  18.9704  19.0872
    19.1748  19.1749  19.2358  19.2359  19.4042  19.4042  19.9338  19.9338
    20.1926  20.1926

          k = 0.0556 0.0556-0.5000 ( 12038 PWs)   bands (ev):

   -69.0642 -69.0640 -69.0084 -69.0084 -69.0082 -69.0081 -68.9987 -68.9987
   -68.9984 -68.9984 -68.9981 -68.9980 -68.9966 -68.9961 -68.9546 -68.9543
   -35.2446 -35.2444 -35.2444 -35.2441 -35.2427 -35.2427 -35.2427 -35.2427
   -35.2231 -35.2231 -35.2231 -35.2231 -35.1803 -35.1801 -35.1340 -35.1338
   -35.1233 -35.1232 -35.0483 -35.0480 -35.0412 -35.0409 -35.0227 -35.0227
   -35.0225 -35.0225 -35.0019 -35.0019 -35.0017 -35.0017 -34.9493 -34.9491
   -34.9196 -34.9193 -34.9182 -34.9180 -34.9153 -34.9153 -34.9153 -34.9153
   -34.9001 -34.8999 -34.8953 -34.8953 -34.8953 -34.8953 -34.8936 -34.8934
    11.6070  11.6071  14.1038  14.1039  14.1039  14.1039  14.3238  14.3238
    14.3238  14.3238  14.4471  14.4472  14.5121  14.5122  14.7362  14.7363
    14.7400  14.7401  15.4792  15.4793  15.4874  15.4875  16.0475  16.0475
    16.0475  16.0475  16.1153  16.1153  16.1154  16.1154  16.2715  16.2715
    16.2715  16.2715  16.4233  16.4233  16.4234  16.4234  16.6841  16.6843
    16.7043  16.7046  16.9181  16.9182  16.9237  16.9239  17.1375  17.1376
    17.3555  17.3556  17.7079  17.7079  17.7079  17.7079  17.7689  17.7689
    17.7689  17.7690  18.1076  18.1078  18.1084  18.1087  18.1484  18.1485
    18.1523  18.1524  18.1806  18.1807  18.2485  18.2487  18.3591  18.3594
    18.8412  18.8413  18.8413  18.8413  18.9427  18.9429  19.0622  19.0623
    19.0623  19.0623  19.2753  19.2753  19.2754  19.2754  20.0831  20.0831
    20.0832  20.0832

          k = 0.0556 0.1667 0.1667 ( 11996 PWs)   bands (ev):

   -69.0841 -69.0258 -69.0258 -69.0120 -69.0063 -69.0022 -69.0021 -68.9993
   -68.9985 -68.9984 -68.9959 -68.9957 -68.9941 -68.9869 -68.9869 -68.9389
   -35.3052 -35.2998 -35.2997 -35.2935 -35.2935 -35.2845 -35.1921 -35.1757
   -35.1676 -35.1637 -35.1637 -35.1581 -35.1573 -35.1513 -35.1315 -35.0953
   -35.0824 -35.0823 -35.0570 -35.0570 -35.0559 -35.0334 -35.0243 -35.0242
   -35.0207 -35.0183 -35.0183 -35.0093 -35.0093 -35.0049 -35.0037 -34.9982
   -34.9876 -34.9785 -34.9729 -34.9729 -34.9531 -34.9426 -34.9426 -34.8879
   -34.8774 -34.8703 -34.8703 -34.8641 -34.8641 -34.8631 -34.8555 -34.8547
    10.6157  13.4817  13.4817  13.9025  14.0292  14.0292  14.0686  14.0782
    14.0829  14.0846  14.0846  14.0866  14.4568  14.6344  14.6344  15.3496
    15.3826  15.3827  15.4533  15.5923  15.5923  15.6142  15.6259  15.6259
    15.6271  15.6595  15.7309  15.7406  15.9361  15.9757  15.9886  16.2802
    16.2802  16.6259  16.6853  16.7092  16.7093  16.7613  16.8820  16.8922
    17.1492  17.1493  17.1946  17.1947  17.2146  17.2650  17.3928  17.5096
    17.5096  17.5189  17.5189  17.7770  17.7770  17.8512  17.8866  17.8990
    17.9069  17.9069  17.9274  17.9812  17.9812  18.0375  18.0375  18.1105
    18.1562  18.1636  18.1642  18.1740  18.2535  18.4395  18.4726  18.5303
    18.5303  18.5488  18.5488  18.6564  18.6564  18.8566  18.9044  18.9044
    19.0625  19.1168  19.2816  19.4464  19.4725  19.7689  20.3450  20.3450
    20.5195  20.5195

          k = 0.0556 0.1667 0.2778 ( 11997 PWs)   bands (ev):

   -69.0789 -69.0388 -69.0240 -69.0110 -69.0103 -69.0039 -69.0014 -68.9990
   -68.9981 -68.9978 -68.9967 -68.9946 -68.9931 -68.9874 -68.9753 -68.9427
   -35.2955 -35.2864 -35.2861 -35.2813 -35.2759 -35.2612 -35.1967 -35.1951
   -35.1915 -35.1829 -35.1803 -35.1803 -35.1656 -35.1591 -35.1418 -35.1194
   -35.0864 -35.0841 -35.0539 -35.0531 -35.0516 -35.0474 -35.0347 -35.0288
   -35.0280 -35.0223 -35.0169 -35.0077 -35.0053 -34.9949 -34.9919 -34.9751
   -34.9748 -34.9615 -34.9556 -34.9468 -34.9327 -34.9186 -34.9182 -34.9116
   -34.8938 -34.8804 -34.8802 -34.8765 -34.8720 -34.8703 -34.8581 -34.8573
    10.8716  12.8815  13.5966  13.8859  14.0797  14.1497  14.1770  14.1834
    14.2008  14.2028  14.2108  14.2589  14.5081  14.6540  14.6946  15.0825
    15.2409  15.3214  15.4525  15.5446  15.5642  15.5914  15.6295  15.6582
    15.6837  15.7008  15.7373  15.8887  15.8899  16.1312  16.1669  16.2153
    16.4714  16.4868  16.5783  16.5806  16.6228  16.6722  16.6801  16.7987
    16.9083  17.0115  17.0566  17.1542  17.2744  17.3394  17.3770  17.4134
    17.4301  17.4936  17.4982  17.5291  17.5442  17.6976  17.7389  17.7636
    17.8025  17.9187  17.9639  17.9822  18.0106  18.0333  18.0399  18.1417
    18.1516  18.1636  18.1737  18.1841  18.2678  18.3964  18.4070  18.4135
    18.5488  18.5869  18.5995  18.6246  18.6464  18.7499  18.7922  18.8582
    18.9771  19.2453  19.2477  19.2673  19.4568  19.9486  20.1336  20.6971
    20.7566  21.0630

          k = 0.0556 0.1667 0.3889 ( 12008 PWs)   bands (ev):

   -69.0715 -69.0511 -69.0213 -69.0143 -69.0095 -69.0058 -69.0003 -68.9987
   -68.9981 -68.9978 -68.9970 -68.9953 -68.9911 -68.9883 -68.9648 -68.9483
   -35.2785 -35.2664 -35.2661 -35.2638 -35.2518 -35.2313 -35.2266 -35.2172
   -35.2121 -35.2121 -35.1987 -35.1913 -35.1909 -35.1584 -35.1509 -35.1232
   -35.1093 -35.0774 -35.0723 -35.0493 -35.0464 -35.0412 -35.0364 -35.0333
   -35.0265 -35.0263 -35.0115 -35.0070 -35.0060 -34.9862 -34.9778 -34.9656
   -34.9447 -34.9410 -34.9368 -34.9328 -34.9233 -34.9143 -34.9124 -34.8972
   -34.8962 -34.8950 -34.8944 -34.8943 -34.8853 -34.8806 -34.8657 -34.8655
    11.2448  12.2779  13.7209  13.8651  14.1451  14.2043  14.2940  14.3307
    14.3388  14.3630  14.4641  14.4986  14.4997  14.5992  14.6309  14.8062
    15.0485  15.0719  15.5014  15.5319  15.5407  15.5530  15.6504  15.7707
    15.8132  15.8262  15.8763  15.9272  16.0810  16.1804  16.3315  16.3790
    16.4042  16.4058  16.4345  16.4641  16.5483  16.5542  16.6080  16.6144
    16.6218  16.6572  16.7871  16.9542  17.0667  17.1411  17.1530  17.2671
    17.4987  17.5864  17.5954  17.6023  17.6156  17.6194  17.7012  17.7200
    17.8355  17.8925  17.9401  18.0033  18.0343  18.0497  18.0600  18.1187
    18.1268  18.1646  18.1907  18.2046  18.2440  18.3054  18.3461  18.4186
    18.4647  18.5385  18.5899  18.6491  18.6564  18.7369  18.9313  18.9546
    19.0254  19.0311  19.1991  19.3695  19.4383  19.9065  20.1765  20.6207
    20.9094  21.1821

          k = 0.0556 0.1667-0.5000 ( 11998 PWs)   bands (ev):

   -69.0622 -69.0619 -69.0181 -69.0179 -69.0078 -69.0076 -68.9991 -68.9990
   -68.9984 -68.9981 -68.9963 -68.9959 -68.9896 -68.9893 -68.9559 -68.9556
   -35.2551 -35.2551 -35.2421 -35.2419 -35.2414 -35.2412 -35.2407 -35.2406
   -35.2227 -35.2227 -35.1971 -35.1970 -35.1966 -35.1966 -35.1319 -35.1316
   -35.1016 -35.1015 -35.0566 -35.0564 -35.0434 -35.0432 -35.0371 -35.0368
   -35.0303 -35.0301 -35.0065 -35.0063 -34.9817 -34.9814 -34.9750 -34.9748
   -34.9383 -34.9383 -34.9175 -34.9173 -34.9142 -34.9140 -34.9121 -34.9121
   -34.9026 -34.9024 -34.8947 -34.8947 -34.8791 -34.8791 -34.8784 -34.8784
    11.7211  11.7211  13.8151  13.8152  14.1981  14.1982  14.4138  14.4138
    14.4809  14.4809  14.4941  14.4941  14.5639  14.5640  14.7639  14.7640
    14.7785  14.7787  15.5060  15.5062  15.5271  15.5273  15.9350  15.9350
    15.9369  15.9370  15.9649  15.9650  15.9955  15.9955  16.3430  16.3430
    16.3611  16.3612  16.4377  16.4377  16.5403  16.5404  16.5410  16.5410
    16.6398  16.6400  16.7459  16.7460  16.7500  16.7502  17.3157  17.3158
    17.4431  17.4432  17.6462  17.6462  17.7332  17.7333  17.7618  17.7618
    17.7959  17.7960  17.9986  17.9988  18.0893  18.0895  18.0908  18.0910
    18.1263  18.1265  18.1700  18.1701  18.2492  18.2493  18.2948  18.2950
    18.5020  18.5021  18.6171  18.6171  18.8029  18.8029  18.8664  18.8664
    19.0841  19.0842  19.2225  19.2225  19.6688  19.6688  20.4138  20.4138
    21.0980  21.0981

          k = 0.0556 0.2778 0.2778 ( 12005 PWs)   bands (ev):

   -69.0741 -69.0362 -69.0361 -69.0164 -69.0099 -69.0030 -69.0030 -68.9987
   -68.9978 -68.9976 -68.9974 -68.9949 -68.9884 -68.9766 -68.9766 -68.9462
   -35.2907 -35.2746 -35.2746 -35.2664 -35.2664 -35.2344 -35.2085 -35.2085
   -35.2066 -35.2046 -35.1969 -35.1941 -35.1763 -35.1564 -35.1217 -35.0872
   -35.0845 -35.0845 -35.0795 -35.0795 -35.0490 -35.0413 -35.0412 -35.0335
   -35.0335 -35.0223 -35.0222 -35.0156 -35.0156 -35.0103 -34.9809 -34.9558
   -34.9504 -34.9504 -34.9435 -34.9398 -34.9388 -34.9195 -34.9137 -34.8971
   -34.8970 -34.8866 -34.8866 -34.8805 -34.8799 -34.8799 -34.8552 -34.8547
    11.1209  13.0421  13.0421  13.7777  14.2598  14.2637  14.2637  14.2741
    14.3268  14.3268  14.3499  14.3499  14.6021  14.7187  14.7187  15.1833
    15.1839  15.1839  15.2488  15.5859  15.5921  15.6412  15.6412  15.6553
    15.6803  15.6803  15.7478  15.7909  16.0591  16.0849  16.1433  16.3542
    16.3542  16.4385  16.4385  16.4412  16.4881  16.5086  16.5757  16.6413
    16.9289  16.9289  17.0724  17.0724  17.1339  17.1339  17.1712  17.3106
    17.3837  17.3838  17.4896  17.5712  17.6832  17.6832  17.7129  17.7661
    17.9431  17.9550  17.9550  17.9622  17.9623  17.9877  17.9877  18.0212
    18.0778  18.1190  18.1350  18.1744  18.2081  18.3132  18.3681  18.3682
    18.3842  18.3842  18.4433  18.5970  18.6562  18.6562  18.6622  18.9728
    18.9728  19.0216  19.3132  19.4806  19.4946  20.2201  20.7739  20.7739
    21.4169  21.4169

          k = 0.0556 0.2778 0.3889 ( 12022 PWs)   bands (ev):

   -69.0670 -69.0477 -69.0324 -69.0223 -69.0085 -69.0049 -69.0018 -68.9991
   -68.9983 -68.9976 -68.9969 -68.9954 -68.9844 -68.9786 -68.9668 -68.9515
   -35.2784 -35.2578 -35.2577 -35.2531 -35.2464 -35.2360 -35.2206 -35.2161
   -35.2155 -35.2147 -35.2138 -35.2015 -35.1986 -35.1425 -35.1245 -35.1032
   -35.0994 -35.0782 -35.0726 -35.0528 -35.0494 -35.0482 -35.0473 -35.0439
   -35.0437 -35.0387 -35.0251 -35.0151 -35.0133 -34.9925 -34.9729 -34.9713
   -34.9558 -34.9372 -34.9337 -34.9284 -34.9254 -34.9225 -34.9063 -34.8962
   -34.8957 -34.8940 -34.8929 -34.8862 -34.8795 -34.8791 -34.8580 -34.8575
    11.4831  12.4741  13.2474  13.6390  14.3286  14.3519  14.3997  14.4572
    14.4652  14.4977  14.5177  14.5850  14.6406  14.6650  14.6745  14.9322
    15.0654  15.0805  15.4028  15.5532  15.5916  15.5929  15.6178  15.6261
    15.7367  15.7673  15.7681  15.8453  16.0662  16.1679  16.2263  16.2794
    16.2796  16.3596  16.3985  16.4178  16.4213  16.4397  16.5109  16.5573
    16.6056  16.6528  16.7329  16.7868  16.8281  16.8892  17.3493  17.3969
    17.4540  17.6007  17.6274  17.6362  17.6491  17.6773  17.6906  17.7495
    17.8795  17.8864  17.8987  17.9227  17.9894  18.0024  18.0042  18.0104
    18.0858  18.1031  18.1291  18.1903  18.1974  18.2171  18.2468  18.2686
    18.3306  18.4080  18.4414  18.4433  18.4612  18.6282  18.6854  18.7835
    19.1246  19.1762  19.3032  19.4388  19.8022  20.4579  20.5430  21.1793
    21.4436  22.0537

          k = 0.0556 0.2778-0.5000 ( 12024 PWs)   bands (ev):

   -69.0583 -69.0580 -69.0279 -69.0276 -69.0069 -69.0066 -69.0006 -69.0004
   -68.9980 -68.9977 -68.9963 -68.9959 -68.9812 -68.9810 -68.9585 -68.9582
   -35.2597 -35.2597 -35.2375 -35.2374 -35.2374 -35.2372 -35.2372 -35.2370
   -35.2230 -35.2230 -35.2172 -35.2171 -35.1644 -35.1644 -35.1244 -35.1242
   -35.0750 -35.0750 -35.0640 -35.0638 -35.0635 -35.0633 -35.0426 -35.0425
   -35.0354 -35.0352 -35.0148 -35.0146 -35.0099 -35.0098 -34.9636 -34.9636
   -34.9629 -34.9627 -34.9125 -34.9123 -34.9093 -34.9092 -34.9091 -34.9089
   -34.9077 -34.9077 -34.8949 -34.8949 -34.8661 -34.8660 -34.8660 -34.8660
    11.9423  11.9423  13.4582  13.4582  14.3723  14.3723  14.5418  14.5419
    14.5790  14.5790  14.5790  14.5791  14.7024  14.7025  14.8096  14.8097
    14.8456  14.8457  15.5551  15.5552  15.5758  15.5759  15.7099  15.7101
    15.7504  15.7505  15.7906  15.7907  15.9883  15.9883  16.3738  16.3738
    16.3761  16.3761  16.3992  16.3992  16.4851  16.4852  16.4998  16.4999
    16.5382  16.5382  16.5653  16.5654  16.5709  16.5709  17.5391  17.5392
    17.5743  17.5744  17.6223  17.6224  17.6908  17.6909  17.7743  17.7743
    17.7852  17.7852  17.7853  17.7854  18.0465  18.0466  18.0570  18.0572
    18.0786  18.0788  18.1374  18.1376  18.2121  18.2122  18.2164  18.2165
    18.3159  18.3160  18.4637  18.4638  18.5293  18.5293  18.6660  18.6661
    19.2378  19.2378  19.3355  19.3355  20.1304  20.1304  20.8748  20.8748
    22.1286  22.1287

          k = 0.0556 0.3889 0.3889 ( 12032 PWs)   bands (ev):

   -69.0606 -69.0430 -69.0429 -69.0299 -69.0070 -69.0036 -69.0036 -69.0006
   -68.9979 -68.9971 -68.9970 -68.9958 -68.9786 -68.9698 -68.9698 -68.9561
   -35.2712 -35.2463 -35.2463 -35.2393 -35.2393 -35.2386 -35.2385 -35.2263
   -35.2255 -35.2235 -35.2222 -35.2099 -35.1664 -35.1295 -35.0940 -35.0939
   -35.0873 -35.0873 -35.0765 -35.0737 -35.0683 -35.0535 -35.0535 -35.0521
   -35.0403 -35.0247 -35.0247 -35.0198 -35.0198 -35.0195 -35.0095 -34.9628
   -34.9577 -34.9360 -34.9360 -34.9198 -34.9144 -34.9124 -34.9041 -34.9005
   -34.8993 -34.8993 -34.8948 -34.8948 -34.8660 -34.8660 -34.8550 -34.8547
    11.8265  12.7431  12.7431  13.3634  14.4906  14.5070  14.5534  14.5752
    14.5753  14.6594  14.6594  14.6855  14.6911  14.6911  14.7689  15.0223
    15.0482  15.1529  15.1529  15.5469  15.5736  15.5843  15.6525  15.6525
    15.6559  15.6559  15.6712  15.7490  15.9139  16.1588  16.1783  16.1784
    16.2239  16.3072  16.3315  16.3703  16.4429  16.4429  16.4623  16.4623
    16.4774  16.4774  16.5100  16.5546  16.6961  17.0823  17.0824  17.5612
    17.6264  17.6337  17.6337  17.6833  17.7140  17.7341  17.7595  17.7596
    17.7653  17.8772  17.9300  17.9300  17.9400  17.9400  17.9673  18.0122
    18.0123  18.0377  18.0383  18.0623  18.1351  18.1352  18.1791  18.2226
    18.2973  18.3282  18.3282  18.4110  18.4927  18.4927  18.5364  18.5588
    19.2869  19.2870  19.3557  19.4482  20.2052  20.9582  21.0362  21.0362
    21.7853  21.7853

          k = 0.0556 0.3889-0.5000 ( 12032 PWs)   bands (ev):

   -69.0526 -69.0524 -69.0370 -69.0368 -69.0055 -69.0053 -69.0022 -69.0020
   -68.9975 -68.9972 -68.9965 -68.9962 -68.9739 -68.9736 -68.9624 -68.9621
   -35.2574 -35.2574 -35.2349 -35.2349 -35.2341 -35.2340 -35.2337 -35.2335
   -35.2320 -35.2319 -35.2243 -35.2242 -35.1275 -35.1275 -35.1134 -35.1132
   -35.0824 -35.0822 -35.0673 -35.0672 -35.0553 -35.0552 -35.0488 -35.0488
   -35.0468 -35.0467 -35.0336 -35.0335 -35.0230 -35.0230 -34.9909 -34.9909
   -34.9459 -34.9457 -34.9188 -34.9185 -34.9062 -34.9060 -34.9055 -34.9054
   -34.9044 -34.9043 -34.8968 -34.8967 -34.8578 -34.8578 -34.8578 -34.8577
    12.2560  12.2561  13.0530  13.0530  14.5862  14.5862  14.5891  14.5891
    14.6217  14.6217  14.7791  14.7792  14.8359  14.8360  14.9094  14.9095
    14.9166  14.9167  15.4347  15.4348  15.5815  15.5816  15.5899  15.5900
    15.5994  15.5995  15.6624  15.6625  16.0268  16.0268  16.2254  16.2254
    16.2697  16.2699  16.3067  16.3068  16.3085  16.3086  16.3279  16.3280
    16.5137  16.5138  16.5367  16.5368  16.7818  16.7818  17.3709  17.3710
    17.6645  17.6646  17.6950  17.6950  17.7832  17.7832  17.7869  17.7870
    17.8253  17.8254  17.8583  17.8583  17.9497  17.9499  17.9815  17.9816
    18.0053  18.0054  18.0226  18.0228  18.0643  18.0644  18.2639  18.2640
    18.2803  18.2803  18.3713  18.3714  18.3714  18.3715  18.5222  18.5222
    19.3492  19.3492  19.3974  19.3974  20.6211  20.6211  21.3826  21.3826
    21.6274  21.6274

          k = 0.0556-0.5000-0.5000 ( 12012 PWs)   bands (ev):

   -69.0455 -69.0453 -69.0453 -69.0450 -69.0040 -69.0038 -69.0038 -69.0036
   -68.9971 -68.9968 -68.9968 -68.9964 -68.9676 -68.9674 -68.9674 -68.9671
   -35.2486 -35.2486 -35.2486 -35.2486 -35.2325 -35.2324 -35.2324 -35.2323
   -35.2274 -35.2273 -35.2273 -35.2272 -35.0993 -35.0991 -35.0991 -35.0988
   -35.0883 -35.0882 -35.0882 -35.0882 -35.0644 -35.0643 -35.0643 -35.0643
   -35.0298 -35.0298 -35.0297 -35.0297 -35.0188 -35.0188 -35.0187 -35.0187
   -34.9311 -34.9309 -34.9309 -34.9306 -34.9036 -34.9035 -34.9035 -34.9034
   -34.9006 -34.9005 -34.9005 -34.9005 -34.8549 -34.8549 -34.8549 -34.8549
    12.6380  12.6380  12.6380  12.6381  14.6187  14.6187  14.6187  14.6187
    14.7713  14.7714  14.7714  14.7714  14.9191  14.9191  14.9191  14.9191
    15.1608  15.1609  15.1609  15.1610  15.5436  15.5436  15.5436  15.5437
    15.5983  15.5984  15.5984  15.5984  16.1076  16.1076  16.1076  16.1076
    16.2260  16.2261  16.2261  16.2262  16.2715  16.2715  16.2715  16.2717
    16.5048  16.5048  16.5048  16.5050  17.0629  17.0629  17.0630  17.0630
    17.7773  17.7773  17.7773  17.7774  17.7799  17.7800  17.7800  17.7803
    17.9020  17.9021  17.9021  17.9023  17.9367  17.9368  17.9368  17.9369
    17.9994  17.9996  17.9996  17.9998  18.0327  18.0327  18.0327  18.0327
    18.3116  18.3117  18.3117  18.3118  18.4316  18.4317  18.4317  18.4317
    19.4030  19.4030  19.4031  19.4031  21.1231  21.1231  21.1231  21.1231
    21.9024  21.9024

          k = 0.1667 0.1667 0.1667 ( 12005 PWs)   bands (ev):

   -69.0816 -69.0249 -69.0249 -69.0248 -69.0059 -69.0059 -69.0058 -68.9969
   -68.9955 -68.9955 -68.9955 -68.9937 -68.9872 -68.9872 -68.9871 -68.9407
   -35.2982 -35.2981 -35.2981 -35.2794 -35.2794 -35.2794 -35.1866 -35.1866
   -35.1842 -35.1775 -35.1775 -35.1775 -35.1423 -35.1342 -35.1342 -35.1010
   -35.1009 -35.1009 -35.0628 -35.0628 -35.0628 -35.0275 -35.0275 -35.0275
   -35.0174 -35.0174 -35.0046 -35.0045 -35.0045 -35.0015 -35.0015 -35.0015
   -34.9748 -34.9747 -34.9747 -34.9670 -34.9296 -34.9296 -34.9295 -34.9048
   -34.8802 -34.8802 -34.8802 -34.8622 -34.8621 -34.8621 -34.8595 -34.8595
    10.7443  13.5540  13.5540  13.5540  14.0011  14.0011  14.0011  14.1395
    14.1395  14.1716  14.1716  14.1716  14.6850  14.6850  14.6850  15.2712
    15.3712  15.3713  15.3713  15.5406  15.5406  15.6110  15.6111  15.6111
    15.7112  15.7112  15.7112  15.8927  15.8927  15.8990  16.1771  16.1772
    16.1772  16.6152  16.6152  16.6491  16.6491  16.6492  16.9957  17.0205
    17.0205  17.0205  17.1551  17.1551  17.1551  17.2107  17.2108  17.2108
    17.5807  17.5807  17.5807  17.8019  17.8020  17.8020  17.8800  17.8800
    17.9149  17.9149  17.9149  18.0706  18.0707  18.0707  18.1134  18.1134
    18.1134  18.1207  18.1207  18.1207  18.1512  18.1512  18.1769  18.1769
    18.6212  18.6286  18.6286  18.6287  18.6742  18.6742  18.6742  19.1111
    19.1111  19.1111  19.1661  19.1661  19.9881  19.9881  19.9881  20.6462
    20.6462  20.6462

          k = 0.1667 0.1667 0.2778 ( 11991 PWs)   bands (ev):

   -69.0765 -69.0375 -69.0231 -69.0230 -69.0097 -69.0096 -69.0048 -68.9984
   -68.9952 -68.9937 -68.9931 -68.9929 -68.9877 -68.9876 -68.9759 -68.9443
   -35.2888 -35.2888 -35.2842 -35.2695 -35.2578 -35.2578 -35.2020 -35.2003
   -35.2003 -35.1953 -35.1918 -35.1759 -35.1714 -35.1304 -35.1304 -35.1233
   -35.1158 -35.0910 -35.0667 -35.0636 -35.0636 -35.0401 -35.0369 -35.0369
   -35.0305 -35.0241 -35.0070 -34.9942 -34.9942 -34.9809 -34.9799 -34.9799
   -34.9770 -34.9770 -34.9475 -34.9465 -34.9296 -34.9119 -34.9119 -34.9083
   -34.8943 -34.8943 -34.8868 -34.8749 -34.8687 -34.8639 -34.8639 -34.8596
    10.9975  12.9715  13.6781  13.6781  13.9885  13.9885  14.1913  14.2436
    14.2543  14.2886  14.2886  14.3406  14.7289  14.7289  14.7541  15.0891
    15.1949  15.4103  15.4103  15.4141  15.5051  15.5832  15.6609  15.6809
    15.6809  15.7320  15.8403  15.8403  15.9868  16.0854  16.0854  16.0970
    16.3561  16.4876  16.4876  16.5471  16.5579  16.5953  16.7578  16.7578
    16.7889  16.7890  17.0282  17.1350  17.2015  17.2425  17.3318  17.3319
    17.3838  17.3838  17.4165  17.6270  17.6270  17.7885  17.8177  17.8430
    17.8431  17.8778  17.9343  17.9646  18.0083  18.0084  18.0363  18.1190
    18.1336  18.1459  18.1655  18.2026  18.2292  18.2293  18.2584  18.2584
    18.3351  18.3965  18.7411  18.7411  18.7571  18.7651  18.7651  18.8100
    18.9568  19.1806  19.1807  19.2046  19.6938  19.6938  20.6399  20.8665
    20.8665  21.4974

          k = 0.1667 0.1667 0.3889 ( 12016 PWs)   bands (ev):

   -69.0693 -69.0494 -69.0205 -69.0204 -69.0136 -69.0135 -69.0034 -69.0000
   -68.9947 -68.9938 -68.9911 -68.9910 -68.9884 -68.9883 -68.9658 -68.9499
   -35.2728 -35.2728 -35.2636 -35.2558 -35.2302 -35.2302 -35.2263 -35.2263
   -35.2205 -35.2064 -35.2012 -35.2003 -35.1642 -35.1642 -35.1606 -35.1173
   -35.1030 -35.0962 -35.0601 -35.0601 -35.0567 -35.0560 -35.0461 -35.0461
   -35.0310 -35.0243 -35.0139 -34.9885 -34.9885 -34.9800 -34.9800 -34.9600
   -34.9551 -34.9551 -34.9475 -34.9271 -34.9226 -34.9115 -34.9115 -34.8966
   -34.8951 -34.8950 -34.8938 -34.8903 -34.8827 -34.8702 -34.8701 -34.8652
    11.3661  12.3820  13.8138  13.8138  13.9697  13.9697  14.3958  14.4050
    14.4269  14.4269  14.4581  14.5713  14.6875  14.6875  14.6977  14.8257
    15.0588  15.1154  15.5010  15.5495  15.5821  15.5821  15.6035  15.6067
    15.7942  15.7943  15.9777  15.9778  16.0354  16.0354  16.2434  16.3354
    16.3654  16.3654  16.3861  16.3861  16.4652  16.5000  16.5006  16.5461
    16.5461  16.5665  16.8311  16.8311  16.8332  16.9777  17.2962  17.3538
    17.4372  17.5858  17.5858  17.6593  17.6664  17.6664  17.6745  17.7738
    17.7738  17.9139  17.9139  18.0096  18.0256  18.0258  18.0504  18.0920
    18.1091  18.1257  18.1346  18.1399  18.2237  18.2511  18.3146  18.3146
    18.3560  18.3560  18.5007  18.6861  18.9094  18.9094  18.9201  18.9201
    18.9702  19.1536  19.1537  19.1784  19.4209  19.4209  21.1297  21.1297
    21.3282  21.5300

          k = 0.1667 0.1667-0.5000 ( 12030 PWs)   bands (ev):

   -69.0603 -69.0600 -69.0174 -69.0173 -69.0171 -69.0170 -69.0019 -69.0017
   -68.9943 -68.9940 -68.9897 -68.9897 -68.9895 -68.9894 -68.9572 -68.9569
   -35.2515 -35.2515 -35.2515 -35.2515 -35.2391 -35.2389 -35.2375 -35.2373
   -35.2030 -35.2029 -35.1983 -35.1983 -35.1983 -35.1983 -35.1407 -35.1405
   -35.0804 -35.0803 -35.0758 -35.0756 -35.0544 -35.0544 -35.0542 -35.0542
   -35.0205 -35.0203 -34.9948 -34.9947 -34.9839 -34.9839 -34.9837 -34.9837
   -34.9320 -34.9320 -34.9320 -34.9320 -34.9185 -34.9183 -34.9103 -34.9101
   -34.9010 -34.9007 -34.8806 -34.8806 -34.8806 -34.8806 -34.8754 -34.8754
    11.8353  11.8354  13.9169  13.9169  13.9169  13.9169  14.5654  14.5655
    14.5703  14.5703  14.5703  14.5703  14.5921  14.5922  14.7777  14.7779
    14.8304  14.8305  15.5187  15.5189  15.5736  15.5737  15.8602  15.8602
    15.8603  15.8603  15.9325  15.9325  15.9325  15.9325  16.3352  16.3352
    16.3352  16.3352  16.4764  16.4764  16.4764  16.4764  16.4825  16.4825
    16.5269  16.5270  16.5806  16.5807  16.5906  16.5907  17.4771  17.4772
    17.5061  17.5061  17.7138  17.7139  17.7139  17.7139  17.7187  17.7188
    17.7701  17.7701  17.7701  17.7701  18.0791  18.0793  18.0857  18.0859
    18.1037  18.1039  18.1329  18.1330  18.3413  18.3413  18.3612  18.3612
    18.3613  18.3613  18.3884  18.3887  19.0586  19.0586  19.0586  19.0586
    19.0968  19.0969  19.1543  19.1543  19.1544  19.1544  21.3760  21.3760
    21.3761  21.3761

          k = 0.1667 0.2778 0.2778 ( 12017 PWs)   bands (ev):

   -69.0718 -69.0350 -69.0349 -69.0213 -69.0156 -69.0085 -69.0085 -69.0005
   -68.9931 -68.9929 -68.9927 -68.9885 -68.9880 -68.9772 -68.9771 -68.9478
   -35.2839 -35.2755 -35.2755 -35.2514 -35.2514 -35.2329 -35.2122 -35.2115
   -35.2114 -35.2111 -35.2009 -35.1796 -35.1732 -35.1499 -35.1250 -35.1022
   -35.0972 -35.0972 -35.0916 -35.0916 -35.0721 -35.0518 -35.0518 -35.0515
   -35.0122 -35.0052 -35.0051 -34.9990 -34.9990 -34.9823 -34.9801 -34.9675
   -34.9601 -34.9565 -34.9503 -34.9503 -34.9315 -34.9115 -34.9026 -34.8959
   -34.8959 -34.8941 -34.8940 -34.8757 -34.8757 -34.8745 -34.8616 -34.8597
    11.2447  13.1373  13.1373  13.8209  13.8864  14.1865  14.1865  14.3391
    14.3720  14.4135  14.4547  14.4547  14.8041  14.8041  14.8325  15.1641
    15.1641  15.1657  15.3686  15.3763  15.5486  15.6451  15.6451  15.7274
    15.7553  15.7596  15.7596  15.8762  15.9618  15.9870  16.0588  16.2280
    16.2280  16.4117  16.4128  16.4195  16.4195  16.4675  16.5437  16.6187
    16.6710  16.6710  16.9335  16.9335  17.0163  17.0163  17.0869  17.3038
    17.4125  17.4125  17.4723  17.7156  17.7777  17.7975  17.8180  17.8180
    17.9134  17.9134  17.9135  17.9751  17.9915  17.9916  18.0267  18.0810
    18.1081  18.1082  18.1113  18.1408  18.1641  18.1641  18.1676  18.2312
    18.3128  18.3966  18.3966  18.7563  18.8500  18.8614  18.8614  18.9292
    18.9292  18.9562  19.1971  19.2643  19.3641  20.2607  20.2607  21.1513
    21.9755  21.9755

          k = 0.1667 0.2778 0.3889 ( 12018 PWs)   bands (ev):

   -69.0649 -69.0461 -69.0312 -69.0213 -69.0187 -69.0122 -69.0068 -69.0026
   -68.9928 -68.9925 -68.9910 -68.9887 -68.9846 -68.9790 -68.9677 -68.9529
   -35.2720 -35.2620 -35.2565 -35.2427 -35.2336 -35.2283 -35.2268 -35.2222
   -35.2162 -35.2096 -35.2051 -35.2025 -35.1750 -35.1596 -35.1322 -35.1175
   -35.1118 -35.0863 -35.0794 -35.0743 -35.0709 -35.0650 -35.0625 -35.0614
   -35.0303 -35.0105 -35.0041 -34.9926 -34.9890 -34.9836 -34.9790 -34.9716
   -34.9554 -34.9411 -34.9408 -34.9312 -34.9260 -34.9182 -34.9082 -34.9002
   -34.8932 -34.8929 -34.8874 -34.8803 -34.8793 -34.8792 -34.8637 -34.8616
    11.6033  12.5806  13.3498  13.7506  13.9824  14.1704  14.4643  14.4689
    14.5358  14.5448  14.5929  14.6782  14.7515  14.7662  14.8444  14.9342
    15.0957  15.1321  15.3750  15.4728  15.5417  15.6018  15.6491  15.6727
    15.7384  15.8199  15.8306  15.8896  16.0204  16.0290  16.0972  16.1881
    16.2038  16.3059  16.3147  16.3523  16.3595  16.3909  16.4066  16.4403
    16.4984  16.5367  16.6074  16.6543  16.6664  16.7163  17.1390  17.4948
    17.4955  17.5994  17.6187  17.7076  17.7222  17.7406  17.7752  17.7768
    17.8645  17.8978  17.9022  17.9204  17.9698  17.9966  18.0073  18.0588
    18.0785  18.1125  18.1363  18.1413  18.1471  18.1880  18.2131  18.2330
    18.2968  18.3151  18.5285  18.5989  18.6085  18.7902  18.8805  19.0640
    19.0700  19.0725  19.2010  19.2512  19.2609  19.9123  20.8683  21.4878
    22.0642  22.1316

          k = 0.1667 0.2778-0.5000 ( 12010 PWs)   bands (ev):

   -69.0564 -69.0561 -69.0268 -69.0265 -69.0158 -69.0155 -69.0049 -69.0047
   -68.9927 -68.9924 -68.9898 -68.9895 -68.9816 -68.9813 -68.9597 -68.9594
   -35.2549 -35.2549 -35.2448 -35.2448 -35.2327 -35.2326 -35.2325 -35.2323
   -35.2152 -35.2151 -35.2020 -35.2019 -35.1682 -35.1682 -35.1407 -35.1404
   -35.0920 -35.0919 -35.0772 -35.0770 -35.0705 -35.0703 -35.0553 -35.0552
   -35.0247 -35.0247 -35.0085 -35.0082 -34.9875 -34.9874 -34.9627 -34.9625
   -34.9541 -34.9541 -34.9231 -34.9231 -34.9154 -34.9151 -34.9075 -34.9074
   -34.9049 -34.9046 -34.8849 -34.8849 -34.8700 -34.8700 -34.8682 -34.8682
    12.0570  12.0571  13.5672  13.5672  14.1083  14.1084  14.6194  14.6195
    14.6687  14.6687  14.7258  14.7259  14.7373  14.7373  14.7952  14.7953
    14.9177  14.9178  15.5623  15.5625  15.6168  15.6170  15.6794  15.6795
    15.7014  15.7015  15.8325  15.8326  15.9497  15.9497  16.3009  16.3010
    16.3133  16.3135  16.3406  16.3406  16.3474  16.3475  16.3667  16.3668
    16.4161  16.4161  16.4486  16.4488  16.4502  16.4502  17.4035  17.4036
    17.6071  17.6071  17.7059  17.7059  17.7408  17.7408  17.7681  17.7682
    17.7724  17.7725  17.8211  17.8211  18.0409  18.0411  18.0627  18.0628
    18.0757  18.0759  18.1426  18.1427  18.1765  18.1767  18.2857  18.2858
    18.3309  18.3311  18.4137  18.4137  18.7903  18.7904  18.8446  18.8447
    19.1574  19.1575  19.1895  19.1896  19.5765  19.5765  21.4940  21.4940
    21.8161  21.8161

          k = 0.1667 0.3889 0.3889 ( 12004 PWs)   bands (ev):

   -69.0587 -69.0414 -69.0414 -69.0288 -69.0163 -69.0102 -69.0102 -69.0053
   -68.9919 -68.9911 -68.9910 -68.9893 -68.9790 -68.9706 -68.9705 -68.9574
   -35.2645 -35.2467 -35.2467 -35.2345 -35.2344 -35.2302 -35.2262 -35.2262
   -35.2231 -35.2203 -35.2133 -35.1900 -35.1697 -35.1487 -35.1125 -35.1104
   -35.1103 -35.0967 -35.0967 -35.0847 -35.0828 -35.0820 -35.0820 -35.0544
   -35.0231 -35.0044 -35.0040 -35.0039 -34.9969 -34.9969 -34.9875 -34.9564
   -34.9537 -34.9332 -34.9332 -34.9272 -34.9263 -34.9112 -34.9063 -34.9063
   -34.8986 -34.8922 -34.8922 -34.8916 -34.8692 -34.8692 -34.8613 -34.8602
    11.9449  12.8532  12.8532  13.4781  14.1864  14.4473  14.4474  14.5633
    14.6412  14.7192  14.7467  14.7467  14.8120  14.8120  14.9859  15.0255
    15.1197  15.1564  15.1564  15.4117  15.5829  15.6102  15.6729  15.6729
    15.6845  15.6845  15.7470  15.7845  15.8887  15.9521  16.1348  16.1402
    16.1402  16.2216  16.2803  16.2913  16.2914  16.3251  16.3420  16.3420
    16.3543  16.3638  16.3639  16.4428  16.5299  16.8474  16.8474  17.3879
    17.6490  17.6490  17.7087  17.7109  17.7586  17.7658  17.8706  17.8716
    17.9274  17.9274  17.9488  17.9489  17.9532  17.9668  17.9668  18.0309
    18.0400  18.1002  18.1002  18.1153  18.1548  18.1948  18.1948  18.2278
    18.2279  18.2799  18.3590  18.4076  18.6423  18.6423  18.6996  18.7750
    19.1762  19.1763  19.2361  19.2931  19.6331  20.4418  20.4418  21.5503
    21.9064  22.6832

          k = 0.1667 0.3889-0.5000 ( 12024 PWs)   bands (ev):

   -69.0509 -69.0506 -69.0357 -69.0354 -69.0136 -69.0133 -69.0080 -69.0077
   -68.9915 -68.9912 -68.9901 -68.9898 -68.9745 -68.9742 -68.9634 -68.9632
   -35.2515 -35.2515 -35.2371 -35.2370 -35.2296 -35.2296 -35.2294 -35.2292
   -35.2245 -35.2243 -35.2080 -35.2079 -35.1338 -35.1338 -35.1318 -35.1316
   -35.1005 -35.1004 -35.0985 -35.0983 -35.0873 -35.0872 -35.0601 -35.0601
   -35.0292 -35.0292 -35.0009 -35.0008 -34.9918 -34.9917 -34.9782 -34.9782
   -34.9437 -34.9434 -34.9153 -34.9152 -34.9143 -34.9141 -34.9087 -34.9085
   -34.9072 -34.9071 -34.8916 -34.8916 -34.8630 -34.8630 -34.8623 -34.8623
    12.3712  12.3712  13.1664  13.1665  14.3592  14.3592  14.6653  14.6654
    14.7092  14.7093  14.7605  14.7606  14.9328  14.9329  14.9466  14.9466
    15.0254  15.0255  15.4383  15.4384  15.5439  15.5440  15.5885  15.5886
    15.6156  15.6157  15.7298  15.7299  15.9975  15.9975  16.0975  16.0976
    16.1897  16.1898  16.1961  16.1961  16.1998  16.1999  16.2406  16.2406
    16.3957  16.3958  16.3995  16.3996  16.5816  16.5816  17.0932  17.0933
    17.7168  17.7168  17.7853  17.7853  17.8216  17.8217  17.8338  17.8339
    17.9303  17.9304  17.9559  17.9559  17.9761  17.9762  18.0151  18.0153
    18.0567  18.0568  18.0592  18.0594  18.1704  18.1706  18.1722  18.1723
    18.2405  18.2406  18.4683  18.4683  18.4922  18.4923  18.6613  18.6613
    19.2322  19.2322  19.2607  19.2607  20.0323  20.0323  20.9894  20.9895
    22.3272  22.3272

          k = 0.1667-0.5000-0.5000 ( 12000 PWs)   bands (ev):

   -69.0439 -69.0437 -69.0437 -69.0434 -69.0111 -69.0109 -69.0109 -69.0106
   -68.9907 -68.9905 -68.9905 -68.9902 -68.9685 -68.9682 -68.9682 -68.9679
   -35.2425 -35.2425 -35.2425 -35.2425 -35.2310 -35.2308 -35.2308 -35.2307
   -35.2159 -35.2157 -35.2157 -35.2156 -35.1170 -35.1169 -35.1169 -35.1166
   -35.0984 -35.0984 -35.0984 -35.0984 -35.0969 -35.0969 -35.0969 -35.0969
   -35.0034 -35.0033 -35.0033 -35.0033 -34.9962 -34.9961 -34.9961 -34.9961
   -34.9274 -34.9273 -34.9273 -34.9270 -34.9097 -34.9096 -34.9096 -34.9095
   -34.9000 -34.8999 -34.8999 -34.8998 -34.8606 -34.8606 -34.8606 -34.8606
    12.7531  12.7531  12.7531  12.7531  14.6070  14.6070  14.6070  14.6070
    14.7019  14.7019  14.7019  14.7020  15.0822  15.0822  15.0822  15.0822
    15.1790  15.1790  15.1790  15.1792  15.4901  15.4902  15.4902  15.4903
    15.6581  15.6582  15.6582  15.6582  16.0710  16.0711  16.0711  16.0713
    16.0797  16.0797  16.0798  16.0798  16.1823  16.1824  16.1824  16.1825
    16.3761  16.3761  16.3761  16.3762  16.8126  16.8127  16.8127  16.8127
    17.7889  17.7889  17.7889  17.7890  17.8975  17.8976  17.8976  17.8977
    17.9871  17.9872  17.9872  17.9873  17.9961  17.9963  17.9963  17.9965
    18.0125  18.0126  18.0126  18.0127  18.2051  18.2052  18.2052  18.2054
    18.2193  18.2194  18.2194  18.2194  18.5386  18.5386  18.5386  18.5387
    19.2732  19.2733  19.2733  19.2733  20.5046  20.5046  20.5046  20.5047
    22.8532  22.8532

          k = 0.2778 0.2778 0.2778 ( 12013 PWs)   bands (ev):

   -69.0673 -69.0325 -69.0325 -69.0324 -69.0140 -69.0140 -69.0140 -69.0034
   -68.9915 -68.9887 -68.9887 -68.9886 -68.9783 -68.9783 -68.9782 -68.9509
   -35.2703 -35.2702 -35.2702 -35.2301 -35.2301 -35.2301 -35.2187 -35.2187
   -35.2186 -35.2167 -35.1898 -35.1898 -35.1614 -35.1614 -35.1192 -35.1191
   -35.1191 -35.1018 -35.1018 -35.1018 -35.0791 -35.0695 -35.0695 -35.0695
   -34.9841 -34.9841 -34.9841 -34.9832 -34.9832 -34.9832 -34.9829 -34.9767
   -34.9767 -34.9518 -34.9517 -34.9517 -34.9213 -34.9084 -34.9084 -34.9084
   -34.8885 -34.8885 -34.8884 -34.8740 -34.8740 -34.8740 -34.8694 -34.8694
    11.4873  13.3139  13.3139  13.3139  14.0974  14.0974  14.0974  14.4606
    14.4606  14.5777  14.5777  14.5777  14.9348  14.9348  14.9348  15.1564
    15.1564  15.1564  15.1776  15.5425  15.5425  15.5541  15.6911  15.6911
    15.6911  15.8695  15.8695  15.8695  15.8792  15.8792  16.1008  16.1008
    16.1008  16.3219  16.3219  16.3220  16.3547  16.3547  16.3547  16.4279
    16.4279  16.6897  16.6897  16.6897  16.7495  16.7495  16.7495  17.4939
    17.5102  17.5103  17.5103  17.7010  17.8563  17.8563  17.8838  17.8838
    17.8838  17.9163  17.9163  17.9163  17.9691  17.9691  17.9691  18.0869
    18.0869  18.0869  18.1074  18.1074  18.2041  18.2041  18.2041  18.2270
    18.2270  18.5535  18.5535  18.5535  18.8986  18.8986  18.8987  18.9717
    18.9717  18.9717  18.9889  18.9889  19.8498  19.8498  19.8498  22.1332
    22.2682  22.2682

          k = 0.2778 0.2778 0.3889 ( 12003 PWs)   bands (ev):

   -69.0608 -69.0430 -69.0290 -69.0289 -69.0195 -69.0194 -69.0119 -69.0063
   -68.9902 -68.9889 -68.9851 -68.9850 -68.9799 -68.9798 -68.9694 -68.9557
   -35.2596 -35.2596 -35.2503 -35.2306 -35.2305 -35.2271 -35.2203 -35.2194
   -35.2045 -35.2045 -35.2040 -35.1952 -35.1738 -35.1465 -35.1465 -35.1398
   -35.1289 -35.1034 -35.1034 -35.0919 -35.0851 -35.0851 -35.0849 -35.0553
   -35.0150 -35.0069 -34.9860 -34.9827 -34.9719 -34.9719 -34.9610 -34.9610
   -34.9556 -34.9556 -34.9443 -34.9258 -34.9232 -34.9232 -34.9130 -34.9069
   -34.8925 -34.8840 -34.8828 -34.8828 -34.8778 -34.8748 -34.8747 -34.8679
    11.8381  12.7843  13.5422  13.5422  13.9667  13.9667  14.3967  14.5893
    14.6191  14.7110  14.7110  14.7979  14.9067  14.9404  14.9404  14.9451
    15.1613  15.1651  15.3178  15.3178  15.5618  15.6450  15.6999  15.7431
    15.7742  15.7742  15.7796  15.9040  15.9041  15.9915  15.9915  16.0154
    16.1199  16.1199  16.2111  16.2317  16.2317  16.2658  16.2730  16.3331
    16.3714  16.3947  16.4462  16.4463  16.4558  16.4558  16.8413  17.3754
    17.5871  17.6470  17.6470  17.7098  17.7764  17.8807  17.8807  17.9005
    17.9005  17.9327  17.9327  17.9362  17.9932  18.0018  18.0703  18.0931
    18.1027  18.1039  18.1049  18.1049  18.1628  18.1861  18.1956  18.1956
    18.2383  18.3271  18.6986  18.7241  18.8377  18.8377  18.9217  18.9217
    19.0006  19.0007  19.0055  19.0594  19.4926  19.4926  20.3877  21.5280
    22.6105  22.6105

          k = 0.2778 0.2778-0.5000 ( 11998 PWs)   bands (ev):

   -69.0528 -69.0525 -69.0247 -69.0246 -69.0244 -69.0244 -69.0094 -69.0092
   -68.9895 -68.9892 -68.9823 -68.9822 -68.9820 -68.9819 -68.9620 -68.9617
   -35.2454 -35.2453 -35.2453 -35.2453 -35.2251 -35.2248 -35.2238 -35.2236
   -35.2143 -35.2142 -35.1757 -35.1757 -35.1757 -35.1757 -35.1534 -35.1531
   -35.1162 -35.1160 -35.0972 -35.0972 -35.0971 -35.0970 -35.0498 -35.0498
   -35.0310 -35.0310 -34.9859 -34.9857 -34.9625 -34.9625 -34.9624 -34.9624
   -34.9410 -34.9410 -34.9410 -34.9409 -34.9161 -34.9158 -34.9082 -34.9080
   -34.9032 -34.9029 -34.8779 -34.8779 -34.8778 -34.8778 -34.8709 -34.8709
    12.2795  12.2795  13.7757  13.7757  13.7757  13.7757  14.7531  14.7532
    14.7621  14.7622  14.7832  14.7833  14.8400  14.8400  14.8400  14.8400
    15.0269  15.0270  15.5988  15.5989  15.6117  15.6117  15.6118  15.6118
    15.6575  15.6576  15.8818  15.8818  15.8819  15.8819  16.0653  16.0654
    16.1494  16.1494  16.2498  16.2498  16.2498  16.2498  16.2572  16.2572
    16.2573  16.2573  16.2777  16.2778  16.2995  16.2997  17.0785  17.0786
    17.6820  17.6821  17.7857  17.7857  17.7857  17.7857  17.9042  17.9042
    17.9042  17.9042  17.9414  17.9415  18.0301  18.0303  18.0343  18.0345
    18.0991  18.0992  18.1080  18.1082  18.1536  18.1536  18.1538  18.1538
    18.4391  18.4394  18.4815  18.4816  18.9719  18.9719  18.9719  18.9719
    19.0627  19.0628  19.1580  19.1580  19.1581  19.1581  20.9491  20.9492
    22.9094  22.9095

          k = 0.2778 0.3889 0.3889 ( 12026 PWs)   bands (ev):

   -69.0549 -69.0386 -69.0385 -69.0266 -69.0257 -69.0169 -69.0169 -69.0101
   -68.9883 -68.9858 -68.9858 -68.9813 -68.9798 -68.9721 -68.9720 -68.9598
   -35.2515 -35.2417 -35.2416 -35.2296 -35.2279 -35.2279 -35.2164 -35.2088
   -35.2077 -35.2077 -35.1989 -35.1763 -35.1711 -35.1653 -35.1474 -35.1304
   -35.1304 -35.1156 -35.1141 -35.1140 -35.1088 -35.1088 -35.1055 -35.0465
   -35.0309 -34.9835 -34.9835 -34.9719 -34.9718 -34.9707 -34.9577 -34.9544
   -34.9437 -34.9409 -34.9331 -34.9303 -34.9302 -34.9163 -34.9163 -34.9109
   -34.8916 -34.8912 -34.8911 -34.8860 -34.8755 -34.8755 -34.8732 -34.8706
    12.1753  13.0641  13.0641  13.7005  13.7960  14.2712  14.2712  14.6997
    14.7848  14.8094  14.9144  14.9144  14.9351  14.9351  14.9865  15.1408
    15.1590  15.1591  15.2371  15.2701  15.6126  15.6446  15.7159  15.7165
    15.7166  15.7413  15.7427  15.7427  15.8429  15.8883  15.9311  16.0502
    16.0502  16.0735  16.0736  16.1082  16.1248  16.1556  16.1557  16.1987
    16.1988  16.2294  16.2579  16.2803  16.2932  16.5575  16.5575  17.0509
    17.7028  17.7029  17.7363  17.8112  17.8891  17.9256  17.9334  17.9335
    17.9422  17.9547  18.0255  18.0255  18.0326  18.0332  18.0422  18.0914
    18.0914  18.0956  18.1014  18.1015  18.1400  18.1400  18.1685  18.2077
    18.3816  18.5061  18.5061  18.6167  18.7412  18.7413  18.8061  19.0066
    19.0066  19.0256  19.0487  19.1390  19.1939  19.9652  19.9652  20.9798
    23.0283  23.6520

          k = 0.2778 0.3889-0.5000 ( 12018 PWs)   bands (ev):

   -69.0475 -69.0472 -69.0331 -69.0328 -69.0217 -69.0214 -69.0138 -69.0136
   -68.9870 -68.9867 -68.9834 -68.9831 -68.9757 -68.9754 -68.9655 -68.9652
   -35.2400 -35.2400 -35.2333 -35.2333 -35.2199 -35.2199 -35.2198 -35.2197
   -35.2120 -35.2119 -35.1865 -35.1864 -35.1538 -35.1536 -35.1453 -35.1453
   -35.1317 -35.1315 -35.1217 -35.1215 -35.1177 -35.1176 -35.0801 -35.0801
   -35.0068 -35.0067 -34.9707 -34.9706 -34.9625 -34.9624 -34.9613 -34.9612
   -34.9402 -34.9400 -34.9287 -34.9287 -34.9121 -34.9120 -34.9117 -34.9115
   -34.9086 -34.9083 -34.8888 -34.8888 -34.8733 -34.8733 -34.8717 -34.8717
    12.5943  12.5943  13.3852  13.3852  14.0604  14.0604  14.6337  14.6338
    14.8147  14.8148  14.8776  14.8776  14.9781  14.9782  15.0726  15.0727
    15.1630  15.1631  15.4420  15.4421  15.5037  15.5039  15.6123  15.6124
    15.6590  15.6591  15.8011  15.8012  15.8938  15.8939  15.9442  15.9442
    15.9809  15.9809  16.0562  16.0563  16.1002  16.1003  16.1424  16.1425
    16.1948  16.1949  16.2304  16.2305  16.3121  16.3121  16.7661  16.7661
    17.7683  17.7684  17.8154  17.8154  17.8397  17.8398  17.9818  17.9820
    17.9949  17.9950  18.0415  18.0416  18.0511  18.0511  18.0529  18.0530
    18.0982  18.0983  18.1348  18.1349  18.1439  18.1440  18.2182  18.2183
    18.3810  18.3812  18.5263  18.5264  18.7582  18.7583  18.8147  18.8147
    19.0381  19.0381  19.0399  19.0399  19.5715  19.5715  20.4627  20.4627
    23.4255  23.4256

          k = 0.2778-0.5000-0.5000 ( 12004 PWs)   bands (ev):

   -69.0409 -69.0407 -69.0407 -69.0404 -69.0181 -69.0179 -69.0179 -69.0176
   -68.9851 -68.9848 -68.9848 -68.9845 -68.9701 -68.9699 -68.9699 -68.9696
   -35.2303 -35.2302 -35.2302 -35.2302 -35.2228 -35.2227 -35.2227 -35.2226
   -35.1990 -35.1989 -35.1989 -35.1988 -35.1416 -35.1414 -35.1414 -35.1412
   -35.1315 -35.1314 -35.1314 -35.1314 -35.1125 -35.1125 -35.1125 -35.1125
   -34.9834 -34.9833 -34.9833 -34.9833 -34.9641 -34.9640 -34.9640 -34.9640
   -34.9218 -34.9217 -34.9217 -34.9214 -34.9189 -34.9188 -34.9188 -34.9188
   -34.9015 -34.9014 -34.9014 -34.9013 -34.8718 -34.8717 -34.8717 -34.8717
    12.9758  12.9758  12.9758  12.9758  14.3745  14.3746  14.3746  14.3746
    14.8609  14.8609  14.8609  14.8609  15.2135  15.2136  15.2136  15.2137
    15.2672  15.2673  15.2673  15.2673  15.4347  15.4347  15.4347  15.4348
    15.7258  15.7259  15.7259  15.7259  15.9073  15.9074  15.9074  15.9076
    15.9961  15.9961  15.9961  15.9962  16.0278  16.0278  16.0278  16.0278
    16.1901  16.1902  16.1902  16.1903  16.4980  16.4981  16.4981  16.4981
    17.8266  17.8266  17.8266  17.8267  17.9113  17.9114  17.9114  17.9115
    17.9883  17.9884  17.9884  17.9886  18.1155  18.1156  18.1156  18.1158
    18.1379  18.1380  18.1380  18.1380  18.2163  18.2164  18.2164  18.2166
    18.5073  18.5074  18.5074  18.5074  18.6028  18.6029  18.6029  18.6030
    19.0534  19.0534  19.0534  19.0534  20.0076  20.0076  20.0076  20.0077
    23.9522  23.9522

          k = 0.3889 0.3889 0.3889 ( 11998 PWs)   bands (ev):

   -69.0494 -69.0345 -69.0345 -69.0344 -69.0234 -69.0234 -69.0233 -69.0149
   -68.9854 -68.9812 -68.9812 -68.9811 -68.9743 -68.9743 -68.9742 -68.9635
   -35.2326 -35.2325 -35.2325 -35.2225 -35.2225 -35.2225 -35.2069 -35.1917
   -35.1917 -35.1855 -35.1855 -35.1855 -35.1796 -35.1796 -35.1445 -35.1444
   -35.1444 -35.1362 -35.1362 -35.1362 -35.1310 -35.1310 -35.1310 -35.0748
   -35.0071 -34.9631 -34.9631 -34.9631 -34.9509 -34.9509 -34.9509 -34.9397
   -34.9397 -34.9300 -34.9300 -34.9300 -34.9291 -34.9290 -34.9290 -34.9135
   -34.8905 -34.8905 -34.8905 -34.8860 -34.8860 -34.8827 -34.8827 -34.8826
    12.5045  13.3555  13.3555  13.3555  14.0144  14.0144  14.0144  14.7594
    14.8788  14.8788  15.0420  15.0421  15.0421  15.1287  15.1287  15.1287
    15.1721  15.1721  15.1721  15.3802  15.6602  15.6602  15.6796  15.6796
    15.7294  15.7294  15.7294  15.7835  15.7836  15.7836  15.8805  15.8805
    15.8805  15.9860  15.9860  15.9860  16.0197  16.0197  16.0198  16.0528
    16.0528  16.0529  16.1598  16.1598  16.2788  16.2789  16.2789  16.7258
    17.7831  17.7832  17.7832  17.8854  17.8854  17.9288  17.9288  17.9288
    18.0383  18.0383  18.0433  18.0434  18.0434  18.0684  18.0684  18.0684
    18.1190  18.1190  18.1190  18.2264  18.2453  18.2454  18.2454  18.3497
    18.3497  18.7667  18.7667  18.7844  18.7844  18.7844  18.8355  18.8355
    18.8355  18.8589  18.8589  18.8589  19.5586  19.5586  19.5586  20.4746
    24.2824  24.2824

          k = 0.3889 0.3889-0.5000 ( 11986 PWs)   bands (ev):

   -69.0426 -69.0423 -69.0294 -69.0294 -69.0292 -69.0291 -69.0195 -69.0193
   -68.9832 -68.9829 -68.9774 -68.9774 -68.9772 -68.9771 -68.9685 -68.9682
   -35.2240 -35.2240 -35.2240 -35.2239 -35.2097 -35.2096 -35.2086 -35.2084
   -35.1961 -35.1960 -35.1702 -35.1700 -35.1608 -35.1608 -35.1608 -35.1608
   -35.1566 -35.1565 -35.1450 -35.1450 -35.1449 -35.1449 -35.1054 -35.1054
   -34.9844 -34.9843 -34.9460 -34.9459 -34.9446 -34.9446 -34.9445 -34.9445
   -34.9363 -34.9363 -34.9362 -34.9362 -34.9198 -34.9197 -34.9129 -34.9127
   -34.9061 -34.9059 -34.8882 -34.8882 -34.8882 -34.8881 -34.8829 -34.8828
    12.9095  12.9095  13.6906  13.6906  13.6906  13.6906  14.3891  14.3891
    14.9957  14.9957  15.0599  15.0599  15.1129  15.1130  15.1130  15.1130
    15.3052  15.3053  15.4375  15.4375  15.4376  15.4376  15.6634  15.6635
    15.7088  15.7088  15.7196  15.7198  15.7955  15.7956  15.8757  15.8758
    15.8758  15.8758  15.9896  15.9896  15.9898  15.9898  16.0428  16.0428
    16.0428  16.0429  16.0729  16.0729  16.0770  16.0772  16.4498  16.4499
    17.8360  17.8360  17.8692  17.8692  17.8693  17.8693  17.9730  17.9732
    17.9810  17.9812  18.0421  18.0422  18.0438  18.0438  18.0440  18.0440
    18.2190  18.2191  18.2191  18.2191  18.2598  18.2599  18.4966  18.4968
    18.5194  18.5194  18.5438  18.5440  18.7992  18.7992  18.7992  18.7992
    18.8476  18.8477  19.1874  19.1874  19.1874  19.1874  20.0054  20.0055
    24.6052  24.6052

          k = 0.3889-0.5000-0.5000 ( 11992 PWs)   bands (ev):

   -69.0366 -69.0364 -69.0364 -69.0360 -69.0249 -69.0247 -69.0247 -69.0244
   -68.9801 -68.9799 -68.9799 -68.9795 -68.9726 -68.9724 -68.9724 -68.9720
   -35.2123 -35.2122 -35.2122 -35.2122 -35.2088 -35.2087 -35.2087 -35.2085
   -35.1786 -35.1785 -35.1785 -35.1784 -35.1665 -35.1664 -35.1664 -35.1662
   -35.1620 -35.1620 -35.1620 -35.1620 -35.1331 -35.1330 -35.1330 -35.1330
   -34.9637 -34.9636 -34.9636 -34.9635 -34.9349 -34.9349 -34.9349 -34.9349
   -34.9309 -34.9308 -34.9308 -34.9307 -34.9154 -34.9152 -34.9152 -34.9150
   -34.9047 -34.9045 -34.9045 -34.9044 -34.8882 -34.8881 -34.8881 -34.8881
    13.2891  13.2891  13.2891  13.2891  14.0466  14.0467  14.0467  14.0467
    15.0787  15.0788  15.0788  15.0788  15.2611  15.2612  15.2612  15.2613
    15.3764  15.3764  15.3764  15.3765  15.4216  15.4216  15.4216  15.4217
    15.8011  15.8011  15.8011  15.8011  15.8157  15.8157  15.8157  15.8158
    15.8363  15.8364  15.8364  15.8365  15.9588  15.9588  15.9588  15.9588
    16.0106  16.0107  16.0107  16.0108  16.1841  16.1842  16.1842  16.1842
    17.8847  17.8848  17.8848  17.8849  17.9332  17.9333  17.9333  17.9335
    17.9749  17.9750  17.9750  17.9752  18.0338  18.0339  18.0339  18.0340
    18.3158  18.3159  18.3159  18.3159  18.4074  18.4075  18.4075  18.4077
    18.6056  18.6057  18.6057  18.6058  18.7952  18.7953  18.7953  18.7953
    18.8428  18.8428  18.8428  18.8429  19.5853  19.5854  19.5854  19.5854
    25.1452  25.1452

          k =-0.5000-0.5000-0.5000 ( 11992 PWs)   bands (ev):

   -69.0313 -69.0312 -69.0312 -69.0312 -69.0309 -69.0309 -69.0309 -69.0305
   -68.9759 -68.9757 -68.9757 -68.9757 -68.9755 -68.9755 -68.9755 -68.9751
   -35.1893 -35.1893 -35.1893 -35.1893 -35.1893 -35.1893 -35.1892 -35.1892
   -35.1890 -35.1890 -35.1890 -35.1890 -35.1890 -35.1889 -35.1889 -35.1889
   -35.1563 -35.1562 -35.1562 -35.1562 -35.1561 -35.1561 -35.1561 -35.1561
   -34.9455 -34.9454 -34.9454 -34.9454 -34.9453 -34.9453 -34.9453 -34.9453
   -34.9098 -34.9098 -34.9098 -34.9098 -34.9098 -34.9098 -34.9097 -34.9097
   -34.9096 -34.9096 -34.9095 -34.9095 -34.9095 -34.9094 -34.9094 -34.9094
    13.6627  13.6628  13.6628  13.6628  13.6628  13.6628  13.6628  13.6628
    15.3172  15.3172  15.3172  15.3172  15.3172  15.3173  15.3173  15.3173
    15.3173  15.3173  15.3173  15.3174  15.3174  15.3174  15.3175  15.3175
    15.8801  15.8801  15.8801  15.8801  15.8801  15.8801  15.8801  15.8801
    15.8803  15.8803  15.8803  15.8803  15.8803  15.8804  15.8804  15.8804
    15.9109  15.9110  15.9110  15.9110  15.9111  15.9111  15.9111  15.9111
    17.9558  17.9558  17.9558  17.9558  17.9558  17.9559  17.9559  17.9559
    17.9559  17.9559  17.9559  17.9560  17.9560  17.9560  17.9561  17.9561
    18.5401  18.5401  18.5401  18.5401  18.5401  18.5401  18.5402  18.5402
    18.5403  18.5403  18.5403  18.5403  18.5403  18.5405  18.5405  18.5405
    19.2023  19.2024  19.2024  19.2024  19.2025  19.2025  19.2025  19.2025
    26.3000  26.3000

 ------ SPIN DOWN ----------


          k = 0.0556 0.0556 0.0556 ( 11990 PWs)   bands (ev):

   -66.6012 -66.5183 -66.5183 -66.5183 -66.5050 -66.5050 -66.5050 -66.5037
   -66.5036 -66.5036 -66.5035 -66.5035 -66.5035 -66.4980 -66.4973 -66.4335
   -32.9116 -32.9116 -32.9116 -32.9090 -32.9089 -32.9089 -32.7667 -32.7667
   -32.7612 -32.6980 -32.6952 -32.6952 -32.6952 -32.6757 -32.6757 -32.6644
   -32.6644 -32.6644 -32.6320 -32.6320 -32.6107 -32.5969 -32.5969 -32.5969
   -32.5868 -32.5868 -32.5868 -32.5755 -32.5755 -32.5755 -32.5726 -32.5726
   -32.5726 -32.5653 -32.5653 -32.5653 -32.5556 -32.5556 -32.5556 -32.4121
   -32.4103 -32.4103 -32.4103 -32.4075 -32.4075 -32.4075 -32.4070 -32.4070
    10.5007  14.4370  14.4371  14.4371  15.0744  15.0744  15.0744  15.0867
    15.0867  15.0867  15.1265  15.1265  15.1265  15.7616  15.7616  16.8250
    16.9008  16.9008  17.0010  17.0010  17.0171  17.0922  17.0922  17.0922
    17.1051  17.1052  17.1052  17.8430  17.8430  17.8430  18.2263  18.2263
    18.2263  18.4150  18.4150  18.4623  18.6805  18.6805  18.6805  18.8276
    18.8276  18.8276  18.8636  18.8636  18.8636  18.9697  18.9697  18.9697
    19.3820  19.3820  19.3820  19.4264  19.4264  19.4264  19.7481  19.7481
    19.7481  19.9938  19.9938  19.9938  20.4706  20.4706  20.4706  20.4955
    20.4955  20.4955  20.6635  20.6635  20.9410  20.9410  20.9410  20.9865
    20.9865  20.9873  20.9873  21.0820  21.0820  21.0820  21.1621  21.2441
    21.2441  21.5052  21.5052  21.5052  21.6084  21.6085  21.6085  21.6545
    21.6545  21.6545

          k = 0.0556 0.0556 0.1667 ( 12005 PWs)   bands (ev):

   -66.5979 -66.5330 -66.5177 -66.5177 -66.5066 -66.5066 -66.5046 -66.5035
   -66.5035 -66.5032 -66.5027 -66.5027 -66.4984 -66.4978 -66.4897 -66.4359
   -32.9046 -32.9046 -32.9036 -32.9013 -32.8972 -32.8972 -32.7700 -32.7611
   -32.7527 -32.7302 -32.7229 -32.7229 -32.7211 -32.7196 -32.6931 -32.6931
   -32.6623 -32.6380 -32.6285 -32.6284 -32.6178 -32.5967 -32.5967 -32.5889
   -32.5809 -32.5787 -32.5787 -32.5775 -32.5774 -32.5704 -32.5704 -32.5657
   -32.5657 -32.5617 -32.5617 -32.5344 -32.5317 -32.5317 -32.5254 -32.4248
   -32.4183 -32.4183 -32.4171 -32.4148 -32.4113 -32.4102 -32.4102 -32.4087
    10.6330  13.7351  14.5067  14.5067  15.0609  15.0609  15.1308  15.1308
    15.1838  15.1838  15.1842  15.2225  15.5803  15.8099  15.8281  16.7304
    16.8103  16.8503  16.9258  17.0683  17.0799  17.1280  17.1418  17.1418
    17.1552  17.1805  17.1805  17.4426  17.7457  17.7457  18.0461  18.0461
    18.3886  18.4092  18.4480  18.4762  18.4762  18.5233  18.5421  18.6482
    18.6482  18.8961  19.0276  19.0276  19.0740  19.0740  19.0912  19.1005
    19.1005  19.1165  19.1284  19.1284  19.1321  19.1924  19.5083  19.9691
    19.9691  20.2096  20.2096  20.2376  20.3913  20.3913  20.4599  20.4599
    20.4967  20.5181  20.5857  20.6952  20.9440  20.9469  20.9498  20.9790
    20.9827  20.9854  21.0075  21.0301  21.0301  21.0955  21.2374  21.3089
    21.3212  21.3212  21.5042  21.5042  21.5213  21.5214  21.6963  21.6963
    21.8326  21.8326

          k = 0.0556 0.0556 0.2778 ( 12000 PWs)   bands (ev):

   -66.5921 -66.5475 -66.5164 -66.5164 -66.5086 -66.5086 -66.5038 -66.5032
   -66.5032 -66.5025 -66.5023 -66.5023 -66.4992 -66.4984 -66.4766 -66.4401
   -32.8888 -32.8888 -32.8880 -32.8862 -32.8762 -32.8762 -32.7704 -32.7670
   -32.7616 -32.7600 -32.7599 -32.7498 -32.7406 -32.7394 -32.7319 -32.7319
   -32.6587 -32.6488 -32.6476 -32.6333 -32.5951 -32.5951 -32.5907 -32.5900
   -32.5864 -32.5824 -32.5824 -32.5687 -32.5687 -32.5659 -32.5659 -32.5482
   -32.5412 -32.5306 -32.5305 -32.5053 -32.5022 -32.5022 -32.4970 -32.4466
   -32.4317 -32.4317 -32.4309 -32.4293 -32.4212 -32.4185 -32.4185 -32.4165
    10.8943  13.0290  14.6297  14.6298  15.0359  15.0359  15.2210  15.2210
    15.2518  15.2518  15.3715  15.4066  15.8957  15.9076  15.9598  16.5544
    16.5763  16.8420  16.8692  17.0245  17.0342  17.0603  17.2517  17.2517
    17.3158  17.3158  17.3363  17.3670  17.6531  17.6531  17.8922  17.8922
    18.1963  18.1963  18.3497  18.3497  18.3691  18.3986  18.4422  18.4464
    18.5750  18.5750  18.6139  18.6454  18.6454  18.7259  18.7325  19.2224
    19.2813  19.3628  19.3704  19.3704  19.3842  19.3842  19.4707  20.2625
    20.2625  20.2678  20.2678  20.3597  20.3597  20.4322  20.4723  20.4988
    20.4988  20.5469  20.5648  20.7046  20.7540  20.8325  20.8781  20.8831
    20.9493  20.9735  20.9770  20.9804  21.1471  21.1471  21.1643  21.1660
    21.3651  21.3651  21.4151  21.4151  21.4996  21.4996  21.8205  21.8205
    21.8789  21.8789

          k = 0.0556 0.0556 0.3889 ( 12003 PWs)   bands (ev):

   -66.5839 -66.5613 -66.5148 -66.5148 -66.5108 -66.5107 -66.5029 -66.5029
   -66.5026 -66.5023 -66.5023 -66.5015 -66.5003 -66.4993 -66.4649 -66.4465
   -32.8651 -32.8648 -32.8648 -32.8639 -32.8474 -32.8474 -32.8032 -32.8007
   -32.7983 -32.7983 -32.7731 -32.7731 -32.7686 -32.7547 -32.7332 -32.7221
   -32.6867 -32.6755 -32.6338 -32.6233 -32.6033 -32.5976 -32.5927 -32.5927
   -32.5859 -32.5859 -32.5676 -32.5676 -32.5663 -32.5663 -32.5504 -32.5109
   -32.5069 -32.5003 -32.5003 -32.4790 -32.4760 -32.4745 -32.4745 -32.4714
   -32.4507 -32.4503 -32.4500 -32.4499 -32.4363 -32.4321 -32.4321 -32.4302
    11.2780  12.3643  14.7749  14.7749  14.9902  14.9902  15.3033  15.3033
    15.3120  15.3120  15.6330  15.6626  15.9931  16.0547  16.1542  16.2722
    16.2787  16.7115  16.8665  16.8774  16.9695  16.9771  17.4175  17.4175
    17.5057  17.5057  17.6071  17.6366  17.6554  17.6554  17.8175  17.8175
    17.9409  17.9410  18.0484  18.0484  18.1522  18.1522  18.2406  18.2406
    18.3136  18.3327  18.3583  18.3887  18.3901  18.4084  18.7364  19.0736
    19.5860  19.6295  19.6295  19.6754  19.6910  19.6910  19.7925  20.0884
[...]
   -32.4434 -32.4434 -32.4434 -32.4278 -32.4278 -32.4278 -32.4224 -32.4224
    11.6478  13.6131  13.6131  13.6131  14.8456  14.8456  14.8456  15.9056
    15.9056  15.9056  16.2165  16.2165  16.2165  16.2416  16.2416  16.2658
    16.5163  16.9601  16.9601  17.0031  17.0031  17.0031  17.2102  17.2102
    17.2219  17.2219  17.2219  17.4112  17.4113  17.4113  17.8123  17.8123
    17.8123  17.8586  17.8586  17.8586  17.8810  17.8811  17.8811  17.8817
    17.8817  17.8817  18.0997  18.0997  18.3295  18.3295  18.3295  19.2622
    19.3742  19.8051  19.8051  19.8051  19.8900  19.8900  19.8900  20.1631
    20.1631  20.1631  20.2403  20.2403  20.2403  20.4777  20.4777  20.4777
    20.5534  20.5534  20.7692  20.7692  20.8441  20.8441  20.8703  20.8703
    20.8703  20.9024  20.9025  20.9025  20.9119  20.9119  21.0553  21.0553
    21.0553  21.1172  21.1172  21.1172  21.5674  21.5674  21.5674  23.5600
    23.6859  23.6860

          k = 0.2778 0.2778 0.3889 ( 12003 PWs)   bands (ev):

   -66.5698 -66.5506 -66.5354 -66.5354 -66.5251 -66.5251 -66.5169 -66.5108
   -66.4934 -66.4920 -66.4879 -66.4879 -66.4823 -66.4823 -66.4710 -66.4561
   -32.8522 -32.8522 -32.8421 -32.8200 -32.8200 -32.8168 -32.8092 -32.8074
   -32.7921 -32.7921 -32.7898 -32.7813 -32.7563 -32.7282 -32.7282 -32.7201
   -32.7069 -32.6790 -32.6790 -32.6667 -32.6604 -32.6589 -32.6589 -32.6259
   -32.5832 -32.5729 -32.5502 -32.5471 -32.5346 -32.5346 -32.5227 -32.5227
   -32.5168 -32.5168 -32.5050 -32.4841 -32.4814 -32.4814 -32.4702 -32.4635
   -32.4480 -32.4384 -32.4372 -32.4372 -32.4317 -32.4285 -32.4285 -32.4208
    12.0080  13.0123  13.8845  13.8845  14.5371  14.5371  15.1485  15.9128
    16.0866  16.0866  16.1249  16.2874  16.2874  16.3567  16.3867  16.4032
    16.4985  16.7794  17.0107  17.0456  17.0456  17.0903  17.1166  17.1525
    17.2610  17.3229  17.3229  17.3644  17.4667  17.4667  17.5876  17.6352
    17.6352  17.6782  17.6782  17.7070  17.7580  17.7580  17.7701  17.7701
    17.8664  17.8965  17.9839  18.0412  18.0717  18.0717  18.4613  19.0049
    19.4887  19.9038  19.9038  19.9880  20.0293  20.0631  20.0631  20.0733
    20.0733  20.0753  20.3233  20.4041  20.4041  20.4226  20.5412  20.5412
    20.5548  20.6131  20.6398  20.6569  20.7505  20.7923  20.8540  20.8540
    20.8579  20.8698  20.9052  20.9567  20.9583  20.9583  20.9816  21.0052
    21.0268  21.0268  21.0981  21.0982  21.2663  21.2663  22.0335  23.0397
    23.9835  23.9835

          k = 0.2778 0.2778-0.5000 ( 11998 PWs)   bands (ev):

   -66.5611 -66.5609 -66.5307 -66.5306 -66.5305 -66.5305 -66.5141 -66.5139
   -66.4925 -66.4924 -66.4848 -66.4848 -66.4846 -66.4846 -66.4629 -66.4628
   -32.8364 -32.8364 -32.8363 -32.8363 -32.8142 -32.8140 -32.8131 -32.8129
   -32.8013 -32.8013 -32.7604 -32.7604 -32.7603 -32.7603 -32.7338 -32.7336
   -32.6937 -32.6937 -32.6722 -32.6722 -32.6721 -32.6721 -32.6217 -32.6216
   -32.5993 -32.5993 -32.5504 -32.5503 -32.5243 -32.5243 -32.5242 -32.5242
   -32.5008 -32.5008 -32.5008 -32.5007 -32.4740 -32.4738 -32.4648 -32.4647
   -32.4593 -32.4591 -32.4319 -32.4319 -32.4318 -32.4318 -32.4241 -32.4241
    12.4688  12.4689  14.2046  14.2046  14.2046  14.2046  15.5169  15.5170
    16.2329  16.2329  16.2329  16.2329  16.3511  16.3512  16.4332  16.4333
    16.5694  16.5695  17.0783  17.0785  17.1399  17.1401  17.2294  17.2294
    17.2295  17.2295  17.3137  17.3137  17.4635  17.4636  17.4636  17.4636
    17.5357  17.5358  17.7228  17.7229  17.7230  17.7230  17.8388  17.8388
    17.8388  17.8388  17.9025  17.9025  17.9723  17.9724  18.6881  18.6881
    19.7328  19.7328  19.9794  19.9795  19.9795  19.9795  20.2564  20.2565
    20.2565  20.2565  20.2590  20.2591  20.3073  20.3075  20.4877  20.4878
    20.6492  20.6493  20.7757  20.7758  20.7914  20.7914  20.7914  20.7915
    20.8507  20.8507  20.8661  20.8662  21.0234  21.0235  21.0367  21.0367
    21.0367  21.0367  21.0502  21.0502  21.0502  21.0502  22.5309  22.5310
    24.2174  24.2175

          k = 0.2778 0.3889 0.3889 ( 12026 PWs)   bands (ev):

   -66.5634 -66.5457 -66.5457 -66.5328 -66.5319 -66.5223 -66.5223 -66.5149
   -66.4913 -66.4887 -66.4887 -66.4838 -66.4822 -66.4739 -66.4739 -66.4607
   -32.8431 -32.8324 -32.8324 -32.8190 -32.8168 -32.8168 -32.8048 -32.7955
   -32.7955 -32.7951 -32.7852 -32.7611 -32.7534 -32.7489 -32.7284 -32.7087
   -32.7087 -32.6926 -32.6924 -32.6924 -32.6854 -32.6853 -32.6813 -32.6179
   -32.5992 -32.5473 -32.5473 -32.5348 -32.5348 -32.5339 -32.5192 -32.5154
   -32.5036 -32.5007 -32.4927 -32.4890 -32.4890 -32.4737 -32.4737 -32.4678
   -32.4467 -32.4465 -32.4465 -32.4407 -32.4292 -32.4292 -32.4268 -32.4237
    12.3567  13.3186  13.3186  14.1134  14.1653  14.8390  14.8390  15.5833
    16.2882  16.3027  16.3027  16.4375  16.4676  16.4860  16.4860  16.5231
    16.5791  16.8698  16.8698  16.9978  17.0894  17.1095  17.1205  17.2458
    17.2458  17.2806  17.2806  17.3438  17.3484  17.4047  17.5054  17.5054
    17.5163  17.5631  17.5631  17.6047  17.6901  17.6902  17.6944  17.7198
    17.8006  17.8006  17.8502  17.8673  17.9471  18.1505  18.1505  18.6380
    19.7422  20.0315  20.0641  20.0642  20.0643  20.2147  20.2188  20.2188
    20.2514  20.2514  20.2910  20.2910  20.4244  20.4504  20.4912  20.4912
    20.5131  20.5722  20.6384  20.6963  20.7583  20.7837  20.8018  20.8357
    20.8521  20.8521  20.8561  20.8561  20.8966  20.9273  20.9280  20.9280
    20.9773  21.0028  21.0028  21.0930  21.0998  21.6774  21.6774  22.5724
    24.3629  24.8526

          k = 0.2778 0.3889-0.5000 ( 12018 PWs)   bands (ev):

   -66.5553 -66.5552 -66.5397 -66.5396 -66.5274 -66.5272 -66.5189 -66.5187
   -66.4899 -66.4897 -66.4860 -66.4858 -66.4777 -66.4775 -66.4667 -66.4665
   -32.8302 -32.8301 -32.8231 -32.8230 -32.8084 -32.8082 -32.8076 -32.8076
   -32.8001 -32.8000 -32.7721 -32.7720 -32.7343 -32.7342 -32.7269 -32.7269
   -32.7107 -32.7107 -32.6991 -32.6990 -32.6951 -32.6950 -32.6551 -32.6550
   -32.5728 -32.5727 -32.5337 -32.5337 -32.5245 -32.5244 -32.5230 -32.5229
   -32.4998 -32.4997 -32.4873 -32.4872 -32.4691 -32.4690 -32.4690 -32.4689
   -32.4652 -32.4650 -32.4439 -32.4438 -32.4268 -32.4268 -32.4250 -32.4250
    12.8002  12.8003  13.6953  13.6954  14.4967  14.4968  15.2024  15.2024
    16.4336  16.4336  16.4410  16.4410  16.5096  16.5096  16.5302  16.5302
    16.6935  16.6935  17.0884  17.0885  17.0999  17.1000  17.1287  17.1287
    17.1643  17.1645  17.2801  17.2801  17.3732  17.3733  17.4430  17.4430
    17.5139  17.5140  17.5282  17.5283  17.6615  17.6616  17.7384  17.7386
    17.7611  17.7611  17.8687  17.8689  17.8889  17.8889  18.3382  18.3382
    20.0121  20.0122  20.0413  20.0414  20.1732  20.1732  20.2818  20.2819
    20.3549  20.3549  20.3596  20.3597  20.3648  20.3649  20.4299  20.4300
    20.5947  20.5948  20.6009  20.6010  20.7273  20.7274  20.8108  20.8108
    20.8124  20.8125  20.8436  20.8438  20.8523  20.8524  20.8958  20.8958
    21.0095  21.0095  21.0603  21.0603  21.3451  21.3452  22.1193  22.1194
    24.7010  24.7010

          k = 0.2778-0.5000-0.5000 ( 12004 PWs)   bands (ev):

   -66.5482 -66.5480 -66.5480 -66.5478 -66.5235 -66.5233 -66.5233 -66.5232
   -66.4877 -66.4876 -66.4876 -66.4874 -66.4717 -66.4715 -66.4715 -66.4714
   -32.8192 -32.8192 -32.8192 -32.8192 -32.8115 -32.8114 -32.8114 -32.8113
   -32.7858 -32.7857 -32.7857 -32.7856 -32.7210 -32.7208 -32.7208 -32.7207
   -32.7105 -32.7104 -32.7104 -32.7104 -32.6908 -32.6907 -32.6907 -32.6907
   -32.5472 -32.5471 -32.5471 -32.5470 -32.5264 -32.5264 -32.5264 -32.5264
   -32.4797 -32.4796 -32.4796 -32.4794 -32.4765 -32.4764 -32.4764 -32.4763
   -32.4578 -32.4577 -32.4577 -32.4576 -32.4251 -32.4251 -32.4251 -32.4250
    13.2169  13.2170  13.2170  13.2170  14.8440  14.8440  14.8440  14.8441
    16.5290  16.5291  16.5291  16.5291  16.5823  16.5823  16.5823  16.5824
    16.8950  16.8951  16.8951  16.8951  17.0333  17.0334  17.0334  17.0334
    17.2740  17.2740  17.2740  17.2741  17.3485  17.3486  17.3486  17.3487
    17.5163  17.5164  17.5164  17.5164  17.6268  17.6268  17.6268  17.6268
    17.7917  17.7919  17.7919  17.7920  18.0574  18.0574  18.0574  18.0574
    20.1573  20.1574  20.1574  20.1574  20.3068  20.3068  20.3068  20.3068
    20.3299  20.3299  20.3299  20.3300  20.4073  20.4074  20.4074  20.4074
    20.4864  20.4865  20.4865  20.4866  20.7232  20.7233  20.7233  20.7234
    20.8173  20.8173  20.8173  20.8173  20.8495  20.8496  20.8496  20.8497
    21.0456  21.0456  21.0456  21.0457  21.7232  21.7233  21.7233  21.7234
    25.1777  25.1777

          k = 0.3889 0.3889 0.3889 ( 11998 PWs)   bands (ev):

   -66.5575 -66.5413 -66.5413 -66.5413 -66.5293 -66.5293 -66.5293 -66.5200
   -66.4881 -66.4836 -66.4836 -66.4836 -66.4763 -66.4763 -66.4763 -66.4646
   -32.8222 -32.8222 -32.8222 -32.8109 -32.8109 -32.8109 -32.7945 -32.7764
   -32.7764 -32.7711 -32.7711 -32.7711 -32.7639 -32.7639 -32.7243 -32.7243
   -32.7243 -32.7168 -32.7168 -32.7168 -32.7098 -32.7098 -32.7098 -32.6492
   -32.5730 -32.5249 -32.5249 -32.5249 -32.5118 -32.5118 -32.5118 -32.4998
   -32.4998 -32.4889 -32.4889 -32.4889 -32.4876 -32.4876 -32.4876 -32.4705
   -32.4458 -32.4458 -32.4457 -32.4406 -32.4406 -32.4371 -32.4371 -32.4371
    12.6971  13.6270  13.6270  13.6270  14.4224  14.4225  14.4225  15.2039
    16.5120  16.5120  16.5120  16.6205  16.6205  16.6735  16.6735  16.6735
    16.7564  16.8676  16.8676  16.8676  17.1591  17.1591  17.1741  17.1741
    17.3011  17.3011  17.3011  17.3271  17.3271  17.3271  17.4194  17.4194
    17.4194  17.4901  17.4901  17.4901  17.6077  17.6077  17.6077  17.6099
    17.6099  17.6099  17.7912  17.7912  17.8389  17.8389  17.8389  18.2625
    20.0184  20.2238  20.2238  20.2239  20.2568  20.2568  20.2568  20.3394
    20.3394  20.3394  20.5145  20.5145  20.5145  20.5591  20.5591  20.6006
    20.6006  20.6006  20.6283  20.6283  20.7075  20.7075  20.7349  20.7349
    20.7876  20.7876  20.7876  20.8304  20.8304  20.8304  20.8852  20.8852
    20.8852  20.8968  20.8968  20.8968  21.3091  21.3091  21.3091  22.1352
    25.4588  25.4588

          k = 0.3889 0.3889-0.5000 ( 11986 PWs)   bands (ev):

   -66.5501 -66.5499 -66.5358 -66.5357 -66.5356 -66.5356 -66.5251 -66.5249
   -66.4857 -66.4856 -66.4796 -66.4795 -66.4794 -66.4794 -66.4699 -66.4698
   -32.8126 -32.8126 -32.8125 -32.8125 -32.7964 -32.7963 -32.7958 -32.7956
   -32.7827 -32.7826 -32.7527 -32.7525 -32.7439 -32.7439 -32.7438 -32.7438
   -32.7382 -32.7382 -32.7251 -32.7251 -32.7250 -32.7250 -32.6829 -32.6828
   -32.5482 -32.5481 -32.5066 -32.5065 -32.5046 -32.5046 -32.5045 -32.5045
   -32.4958 -32.4958 -32.4957 -32.4957 -32.4774 -32.4773 -32.4704 -32.4702
   -32.4626 -32.4625 -32.4432 -32.4432 -32.4431 -32.4431 -32.4372 -32.4372
    13.1279  13.1279  14.0053  14.0053  14.0054  14.0054  14.7986  14.7987
    16.6647  16.6647  16.6647  16.6647  16.7255  16.7256  16.7376  16.7377
    16.7385  16.7386  17.0489  17.0490  17.0490  17.0490  17.1831  17.1832
    17.2409  17.2409  17.2415  17.2417  17.2921  17.2922  17.4469  17.4470
    17.4470  17.4470  17.5334  17.5335  17.5336  17.5336  17.5841  17.5841
    17.5841  17.5842  17.6724  17.6725  17.7029  17.7031  17.9697  17.9698
    20.2705  20.2705  20.2706  20.2706  20.3121  20.3122  20.4452  20.4454
    20.4548  20.4548  20.4549  20.4549  20.4575  20.4576  20.4601  20.4602
    20.6221  20.6222  20.6841  20.6841  20.7355  20.7355  20.7656  20.7657
    20.7670  20.7670  20.7671  20.7671  20.8289  20.8290  20.8626  20.8626
    20.8626  20.8626  20.9718  20.9719  20.9719  20.9719  21.7165  21.7166
    25.7478  25.7478

          k = 0.3889-0.5000-0.5000 ( 11992 PWs)   bands (ev):

   -66.5435 -66.5433 -66.5433 -66.5432 -66.5309 -66.5307 -66.5307 -66.5306
   -66.4824 -66.4822 -66.4822 -66.4821 -66.4743 -66.4742 -66.4742 -66.4740
   -32.7994 -32.7994 -32.7994 -32.7993 -32.7959 -32.7957 -32.7957 -32.7956
   -32.7633 -32.7632 -32.7632 -32.7632 -32.7487 -32.7486 -32.7486 -32.7485
   -32.7441 -32.7441 -32.7441 -32.7440 -32.7133 -32.7133 -32.7133 -32.7132
   -32.5255 -32.5254 -32.5254 -32.5253 -32.4944 -32.4944 -32.4944 -32.4943
   -32.4895 -32.4894 -32.4894 -32.4894 -32.4728 -32.4726 -32.4726 -32.4725
   -32.4613 -32.4612 -32.4612 -32.4610 -32.4431 -32.4431 -32.4431 -32.4430
    13.5380  13.5381  13.5381  13.5381  14.3845  14.3845  14.3845  14.3846
    16.7478  16.7479  16.7479  16.7480  16.8803  16.8803  16.8803  16.8804
    16.9291  16.9292  16.9292  16.9292  17.0013  17.0013  17.0013  17.0014
    17.3401  17.3402  17.3402  17.3402  17.3600  17.3600  17.3600  17.3600
    17.3626  17.3628  17.3628  17.3629  17.5453  17.5453  17.5454  17.5454
    17.6039  17.6040  17.6040  17.6042  17.6807  17.6807  17.6807  17.6807
    20.4030  20.4031  20.4031  20.4032  20.4319  20.4319  20.4319  20.4319
    20.5093  20.5094  20.5094  20.5095  20.5621  20.5622  20.5622  20.5622
    20.6317  20.6317  20.6317  20.6318  20.6834  20.6835  20.6835  20.6836
    20.7295  20.7295  20.7295  20.7296  20.7495  20.7496  20.7496  20.7497
    20.8078  20.8078  20.8078  20.8078  21.3356  21.3357  21.3357  21.3357
    26.2615  26.2615

          k =-0.5000-0.5000-0.5000 ( 11992 PWs)   bands (ev):

   -66.5379 -66.5377 -66.5377 -66.5377 -66.5375 -66.5375 -66.5375 -66.5374
   -66.4779 -66.4777 -66.4777 -66.4777 -66.4775 -66.4775 -66.4775 -66.4774
   -32.7741 -32.7741 -32.7741 -32.7740 -32.7740 -32.7739 -32.7739 -32.7739
   -32.7739 -32.7739 -32.7739 -32.7738 -32.7738 -32.7738 -32.7738 -32.7738
   -32.7388 -32.7387 -32.7387 -32.7387 -32.7386 -32.7386 -32.7386 -32.7386
   -32.5055 -32.5054 -32.5054 -32.5054 -32.5053 -32.5053 -32.5053 -32.5053
   -32.4668 -32.4668 -32.4668 -32.4668 -32.4668 -32.4667 -32.4667 -32.4667
   -32.4666 -32.4666 -32.4666 -32.4666 -32.4666 -32.4665 -32.4665 -32.4665
    13.9366  13.9367  13.9367  13.9367  13.9367  13.9367  13.9367  13.9367
    16.9660  16.9660  16.9661  16.9661  16.9661  16.9661  16.9661  16.9661
    16.9662  16.9662  16.9662  16.9662  16.9662  16.9662  16.9663  16.9663
    17.3502  17.3502  17.3502  17.3502  17.3503  17.3503  17.3503  17.3503
    17.4526  17.4526  17.4526  17.4527  17.4527  17.4527  17.4527  17.4527
    17.4528  17.4528  17.4528  17.4528  17.4528  17.4529  17.4529  17.4529
    20.5946  20.5946  20.5946  20.5947  20.5947  20.5947  20.5948  20.5948
    20.5948  20.5948  20.5948  20.5948  20.5948  20.5949  20.5949  20.5949
    20.6289  20.6289  20.6290  20.6290  20.6290  20.6291  20.6291  20.6291
    20.6291  20.6291  20.6291  20.6291  20.6291  20.6291  20.6292  20.6292
    20.9762  20.9762  20.9762  20.9762  20.9763  20.9763  20.9763  20.9763
    27.3415  27.3415

     the Fermi energy is    18.9742 ev

!    total energy              =   -5268.18949398 Ry
     Harris-Foulkes estimate   =   -5268.18949261 Ry
     estimated scf accuracy    <       0.00000043 Ry

     total all-electron energy =    -40728.934023 Ry

     The total energy is the sum of the following terms:

     one-electron contribution =   -1707.43606838 Ry
     hartree contribution      =    1022.28418154 Ry
     xc contribution           =    -444.26065861 Ry
     ewald contribution        =   -2814.22998273 Ry
     one-center paw contrib.   =   -1324.67113450 Ry
     smearing contrib. (-TS)   =       0.12416870 Ry

     total magnetization       =    32.90 Bohr mag/cell
     absolute magnetization    =    34.66 Bohr mag/cell

     convergence has been achieved in  18 iterations

     negative rho (up, down):  0.000E+00 2.465E-03

     Forces acting on atoms (cartesian axes, Ry/au):

     atom    1 type  1   force =     0.00000000   -0.00000000    0.00000000
     atom    2 type  2   force =     0.00001164    0.00001164    0.00001164
     atom    3 type  1   force =     0.00000000    0.00000000   -0.00000000
     atom    4 type  2   force =     0.00001164    0.00001164   -0.00001164
     atom    5 type  1   force =     0.00000000   -0.00000000    0.00000000
     atom    6 type  2   force =     0.00001164   -0.00001164    0.00001164
     atom    7 type  1   force =     0.00000000    0.00000000    0.00000000
     atom    8 type  2   force =     0.00001164   -0.00001164   -0.00001164
     atom    9 type  1   force =     0.00000000    0.00000000    0.00000000
     atom   10 type  2   force =    -0.00001164    0.00001164    0.00001164
     atom   11 type  1   force =     0.00000000   -0.00000000    0.00000000
     atom   12 type  2   force =    -0.00001164    0.00001164   -0.00001164
     atom   13 type  1   force =     0.00000000    0.00000000    0.00000000
     atom   14 type  2   force =    -0.00001164   -0.00001164    0.00001164
     atom   15 type  1   force =     0.00000000    0.00000000    0.00000000
     atom   16 type  2   force =    -0.00001164   -0.00001164   -0.00001164

     Total force =     0.000057     Total SCF correction =     0.002653
     SCF correction compared to forces is large: reduce conv_thr to get better values


     Computing stress (Cartesian axis) and pressure


     negative rho (up, down):  0.000E+00 2.465E-03
          total   stress  (Ry/bohr**3)                   (kbar)     P=   -1.66
  -0.00001127   0.00000000   0.00000000         -1.66      0.00      0.00
   0.00000000  -0.00001127   0.00000000          0.00     -1.66      0.00
   0.00000000   0.00000000  -0.00001127          0.00      0.00     -1.66


     Writing output data file kShQgLxMfoMjBmCo.save/
 
     init_run     :      7.29s CPU      7.63s WALL (       1 calls)
     electrons    :    464.01s CPU    473.65s WALL (       1 calls)
     forces       :      2.45s CPU      2.56s WALL (       1 calls)
     stress       :     10.43s CPU     10.51s WALL (       1 calls)

     Called by init_run:
     wfcinit      :      6.75s CPU      6.99s WALL (       1 calls)
     potinit      :      0.30s CPU      0.31s WALL (       1 calls)
     hinit0       :      0.07s CPU      0.07s WALL (       1 calls)

     Called by electrons:
     c_bands      :    413.07s CPU    420.49s WALL (      19 calls)
     sum_band     :     44.86s CPU     46.56s WALL (      19 calls)
     v_of_rho     :      0.47s CPU      0.51s WALL (      19 calls)
     newd         :      0.96s CPU      1.19s WALL (      19 calls)
     PAW_pot      :      4.76s CPU      4.99s WALL (      19 calls)
     mix_rho      :      0.12s CPU      0.13s WALL (      19 calls)

     Called by c_bands:
     init_us_2    :      2.99s CPU      3.04s WALL (    2870 calls)
     cegterg      :    397.22s CPU    404.48s WALL (    1330 calls)

     Called by sum_band:
     sum_band:bec :      0.49s CPU      0.49s WALL (    1330 calls)
     addusdens    :      1.96s CPU      2.20s WALL (      19 calls)

     Called by *egterg:
     h_psi        :    175.89s CPU    180.89s WALL (    4541 calls)
     s_psi        :     12.88s CPU     12.93s WALL (    4541 calls)
     g_psi        :      0.62s CPU      0.62s WALL (    3141 calls)
     cdiaghg      :    165.23s CPU    165.67s WALL (    4401 calls)

     Called by h_psi:
     h_psi:pot    :    174.50s CPU    179.48s WALL (    4541 calls)
     h_psi:calbec :     14.92s CPU     16.04s WALL (    4541 calls)
     vloc_psi     :    146.42s CPU    150.24s WALL (    4541 calls)
     add_vuspsi   :     13.11s CPU     13.18s WALL (    4541 calls)

     General routines
     calbec       :     23.51s CPU     25.23s WALL (    6221 calls)
     fft          :      0.37s CPU      0.41s WALL (     517 calls)
     ffts         :      0.03s CPU      0.04s WALL (      76 calls)
     fftw         :    167.45s CPU    171.83s WALL ( 1135312 calls)
     interpolate  :      0.05s CPU      0.05s WALL (      38 calls)
 
     Parallel routines
     fft_scatt_xy :     13.91s CPU     14.28s WALL ( 1135905 calls)
     fft_scatt_yz :     95.04s CPU     97.59s WALL ( 1135905 calls)
 
     PWSCF        :  8m 7.71s CPU     8m25.60s WALL

 
   This run was terminated on:  23: 5:16  13Jun2020            

=------------------------------------------------------------------------------=
   JOB DONE.
=------------------------------------------------------------------------------=
