
     Program PWSCF v.6.3 starts on 18Aug2020 at 11:13:50 

     This program is part of the open-source Quantum ESPRESSO suite
     for quantum simulation of materials; please cite
         "P. Giannozzi et al., J. Phys.:Condens. Matter 21 395502 (2009);
         "P. Giannozzi et al., J. Phys.:Condens. Matter 29 465901 (2017);
          URL http://www.quantum-espresso.org", 
     in publications or presentations arising from this work. More details at
     http://www.quantum-espresso.org/quote

     Parallel version (MPI & OpenMP), running on      40 processor cores
     Number of MPI processes:                40
     Threads/MPI process:                     1

     MPI processes distributed on     1 nodes
     R & G space division:  proc/nbgrp/npool/nimage =      40
     Reading input from wd/configs/1/config_0004.in
Warning: card &IONS ignored
Warning: card ION_DYNAMICS = 'BFGS', ignored
Warning: card / ignored
Warning: card &CELL ignored
Warning: card CELL_DYNAMICS = 'BFGS', ignored
Warning: card CELL_FACTOR = 2.0, ignored
Warning: card PRESS = 0.0, ignored
Warning: card / ignored

     Current dimensions of program PWSCF are:
     Max number of different atomic species (ntypx) = 10
     Max number of k-points (npk) =  40000
     Max angular momentum in pseudopotentials (lmaxx) =  3
               file Pd.pbe-spn-kjpaw_psl.1.0.0.UPF: wavefunction(s)  4S 5S 4D renormalized
               file Fe.pbe-spn-kjpaw_psl.1.0.0.UPF: wavefunction(s)  3P 3D renormalized
               file Fe.pbe-spn-kjpaw_psl.1.0.0.UPF: wavefunction(s)  3P 3D renormalized
               file Fe.pbe-spn-kjpaw_psl.1.0.0.UPF: wavefunction(s)  3P 3D renormalized
               file Fe.pbe-spn-kjpaw_psl.1.0.0.UPF: wavefunction(s)  3P 3D renormalized

     Subspace diagonalization in iterative solution of the eigenvalue problem:
     a serial algorithm will be used

 
     Parallelization info
     --------------------
     sticks:   dense  smooth     PW     G-vecs:    dense   smooth      PW
     Min         152     100     27                 8734     4688     675
     Max         153     101     28                 8737     4695     680
     Sum        6111    4021   1119               349435   187633   27135
 


     bravais-lattice index     =            0
     lattice parameter (alat)  =      13.0107  a.u.
     unit-cell volume          =    2321.6047 (a.u.)^3
     number of atoms/cell      =           32
     number of atomic types    =            5
     number of electrons       =       514.00
     number of Kohn-Sham states=          308
     kinetic-energy cutoff     =      71.0000  Ry
     charge density cutoff     =     430.0000  Ry
     convergence threshold     =      1.0E-06
     mixing beta               =       0.1000
     number of iterations used =           10  plain     mixing
     Exchange-correlation      = SLA PW PBX PBC ( 1  4  3  4 0 0)

     celldm(1)=  13.010654  celldm(2)=   0.000000  celldm(3)=   0.000000
     celldm(4)=   0.000000  celldm(5)=   0.000000  celldm(6)=   0.000000

     crystal axes: (cart. coord. in units of alat)
               a(1) = (   1.000000   0.000000   0.000000 )  
               a(2) = (   0.000000   1.054129   0.000000 )  
               a(3) = (   0.000000   0.000000   0.999993 )  

     reciprocal axes: (cart. coord. in units 2 pi/alat)
               b(1) = (  1.000000  0.000000  0.000000 )  
               b(2) = (  0.000000  0.948650  0.000000 )  
               b(3) = (  0.000000  0.000000  1.000007 )  


     PseudoPot. # 1 for Pd read from file:
     /rds/homes/b/bxp912/pp/Pd.pbe-spn-kjpaw_psl.1.0.0.UPF
     MD5 check sum: 790f2ebce206edfd9790dcb9844eca51
     Pseudo is Projector augmented-wave + core cor, Zval = 18.0
     Generated using "atomic" code by A. Dal Corso v.6.3
     Shape of augmentation charge: PSQ
     Using radial grid of 1235 points,  6 beta functions with: 
                l(1) =   0
                l(2) =   0
                l(3) =   1
                l(4) =   1
                l(5) =   2
                l(6) =   2
     Q(r) pseudized with 0 coefficients 


     PseudoPot. # 2 for Fe read from file:
     /rds/homes/b/bxp912/pp/Fe.pbe-spn-kjpaw_psl.1.0.0.UPF
     MD5 check sum: 42f43b795421b414b0dc916aa790dbcb
     Pseudo is Projector augmented-wave + core cor, Zval = 16.0
     Generated using "atomic" code by A. Dal Corso v.6.3
     Shape of augmentation charge: PSQ
     Using radial grid of 1191 points,  6 beta functions with: 
                l(1) =   0
                l(2) =   0
                l(3) =   1
                l(4) =   1
                l(5) =   2
                l(6) =   2
     Q(r) pseudized with 0 coefficients 


     PseudoPot. # 3 for Fe read from file:
     /rds/homes/b/bxp912/pp/Fe.pbe-spn-kjpaw_psl.1.0.0.UPF
     MD5 check sum: 42f43b795421b414b0dc916aa790dbcb
     Pseudo is Projector augmented-wave + core cor, Zval = 16.0
     Generated using "atomic" code by A. Dal Corso v.6.3
     Shape of augmentation charge: PSQ
     Using radial grid of 1191 points,  6 beta functions with: 
                l(1) =   0
                l(2) =   0
                l(3) =   1
                l(4) =   1
                l(5) =   2
                l(6) =   2
     Q(r) pseudized with 0 coefficients 


     PseudoPot. # 4 for Fe read from file:
     /rds/homes/b/bxp912/pp/Fe.pbe-spn-kjpaw_psl.1.0.0.UPF
     MD5 check sum: 42f43b795421b414b0dc916aa790dbcb
     Pseudo is Projector augmented-wave + core cor, Zval = 16.0
     Generated using "atomic" code by A. Dal Corso v.6.3
     Shape of augmentation charge: PSQ
     Using radial grid of 1191 points,  6 beta functions with: 
                l(1) =   0
                l(2) =   0
                l(3) =   1
                l(4) =   1
                l(5) =   2
                l(6) =   2
     Q(r) pseudized with 0 coefficients 


     PseudoPot. # 5 for Fe read from file:
     /rds/homes/b/bxp912/pp/Fe.pbe-spn-kjpaw_psl.1.0.0.UPF
     MD5 check sum: 42f43b795421b414b0dc916aa790dbcb
     Pseudo is Projector augmented-wave + core cor, Zval = 16.0
     Generated using "atomic" code by A. Dal Corso v.6.3
     Shape of augmentation charge: PSQ
     Using radial grid of 1191 points,  6 beta functions with: 
                l(1) =   0
                l(2) =   0
                l(3) =   1
                l(4) =   1
                l(5) =   2
                l(6) =   2
     Q(r) pseudized with 0 coefficients 


     atomic species   valence    mass     pseudopotential
        Pd            18.00   106.42000     Pd( 1.00)
        Fe1           16.00    55.84500     Fe( 1.00)
        Fe2           16.00    55.84500     Fe( 1.00)
        Fe3           16.00    55.84500     Fe( 1.00)
        Fe4           16.00    55.84500     Fe( 1.00)

     Starting magnetic structure 
     atomic species   magnetization
        Pd          -0.080
        Fe1          1.000
        Fe2         -1.000
        Fe3          1.000
        Fe4         -1.000

     No symmetry found



   Cartesian axes

     site n.     atom                  positions (alat units)
         1           Pd  tau(   1) = (  -0.0010144  -0.0008955  -0.0007307  )
         2           Fe2 tau(   2) = (   0.2544862   0.2674427  -0.0007242  )
         3           Fe3 tau(   3) = (   0.2558756  -0.0008364   0.2569600  )
         4           Fe4 tau(   4) = (  -0.0009787   0.2685841   0.2547713  )
         5           Fe1 tau(   5) = (  -0.0002017  -0.0002121   0.4987389  )
         6           Fe2 tau(   6) = (   0.2498902   0.2629444   0.4990842  )
         7           Fe3 tau(   7) = (   0.2562155  -0.0004888   0.7417042  )
         8           Fe4 tau(   8) = (  -0.0007676   0.2682881   0.7444853  )
         9           Fe1 tau(   9) = (  -0.0002534   0.5264462  -0.0009658  )
        10           Fe2 tau(  10) = (   0.2546552   0.7848036   0.0002196  )
        11           Fe3 tau(  11) = (   0.2504100   0.5264491   0.2505826  )
        12           Fe4 tau(  12) = (  -0.0008143   0.7844454   0.2543252  )
        13           Fe1 tau(  13) = (  -0.0006120   0.5265824   0.4993531  )
        14           Fe2 tau(  14) = (   0.2494525   0.7890473   0.4987097  )
        15           Fe3 tau(  15) = (   0.2508254   0.5255491   0.7474166  )
        16           Fe4 tau(  16) = (  -0.0018463   0.7834876   0.7438741  )
        17           Fe1 tau(  17) = (   0.4996513  -0.0012052  -0.0010314  )
        18           Fe2 tau(  18) = (   0.7436459   0.2682428  -0.0015791  )
        19           Fe3 tau(  19) = (   0.7409907  -0.0011925   0.2563449  )
        20           Fe4 tau(  20) = (   0.4990075   0.2633145   0.2490695  )
        21           Fe1 tau(  21) = (   0.4988553  -0.0000972   0.4989969  )
        22           Fe2 tau(  22) = (   0.7487936   0.2625592   0.4989397  )
        23           Fe3 tau(  23) = (   0.7421185  -0.0011157   0.7420919  )
        24           Fe4 tau(  24) = (   0.4991096   0.2631034   0.7485891  )
        25           Fe1 tau(  25) = (   0.4986622   0.5264681  -0.0015399  )
        26           Fe2 tau(  26) = (   0.7432515   0.7845828  -0.0001515  )
        27           Fe3 tau(  27) = (   0.7485613   0.5255841   0.2497238  )
        28           Fe4 tau(  28) = (   0.4993247   0.7882724   0.2501331  )
        29           Fe1 tau(  29) = (   0.4981651   0.5264318   0.4991880  )
        30           Fe2 tau(  30) = (   0.7490680   0.7888331   0.4986647  )
        31           Fe3 tau(  31) = (   0.7481288   0.5261691   0.7486654  )
        32           Fe4 tau(  32) = (   0.4991175   0.7887170   0.7483719  )

     number of k points=   365  Marzari-Vanderbilt smearing, width (Ry)=  0.0400

     Number of k-points >= 100: set verbosity='high' to print them.

     Dense  grid:   349435 G-vectors     FFT dimensions: (  90,  96,  90)

     Smooth grid:   187633 G-vectors     FFT dimensions: (  72,  75,  72)

     Estimated max dynamical RAM per process >       2.10 GB

     Estimated total dynamical RAM >      84.06 GB
     Generating pointlists ...
     new r_m :   0.1499 (alat units)  1.9508 (a.u.) for type    1
     new r_m :   0.1414 (alat units)  1.8398 (a.u.) for type    2
     new r_m :   0.1442 (alat units)  1.8758 (a.u.) for type    3
     new r_m :   0.1414 (alat units)  1.8398 (a.u.) for type    4
     new r_m :   0.1442 (alat units)  1.8758 (a.u.) for type    5

     Check: negative/imaginary core charge=   -0.000006    0.000000

     Initial potential from superposition of free atoms

     starting charge  513.98605, renormalised to  514.00000
     Starting wfcs are  320 randomized atomic wfcs
     Checking if some PAW data can be deallocated... 

     total cpu time spent up to now is      246.6 secs

     Self-consistent Calculation

     iteration #  1     ecut=    71.00 Ry     beta= 0.10
     Davidson diagonalization with overlap
     ethr =  1.00E-02,  avg # of iterations =  5.0

     negative rho (up, down):  1.054E+01 9.375E+00

     total cpu time spent up to now is     3294.1 secs

     total energy              =  -10337.97717316 Ry
     Harris-Foulkes estimate   =  -10664.64471039 Ry
     estimated scf accuracy    <   12581.80046317 Ry

     total magnetization       =    -2.52 Bohr mag/cell
     absolute magnetization    =   553.78 Bohr mag/cell

     iteration #  2     ecut=    71.00 Ry     beta= 0.10
     Davidson diagonalization with overlap
     ethr =  1.00E-02,  avg # of iterations =  4.6

     negative rho (up, down):  9.310E+00 1.217E+01

     total cpu time spent up to now is     5439.5 secs

     total energy              =  -10541.20623974 Ry
     Harris-Foulkes estimate   =  -10660.66221085 Ry
     estimated scf accuracy    <    4108.38258362 Ry

     total magnetization       =   -13.32 Bohr mag/cell
     absolute magnetization    =   266.21 Bohr mag/cell

     iteration #  3     ecut=    71.00 Ry     beta= 0.10
     Davidson diagonalization with overlap
     ethr =  1.00E-02,  avg # of iterations =  4.4

     negative rho (up, down):  7.983E+00 1.025E+01

     total cpu time spent up to now is     6924.9 secs

     total energy              =  -10660.31436575 Ry
     Harris-Foulkes estimate   =  -10652.34854138 Ry
     estimated scf accuracy    <     215.93158499 Ry

     total magnetization       =    -3.52 Bohr mag/cell
     absolute magnetization    =   142.36 Bohr mag/cell

     iteration #  4     ecut=    71.00 Ry     beta= 0.10
     Davidson diagonalization with overlap
     ethr =  1.00E-02,  avg # of iterations =  1.0

     negative rho (up, down):  4.979E+00 5.844E+00

     total cpu time spent up to now is     7606.2 secs

     total energy              =  -10679.75838152 Ry
     Harris-Foulkes estimate   =  -10660.78784370 Ry
     estimated scf accuracy    <     176.12363965 Ry

     total magnetization       =    -3.98 Bohr mag/cell
     absolute magnetization    =   139.69 Bohr mag/cell

     iteration #  5     ecut=    71.00 Ry     beta= 0.10
     Davidson diagonalization with overlap
     ethr =  1.00E-02,  avg # of iterations =  2.1

     negative rho (up, down):  2.047E+00 1.925E+00

     total cpu time spent up to now is     8523.7 secs

     total energy              =  -10700.65316443 Ry
     Harris-Foulkes estimate   =  -10681.21257486 Ry
     estimated scf accuracy    <     102.17178820 Ry

     total magnetization       =    -4.70 Bohr mag/cell
     absolute magnetization    =   129.40 Bohr mag/cell

     iteration #  6     ecut=    71.00 Ry     beta= 0.10
     Davidson diagonalization with overlap
     ethr =  1.00E-02,  avg # of iterations =  3.3

     negative rho (up, down):  1.277E+00 1.429E+00

     total cpu time spent up to now is     9771.2 secs

     total energy              =  -10707.27706220 Ry
     Harris-Foulkes estimate   =  -10703.21608898 Ry
     estimated scf accuracy    <      45.60214033 Ry

     total magnetization       =    -6.79 Bohr mag/cell
     absolute magnetization    =   111.30 Bohr mag/cell

     iteration #  7     ecut=    71.00 Ry     beta= 0.10
     Davidson diagonalization with overlap
     ethr =  8.87E-03,  avg # of iterations =  1.4

     negative rho (up, down):  8.429E-02 1.055E+00

     total cpu time spent up to now is    10555.3 secs

     total energy              =  -10714.92217828 Ry
     Harris-Foulkes estimate   =  -10708.21109980 Ry
     estimated scf accuracy    <      26.03872756 Ry

     total magnetization       =    -3.89 Bohr mag/cell
     absolute magnetization    =   107.06 Bohr mag/cell

     iteration #  8     ecut=    71.00 Ry     beta= 0.10
     Davidson diagonalization with overlap
     ethr =  5.07E-03,  avg # of iterations =  2.5

     negative rho (up, down):  3.758E-02 1.210E+00

     total cpu time spent up to now is    11567.0 secs

     total energy              =  -10717.16409596 Ry
     Harris-Foulkes estimate   =  -10716.23058071 Ry
     estimated scf accuracy    <      16.42297122 Ry

     total magnetization       =    -2.98 Bohr mag/cell
     absolute magnetization    =    92.06 Bohr mag/cell

     iteration #  9     ecut=    71.00 Ry     beta= 0.10
     Davidson diagonalization with overlap
     ethr =  3.20E-03,  avg # of iterations =  4.1

     negative rho (up, down):  1.188E-01 1.337E+00

     total cpu time spent up to now is    12940.7 secs

     total energy              =  -10718.00214582 Ry
     Harris-Foulkes estimate   =  -10717.78698078 Ry
     estimated scf accuracy    <      12.85001386 Ry

     total magnetization       =    -2.82 Bohr mag/cell
     absolute magnetization    =    84.53 Bohr mag/cell

     iteration # 10     ecut=    71.00 Ry     beta= 0.10
     Davidson diagonalization with overlap
     ethr =  2.50E-03,  avg # of iterations =  3.3

     negative rho (up, down):  2.057E-01 1.331E+00

     total cpu time spent up to now is    14133.5 secs

     total energy              =  -10718.32039225 Ry
     Harris-Foulkes estimate   =  -10718.37569875 Ry
     estimated scf accuracy    <      12.21960160 Ry

     total magnetization       =    -3.15 Bohr mag/cell
     absolute magnetization    =    76.66 Bohr mag/cell

     iteration # 11     ecut=    71.00 Ry     beta= 0.10
     Davidson diagonalization with overlap
     ethr =  2.38E-03,  avg # of iterations =  2.0

     negative rho (up, down):  2.113E-01 1.258E+00

     total cpu time spent up to now is    15048.5 secs

     total energy              =  -10718.62086451 Ry
     Harris-Foulkes estimate   =  -10718.61645097 Ry
     estimated scf accuracy    <      11.04716679 Ry

     total magnetization       =    -2.13 Bohr mag/cell
     absolute magnetization    =    67.47 Bohr mag/cell

     iteration # 12     ecut=    71.00 Ry     beta= 0.10
     Davidson diagonalization with overlap
     ethr =  2.15E-03,  avg # of iterations =  1.7

     negative rho (up, down):  4.049E-02 7.788E-01

     total cpu time spent up to now is    15880.0 secs

     total energy              =  -10718.30816724 Ry
     Harris-Foulkes estimate   =  -10718.68140239 Ry
     estimated scf accuracy    <       9.74226949 Ry

     total magnetization       =    -2.19 Bohr mag/cell
     absolute magnetization    =    64.65 Bohr mag/cell

     iteration # 13     ecut=    71.00 Ry     beta= 0.10
     Davidson diagonalization with overlap
     ethr =  1.90E-03,  avg # of iterations =  1.3

     negative rho (up, down):  8.523E-04 2.821E-02

     total cpu time spent up to now is    16624.7 secs

     total energy              =  -10718.58017791 Ry
     Harris-Foulkes estimate   =  -10718.44244721 Ry
     estimated scf accuracy    <       5.52625814 Ry

     total magnetization       =    -2.74 Bohr mag/cell
     absolute magnetization    =    72.82 Bohr mag/cell

     iteration # 14     ecut=    71.00 Ry     beta= 0.10
     Davidson diagonalization with overlap
     ethr =  1.08E-03,  avg # of iterations =  2.8

     negative rho (up, down):  4.907E-04 6.316E-03

     total cpu time spent up to now is    17712.8 secs

     total energy              =  -10718.72779030 Ry
     Harris-Foulkes estimate   =  -10718.79078093 Ry
     estimated scf accuracy    <       2.05776519 Ry

     total magnetization       =    -3.07 Bohr mag/cell
     absolute magnetization    =    65.01 Bohr mag/cell

     iteration # 15     ecut=    71.00 Ry     beta= 0.10
     Davidson diagonalization with overlap
     ethr =  4.00E-04,  avg # of iterations =  3.6

     negative rho (up, down):  1.338E-04 1.765E-03

     total cpu time spent up to now is    18987.4 secs

     total energy              =  -10718.82923497 Ry
     Harris-Foulkes estimate   =  -10718.83909319 Ry
     estimated scf accuracy    <       0.95875005 Ry

     total magnetization       =    -2.61 Bohr mag/cell
     absolute magnetization    =    62.66 Bohr mag/cell

     iteration # 16     ecut=    71.00 Ry     beta= 0.10
     Davidson diagonalization with overlap
     ethr =  1.87E-04,  avg # of iterations =  2.1

     negative rho (up, down):  5.698E-05 1.655E-03

     total cpu time spent up to now is    19913.3 secs

     total energy              =  -10718.87064327 Ry
     Harris-Foulkes estimate   =  -10718.87566785 Ry
     estimated scf accuracy    <       0.34064794 Ry

     total magnetization       =    -2.41 Bohr mag/cell
     absolute magnetization    =    60.19 Bohr mag/cell

     iteration # 17     ecut=    71.00 Ry     beta= 0.10
     Davidson diagonalization with overlap
     ethr =  6.63E-05,  avg # of iterations =  2.1

     negative rho (up, down):  2.864E-05 1.105E-03

     total cpu time spent up to now is    20838.5 secs

     total energy              =  -10718.89485877 Ry
     Harris-Foulkes estimate   =  -10718.88060675 Ry
     estimated scf accuracy    <       0.16796016 Ry

     total magnetization       =    -2.42 Bohr mag/cell
     absolute magnetization    =    59.46 Bohr mag/cell

     iteration # 18     ecut=    71.00 Ry     beta= 0.10
     Davidson diagonalization with overlap
     ethr =  3.27E-05,  avg # of iterations =  3.0

     negative rho (up, down):  7.044E-05 7.415E-04

     total cpu time spent up to now is    21978.1 secs

     total energy              =  -10718.91593843 Ry
     Harris-Foulkes estimate   =  -10718.90631747 Ry
     estimated scf accuracy    <       0.13361145 Ry

     total magnetization       =    -2.48 Bohr mag/cell
     absolute magnetization    =    57.55 Bohr mag/cell

     iteration # 19     ecut=    71.00 Ry     beta= 0.10
     Davidson diagonalization with overlap
     ethr =  2.60E-05,  avg # of iterations =  2.4

     negative rho (up, down):  6.432E-05 6.071E-04

     total cpu time spent up to now is    22962.7 secs

     total energy              =  -10718.93070943 Ry
     Harris-Foulkes estimate   =  -10718.92492287 Ry
     estimated scf accuracy    <       0.06977289 Ry

     total magnetization       =    -2.46 Bohr mag/cell
     absolute magnetization    =    55.90 Bohr mag/cell

     iteration # 20     ecut=    71.00 Ry     beta= 0.10
     Davidson diagonalization with overlap
     ethr =  1.36E-05,  avg # of iterations =  1.5

     negative rho (up, down):  4.738E-05 4.038E-04

     total cpu time spent up to now is    23754.3 secs

     total energy              =  -10718.93875601 Ry
     Harris-Foulkes estimate   =  -10718.93253345 Ry
     estimated scf accuracy    <       0.04343274 Ry

     total magnetization       =    -2.39 Bohr mag/cell
     absolute magnetization    =    55.36 Bohr mag/cell

     iteration # 21     ecut=    71.00 Ry     beta= 0.10
     Davidson diagonalization with overlap
     ethr =  8.45E-06,  avg # of iterations =  1.4

     negative rho (up, down):  0.000E+00 6.800E-05

     total cpu time spent up to now is    24532.3 secs

     total energy              =  -10718.94749264 Ry
     Harris-Foulkes estimate   =  -10718.94010429 Ry
     estimated scf accuracy    <       0.03525505 Ry

     total magnetization       =    -2.39 Bohr mag/cell
     absolute magnetization    =    54.68 Bohr mag/cell

     iteration # 22     ecut=    71.00 Ry     beta= 0.10
     Davidson diagonalization with overlap
     ethr =  6.86E-06,  avg # of iterations =  2.8

     negative rho (up, down):  0.000E+00 1.750E-05

     total cpu time spent up to now is    25607.9 secs

     total energy              =  -10718.95543072 Ry
     Harris-Foulkes estimate   =  -10718.95110972 Ry
     estimated scf accuracy    <       0.03626795 Ry

     total magnetization       =    -2.44 Bohr mag/cell
     absolute magnetization    =    53.40 Bohr mag/cell

     iteration # 23     ecut=    71.00 Ry     beta= 0.10
     Davidson diagonalization with overlap
     ethr =  6.86E-06,  avg # of iterations =  1.2

     negative rho (up, down):  0.000E+00 5.662E-06

     total cpu time spent up to now is    26349.0 secs

     total energy              =  -10718.96050793 Ry
     Harris-Foulkes estimate   =  -10718.95741800 Ry
     estimated scf accuracy    <       0.01749854 Ry

     total magnetization       =    -2.41 Bohr mag/cell
     absolute magnetization    =    52.84 Bohr mag/cell

     iteration # 24     ecut=    71.00 Ry     beta= 0.10
     Davidson diagonalization with overlap
     ethr =  3.40E-06,  avg # of iterations =  3.6

     total cpu time spent up to now is    27590.2 secs

     total energy              =  -10718.96407396 Ry
     Harris-Foulkes estimate   =  -10718.96206732 Ry
     estimated scf accuracy    <       0.01324597 Ry

     total magnetization       =    -2.39 Bohr mag/cell
     absolute magnetization    =    52.03 Bohr mag/cell

     iteration # 25     ecut=    71.00 Ry     beta= 0.10
     Davidson diagonalization with overlap
     c_bands:  1 eigenvalues not converged
     c_bands:  1 eigenvalues not converged
     c_bands:  2 eigenvalues not converged
     ethr =  2.58E-06,  avg # of iterations =  1.4

     total cpu time spent up to now is    28376.1 secs

     total energy              =  -10718.96578522 Ry
     Harris-Foulkes estimate   =  -10718.96454534 Ry
     estimated scf accuracy    <       0.00779906 Ry

     total magnetization       =    -2.41 Bohr mag/cell
     absolute magnetization    =    51.87 Bohr mag/cell

     iteration # 26     ecut=    71.00 Ry     beta= 0.10
     Davidson diagonalization with overlap
     ethr =  1.52E-06,  avg # of iterations =  1.0

     total cpu time spent up to now is    29075.8 secs

     total energy              =  -10718.96731361 Ry
     Harris-Foulkes estimate   =  -10718.96610094 Ry
     estimated scf accuracy    <       0.00719644 Ry

     total magnetization       =    -2.41 Bohr mag/cell
     absolute magnetization    =    51.84 Bohr mag/cell

     iteration # 27     ecut=    71.00 Ry     beta= 0.10
     Davidson diagonalization with overlap
     ethr =  1.40E-06,  avg # of iterations =  1.0

     total cpu time spent up to now is    29768.9 secs

     total energy              =  -10718.96845545 Ry
     Harris-Foulkes estimate   =  -10718.96761723 Ry
     estimated scf accuracy    <       0.00462366 Ry

     total magnetization       =    -2.42 Bohr mag/cell
     absolute magnetization    =    51.68 Bohr mag/cell

     iteration # 28     ecut=    71.00 Ry     beta= 0.10
     Davidson diagonalization with overlap
     ethr =  9.00E-07,  avg # of iterations =  1.0

     total cpu time spent up to now is    30458.3 secs

     total energy              =  -10718.96941500 Ry
     Harris-Foulkes estimate   =  -10718.96860727 Ry
     estimated scf accuracy    <       0.00306172 Ry

     total magnetization       =    -2.43 Bohr mag/cell
     absolute magnetization    =    51.61 Bohr mag/cell

     iteration # 29     ecut=    71.00 Ry     beta= 0.10
     Davidson diagonalization with overlap
     ethr =  5.96E-07,  avg # of iterations =  1.1

     total cpu time spent up to now is    31162.4 secs

     total energy              =  -10718.97007470 Ry
     Harris-Foulkes estimate   =  -10718.96950779 Ry
     estimated scf accuracy    <       0.00246387 Ry

     total magnetization       =    -2.43 Bohr mag/cell
     absolute magnetization    =    51.47 Bohr mag/cell

     iteration # 30     ecut=    71.00 Ry     beta= 0.10
     Davidson diagonalization with overlap
     c_bands:  1 eigenvalues not converged
     ethr =  4.79E-07,  avg # of iterations =  1.0

     total cpu time spent up to now is    31859.9 secs

     total energy              =  -10718.97059316 Ry
     Harris-Foulkes estimate   =  -10718.97014736 Ry
     estimated scf accuracy    <       0.00221089 Ry

     total magnetization       =    -2.43 Bohr mag/cell
     absolute magnetization    =    51.38 Bohr mag/cell

     iteration # 31     ecut=    71.00 Ry     beta= 0.10
     Davidson diagonalization with overlap
     ethr =  4.30E-07,  avg # of iterations =  1.0

     total cpu time spent up to now is    32550.7 secs

     total energy              =  -10718.97121825 Ry
     Harris-Foulkes estimate   =  -10718.97066864 Ry
     estimated scf accuracy    <       0.00241024 Ry

     total magnetization       =    -2.44 Bohr mag/cell
     absolute magnetization    =    51.31 Bohr mag/cell

     iteration # 32     ecut=    71.00 Ry     beta= 0.10
     Davidson diagonalization with overlap
     ethr =  4.30E-07,  avg # of iterations =  1.0

     total cpu time spent up to now is    33246.1 secs

     total energy              =  -10718.97187353 Ry
     Harris-Foulkes estimate   =  -10718.97132507 Ry
     estimated scf accuracy    <       0.00183630 Ry

     total magnetization       =    -2.44 Bohr mag/cell
     absolute magnetization    =    51.13 Bohr mag/cell

     iteration # 33     ecut=    71.00 Ry     beta= 0.10
     Davidson diagonalization with overlap
     ethr =  3.57E-07,  avg # of iterations =  1.2

     total cpu time spent up to now is    33977.3 secs

     total energy              =  -10718.97235686 Ry
     Harris-Foulkes estimate   =  -10718.97198008 Ry
     estimated scf accuracy    <       0.00126460 Ry

     total magnetization       =    -2.45 Bohr mag/cell
     absolute magnetization    =    50.90 Bohr mag/cell

     iteration # 34     ecut=    71.00 Ry     beta= 0.10
     Davidson diagonalization with overlap
     ethr =  2.46E-07,  avg # of iterations =  1.8

     total cpu time spent up to now is    34837.6 secs

     total energy              =  -10718.97260432 Ry
     Harris-Foulkes estimate   =  -10718.97242933 Ry
     estimated scf accuracy    <       0.00138650 Ry

     total magnetization       =    -2.44 Bohr mag/cell
     absolute magnetization    =    50.74 Bohr mag/cell

     iteration # 35     ecut=    71.00 Ry     beta= 0.10
     Davidson diagonalization with overlap
     ethr =  2.46E-07,  avg # of iterations =  1.0

     total cpu time spent up to now is    35535.2 secs

     total energy              =  -10718.97302664 Ry
     Harris-Foulkes estimate   =  -10718.97266965 Ry
     estimated scf accuracy    <       0.00141153 Ry

     total magnetization       =    -2.44 Bohr mag/cell
     absolute magnetization    =    50.68 Bohr mag/cell

     iteration # 36     ecut=    71.00 Ry     beta= 0.10
     Davidson diagonalization with overlap
     ethr =  2.46E-07,  avg # of iterations =  2.2

     total cpu time spent up to now is    36485.3 secs

     total energy              =  -10718.97335070 Ry
     Harris-Foulkes estimate   =  -10718.97318102 Ry
     estimated scf accuracy    <       0.00076025 Ry

     total magnetization       =    -2.45 Bohr mag/cell
     absolute magnetization    =    50.37 Bohr mag/cell

     iteration # 37     ecut=    71.00 Ry     beta= 0.10
     Davidson diagonalization with overlap
     ethr =  1.48E-07,  avg # of iterations =  1.7

     total cpu time spent up to now is    37322.0 secs

     total energy              =  -10718.97355007 Ry
     Harris-Foulkes estimate   =  -10718.97340422 Ry
     estimated scf accuracy    <       0.00059098 Ry

     total magnetization       =    -2.45 Bohr mag/cell
     absolute magnetization    =    50.24 Bohr mag/cell

     iteration # 38     ecut=    71.00 Ry     beta= 0.10
     Davidson diagonalization with overlap
     ethr =  1.15E-07,  avg # of iterations =  2.1

     total cpu time spent up to now is    38241.9 secs

     total energy              =  -10718.97371022 Ry
     Harris-Foulkes estimate   =  -10718.97360353 Ry
     estimated scf accuracy    <       0.00041000 Ry

     total magnetization       =    -2.45 Bohr mag/cell
     absolute magnetization    =    50.09 Bohr mag/cell

     iteration # 39     ecut=    71.00 Ry     beta= 0.10
     Davidson diagonalization with overlap
     ethr =  7.98E-08,  avg # of iterations =  1.5

     total cpu time spent up to now is    39033.5 secs

     total energy              =  -10718.97381021 Ry
     Harris-Foulkes estimate   =  -10718.97373177 Ry
     estimated scf accuracy    <       0.00024550 Ry

     total magnetization       =    -2.45 Bohr mag/cell
     absolute magnetization    =    50.00 Bohr mag/cell

     iteration # 40     ecut=    71.00 Ry     beta= 0.10
     Davidson diagonalization with overlap
     ethr =  4.78E-08,  avg # of iterations =  1.2

     total cpu time spent up to now is    39772.1 secs

     total energy              =  -10718.97388910 Ry
     Harris-Foulkes estimate   =  -10718.97381942 Ry
     estimated scf accuracy    <       0.00021741 Ry

     total magnetization       =    -2.46 Bohr mag/cell
     absolute magnetization    =    49.95 Bohr mag/cell

     iteration # 41     ecut=    71.00 Ry     beta= 0.10
     Davidson diagonalization with overlap
     ethr =  4.23E-08,  avg # of iterations =  1.0

     total cpu time spent up to now is    40464.6 secs

     total energy              =  -10718.97395903 Ry
     Harris-Foulkes estimate   =  -10718.97389811 Ry
     estimated scf accuracy    <       0.00022852 Ry

     total magnetization       =    -2.46 Bohr mag/cell
     absolute magnetization    =    49.91 Bohr mag/cell

     iteration # 42     ecut=    71.00 Ry     beta= 0.10
     Davidson diagonalization with overlap
     ethr =  4.23E-08,  avg # of iterations =  1.1

     total cpu time spent up to now is    41176.2 secs

     total energy              =  -10718.97401741 Ry
     Harris-Foulkes estimate   =  -10718.97397214 Ry
     estimated scf accuracy    <       0.00017240 Ry

     total magnetization       =    -2.46 Bohr mag/cell
     absolute magnetization    =    49.86 Bohr mag/cell

     iteration # 43     ecut=    71.00 Ry     beta= 0.10
     Davidson diagonalization with overlap
     ethr =  3.35E-08,  avg # of iterations =  1.0

     total cpu time spent up to now is    41865.9 secs

     total energy              =  -10718.97407278 Ry
     Harris-Foulkes estimate   =  -10718.97402535 Ry
     estimated scf accuracy    <       0.00018039 Ry

     total magnetization       =    -2.47 Bohr mag/cell
     absolute magnetization    =    49.83 Bohr mag/cell

     iteration # 44     ecut=    71.00 Ry     beta= 0.10
     Davidson diagonalization with overlap
     ethr =  3.35E-08,  avg # of iterations =  1.0

     total cpu time spent up to now is    42558.5 secs

     total energy              =  -10718.97412032 Ry
     Harris-Foulkes estimate   =  -10718.97408086 Ry
     estimated scf accuracy    <       0.00010678 Ry

     total magnetization       =    -2.47 Bohr mag/cell
     absolute magnetization    =    49.79 Bohr mag/cell

     iteration # 45     ecut=    71.00 Ry     beta= 0.10
     Davidson diagonalization with overlap
     ethr =  2.08E-08,  avg # of iterations =  1.0

     total cpu time spent up to now is    43255.3 secs

     total energy              =  -10718.97415789 Ry
     Harris-Foulkes estimate   =  -10718.97412402 Ry
     estimated scf accuracy    <       0.00008576 Ry

     total magnetization       =    -2.47 Bohr mag/cell
     absolute magnetization    =    49.76 Bohr mag/cell

     iteration # 46     ecut=    71.00 Ry     beta= 0.10
     Davidson diagonalization with overlap
     ethr =  1.67E-08,  avg # of iterations =  1.1

     total cpu time spent up to now is    43966.5 secs

     total energy              =  -10718.97419338 Ry
     Harris-Foulkes estimate   =  -10718.97416176 Ry
     estimated scf accuracy    <       0.00010096 Ry

     total magnetization       =    -2.48 Bohr mag/cell
     absolute magnetization    =    49.74 Bohr mag/cell

     iteration # 47     ecut=    71.00 Ry     beta= 0.10
     Davidson diagonalization with overlap
     ethr =  1.67E-08,  avg # of iterations =  1.2

     total cpu time spent up to now is    44700.2 secs

     total energy              =  -10718.97422816 Ry
     Harris-Foulkes estimate   =  -10718.97419998 Ry
     estimated scf accuracy    <       0.00011605 Ry

     total magnetization       =    -2.48 Bohr mag/cell
     absolute magnetization    =    49.72 Bohr mag/cell

     iteration # 48     ecut=    71.00 Ry     beta= 0.10
     Davidson diagonalization with overlap
     ethr =  1.67E-08,  avg # of iterations =  1.1

     total cpu time spent up to now is    45403.8 secs

     total energy              =  -10718.97424879 Ry
     Harris-Foulkes estimate   =  -10718.97423474 Ry
     estimated scf accuracy    <       0.00006781 Ry

     total magnetization       =    -2.49 Bohr mag/cell
     absolute magnetization    =    49.70 Bohr mag/cell

     iteration # 49     ecut=    71.00 Ry     beta= 0.10
     Davidson diagonalization with overlap
     ethr =  1.32E-08,  avg # of iterations =  1.0

     total cpu time spent up to now is    46093.5 secs

     total energy              =  -10718.97427485 Ry
     Harris-Foulkes estimate   =  -10718.97425053 Ry
     estimated scf accuracy    <       0.00006180 Ry

     total magnetization       =    -2.49 Bohr mag/cell
     absolute magnetization    =    49.70 Bohr mag/cell

     iteration # 50     ecut=    71.00 Ry     beta= 0.10
     Davidson diagonalization with overlap
     ethr =  1.20E-08,  avg # of iterations =  1.1

     total cpu time spent up to now is    46799.1 secs

     total energy              =  -10718.97428962 Ry
     Harris-Foulkes estimate   =  -10718.97427972 Ry
     estimated scf accuracy    <       0.00005432 Ry

     total magnetization       =    -2.50 Bohr mag/cell
     absolute magnetization    =    49.68 Bohr mag/cell

     iteration # 51     ecut=    71.00 Ry     beta= 0.10
     Davidson diagonalization with overlap
     ethr =  1.06E-08,  avg # of iterations =  1.0

     total cpu time spent up to now is    47486.1 secs

     total energy              =  -10718.97430710 Ry
     Harris-Foulkes estimate   =  -10718.97429069 Ry
     estimated scf accuracy    <       0.00004884 Ry

     total magnetization       =    -2.50 Bohr mag/cell
     absolute magnetization    =    49.68 Bohr mag/cell

     iteration # 52     ecut=    71.00 Ry     beta= 0.10
     Davidson diagonalization with overlap
     ethr =  9.50E-09,  avg # of iterations =  1.0

     total cpu time spent up to now is    48173.9 secs

     total energy              =  -10718.97433040 Ry
     Harris-Foulkes estimate   =  -10718.97430980 Ry
     estimated scf accuracy    <       0.00005085 Ry

     total magnetization       =    -2.50 Bohr mag/cell
     absolute magnetization    =    49.67 Bohr mag/cell

     iteration # 53     ecut=    71.00 Ry     beta= 0.10
     Davidson diagonalization with overlap
     ethr =  9.50E-09,  avg # of iterations =  2.2

     total cpu time spent up to now is    49105.7 secs

     total energy              =  -10718.97434844 Ry
     Harris-Foulkes estimate   =  -10718.97433811 Ry
     estimated scf accuracy    <       0.00004778 Ry

     total magnetization       =    -2.51 Bohr mag/cell
     absolute magnetization    =    49.66 Bohr mag/cell

     iteration # 54     ecut=    71.00 Ry     beta= 0.10
     Davidson diagonalization with overlap
     ethr =  9.30E-09,  avg # of iterations =  1.0

     total cpu time spent up to now is    49791.7 secs

     total energy              =  -10718.97436204 Ry
     Harris-Foulkes estimate   =  -10718.97435027 Ry
     estimated scf accuracy    <       0.00003838 Ry

     total magnetization       =    -2.51 Bohr mag/cell
     absolute magnetization    =    49.66 Bohr mag/cell

     iteration # 55     ecut=    71.00 Ry     beta= 0.10
     Davidson diagonalization with overlap
     ethr =  7.47E-09,  avg # of iterations =  1.0

     total cpu time spent up to now is    50482.4 secs

     total energy              =  -10718.97437331 Ry
     Harris-Foulkes estimate   =  -10718.97436434 Ry
     estimated scf accuracy    <       0.00003941 Ry

     total magnetization       =    -2.52 Bohr mag/cell
     absolute magnetization    =    49.65 Bohr mag/cell

     iteration # 56     ecut=    71.00 Ry     beta= 0.10
     Davidson diagonalization with overlap
     ethr =  7.47E-09,  avg # of iterations =  1.0

     total cpu time spent up to now is    51167.4 secs

     total energy              =  -10718.97438671 Ry
     Harris-Foulkes estimate   =  -10718.97437490 Ry
     estimated scf accuracy    <       0.00003410 Ry

     total magnetization       =    -2.52 Bohr mag/cell
     absolute magnetization    =    49.65 Bohr mag/cell

     iteration # 57     ecut=    71.00 Ry     beta= 0.10
     Davidson diagonalization with overlap
     ethr =  6.63E-09,  avg # of iterations =  1.1

     total cpu time spent up to now is    51877.3 secs

     total energy              =  -10718.97440191 Ry
     Harris-Foulkes estimate   =  -10718.97438942 Ry
     estimated scf accuracy    <       0.00003106 Ry

     total magnetization       =    -2.53 Bohr mag/cell
     absolute magnetization    =    49.64 Bohr mag/cell

     iteration # 58     ecut=    71.00 Ry     beta= 0.10
     Davidson diagonalization with overlap
     ethr =  6.04E-09,  avg # of iterations =  1.7

     total cpu time spent up to now is    52722.5 secs

     total energy              =  -10718.97441937 Ry
     Harris-Foulkes estimate   =  -10718.97440619 Ry
     estimated scf accuracy    <       0.00003239 Ry

     total magnetization       =    -2.53 Bohr mag/cell
     absolute magnetization    =    49.64 Bohr mag/cell

     iteration # 59     ecut=    71.00 Ry     beta= 0.10
     Davidson diagonalization with overlap
     ethr =  6.04E-09,  avg # of iterations =  3.1

     total cpu time spent up to now is    53983.7 secs

     total energy              =  -10718.97444523 Ry
     Harris-Foulkes estimate   =  -10718.97443671 Ry
     estimated scf accuracy    <       0.00003310 Ry

     total magnetization       =    -2.54 Bohr mag/cell
     absolute magnetization    =    49.62 Bohr mag/cell

     iteration # 60     ecut=    71.00 Ry     beta= 0.10
     Davidson diagonalization with overlap
     ethr =  6.04E-09,  avg # of iterations =  1.0

     total cpu time spent up to now is    54673.0 secs

     total energy              =  -10718.97445460 Ry
     Harris-Foulkes estimate   =  -10718.97444867 Ry
     estimated scf accuracy    <       0.00002304 Ry

     total magnetization       =    -2.55 Bohr mag/cell
     absolute magnetization    =    49.62 Bohr mag/cell

     iteration # 61     ecut=    71.00 Ry     beta= 0.10
     Davidson diagonalization with overlap
     ethr =  4.48E-09,  avg # of iterations =  1.4

     total cpu time spent up to now is    55431.5 secs

     total energy              =  -10718.97446423 Ry
     Harris-Foulkes estimate   =  -10718.97445647 Ry
     estimated scf accuracy    <       0.00002395 Ry

     total magnetization       =    -2.55 Bohr mag/cell
     absolute magnetization    =    49.61 Bohr mag/cell

     iteration # 62     ecut=    71.00 Ry     beta= 0.10
     Davidson diagonalization with overlap
     ethr =  4.48E-09,  avg # of iterations =  2.3

     total cpu time spent up to now is    56407.5 secs

     total energy              =  -10718.97447427 Ry
     Harris-Foulkes estimate   =  -10718.97446985 Ry
     estimated scf accuracy    <       0.00001963 Ry

     total magnetization       =    -2.56 Bohr mag/cell
     absolute magnetization    =    49.60 Bohr mag/cell

     iteration # 63     ecut=    71.00 Ry     beta= 0.10
     Davidson diagonalization with overlap
     ethr =  3.82E-09,  avg # of iterations =  1.2

     total cpu time spent up to now is    57134.3 secs

     total energy              =  -10718.97448157 Ry
     Harris-Foulkes estimate   =  -10718.97447573 Ry
     estimated scf accuracy    <       0.00001832 Ry

     total magnetization       =    -2.56 Bohr mag/cell
     absolute magnetization    =    49.60 Bohr mag/cell

     iteration # 64     ecut=    71.00 Ry     beta= 0.10
     Davidson diagonalization with overlap
     ethr =  3.56E-09,  avg # of iterations =  2.0

     total cpu time spent up to now is    58055.1 secs

     total energy              =  -10718.97449028 Ry
     Harris-Foulkes estimate   =  -10718.97448530 Ry
     estimated scf accuracy    <       0.00001781 Ry

     total magnetization       =    -2.57 Bohr mag/cell
     absolute magnetization    =    49.59 Bohr mag/cell

     iteration # 65     ecut=    71.00 Ry     beta= 0.10
     Davidson diagonalization with overlap
     ethr =  3.47E-09,  avg # of iterations =  2.9

     total cpu time spent up to now is    59270.7 secs

     total energy              =  -10718.97450186 Ry
     Harris-Foulkes estimate   =  -10718.97449968 Ry
     estimated scf accuracy    <       0.00001287 Ry

     total magnetization       =    -2.57 Bohr mag/cell
     absolute magnetization    =    49.58 Bohr mag/cell

     iteration # 66     ecut=    71.00 Ry     beta= 0.10
     Davidson diagonalization with overlap
     ethr =  2.50E-09,  avg # of iterations =  1.0

     total cpu time spent up to now is    59957.2 secs

     total energy              =  -10718.97450659 Ry
     Harris-Foulkes estimate   =  -10718.97450232 Ry
     estimated scf accuracy    <       0.00001133 Ry

     total magnetization       =    -2.57 Bohr mag/cell
     absolute magnetization    =    49.58 Bohr mag/cell

     iteration # 67     ecut=    71.00 Ry     beta= 0.10
     Davidson diagonalization with overlap
     ethr =  2.20E-09,  avg # of iterations =  1.9

     total cpu time spent up to now is    60841.0 secs

     total energy              =  -10718.97451181 Ry
     Harris-Foulkes estimate   =  -10718.97450896 Ry
     estimated scf accuracy    <       0.00001096 Ry

     total magnetization       =    -2.58 Bohr mag/cell
     absolute magnetization    =    49.58 Bohr mag/cell

     iteration # 68     ecut=    71.00 Ry     beta= 0.10
     Davidson diagonalization with overlap
     ethr =  2.13E-09,  avg # of iterations =  1.0

     total cpu time spent up to now is    61528.7 secs

     total energy              =  -10718.97451559 Ry
     Harris-Foulkes estimate   =  -10718.97451274 Ry
     estimated scf accuracy    <       0.00001119 Ry

     total magnetization       =    -2.58 Bohr mag/cell
     absolute magnetization    =    49.57 Bohr mag/cell

     iteration # 69     ecut=    71.00 Ry     beta= 0.10
     Davidson diagonalization with overlap
     ethr =  2.13E-09,  avg # of iterations =  1.3

     total cpu time spent up to now is    62279.5 secs

     total energy              =  -10718.97452018 Ry
     Harris-Foulkes estimate   =  -10718.97451651 Ry
     estimated scf accuracy    <       0.00000960 Ry

     total magnetization       =    -2.58 Bohr mag/cell
     absolute magnetization    =    49.57 Bohr mag/cell

     iteration # 70     ecut=    71.00 Ry     beta= 0.10
     Davidson diagonalization with overlap
     ethr =  1.87E-09,  avg # of iterations =  2.5

     total cpu time spent up to now is    63291.4 secs

     total energy              =  -10718.97452581 Ry
     Harris-Foulkes estimate   =  -10718.97452252 Ry
     estimated scf accuracy    <       0.00000946 Ry

     total magnetization       =    -2.59 Bohr mag/cell
     absolute magnetization    =    49.57 Bohr mag/cell

     iteration # 71     ecut=    71.00 Ry     beta= 0.10
     Davidson diagonalization with overlap
     ethr =  1.84E-09,  avg # of iterations =  2.6

     total cpu time spent up to now is    64369.3 secs

     total energy              =  -10718.97452963 Ry
     Harris-Foulkes estimate   =  -10718.97452954 Ry
     estimated scf accuracy    <       0.00000787 Ry

     total magnetization       =    -2.59 Bohr mag/cell
     absolute magnetization    =    49.56 Bohr mag/cell

     iteration # 72     ecut=    71.00 Ry     beta= 0.10
     Davidson diagonalization with overlap
     ethr =  1.53E-09,  avg # of iterations =  1.0

     total cpu time spent up to now is    65055.1 secs

     total energy              =  -10718.97453259 Ry
     Harris-Foulkes estimate   =  -10718.97452976 Ry
     estimated scf accuracy    <       0.00000697 Ry

     total magnetization       =    -2.59 Bohr mag/cell
     absolute magnetization    =    49.56 Bohr mag/cell

     iteration # 73     ecut=    71.00 Ry     beta= 0.10
     Davidson diagonalization with overlap
     ethr =  1.36E-09,  avg # of iterations =  2.3

     total cpu time spent up to now is    66054.3 secs

     total energy              =  -10718.97453783 Ry
     Harris-Foulkes estimate   =  -10718.97453538 Ry
     estimated scf accuracy    <       0.00000728 Ry

     total magnetization       =    -2.59 Bohr mag/cell
     absolute magnetization    =    49.55 Bohr mag/cell

     iteration # 74     ecut=    71.00 Ry     beta= 0.10
     Davidson diagonalization with overlap
     ethr =  1.36E-09,  avg # of iterations =  2.9

     total cpu time spent up to now is    67235.9 secs

     total energy              =  -10718.97454248 Ry
     Harris-Foulkes estimate   =  -10718.97454131 Ry
     estimated scf accuracy    <       0.00000686 Ry

     total magnetization       =    -2.60 Bohr mag/cell
     absolute magnetization    =    49.55 Bohr mag/cell

     iteration # 75     ecut=    71.00 Ry     beta= 0.10
     Davidson diagonalization with overlap
     ethr =  1.33E-09,  avg # of iterations =  1.0

     total cpu time spent up to now is    67921.5 secs

     total energy              =  -10718.97454338 Ry
     Harris-Foulkes estimate   =  -10718.97454285 Ry
     estimated scf accuracy    <       0.00000633 Ry

     total magnetization       =    -2.60 Bohr mag/cell
     absolute magnetization    =    49.55 Bohr mag/cell

     iteration # 76     ecut=    71.00 Ry     beta= 0.10
     Davidson diagonalization with overlap
     ethr =  1.23E-09,  avg # of iterations =  3.0

     total cpu time spent up to now is    69217.1 secs

     total energy              =  -10718.97455130 Ry
     Harris-Foulkes estimate   =  -10718.97454978 Ry
     estimated scf accuracy    <       0.00000572 Ry

     total magnetization       =    -2.60 Bohr mag/cell
     absolute magnetization    =    49.54 Bohr mag/cell

     iteration # 77     ecut=    71.00 Ry     beta= 0.10
     Davidson diagonalization with overlap
     ethr =  1.11E-09,  avg # of iterations =  2.0

     total cpu time spent up to now is    70127.6 secs

     total energy              =  -10718.97455371 Ry
     Harris-Foulkes estimate   =  -10718.97455320 Ry
     estimated scf accuracy    <       0.00000412 Ry

     total magnetization       =    -2.60 Bohr mag/cell
     absolute magnetization    =    49.53 Bohr mag/cell

     iteration # 78     ecut=    71.00 Ry     beta= 0.10
     Davidson diagonalization with overlap
     ethr =  8.02E-10,  avg # of iterations =  1.1

     total cpu time spent up to now is    70830.0 secs

     total energy              =  -10718.97455423 Ry
     Harris-Foulkes estimate   =  -10718.97455384 Ry
     estimated scf accuracy    <       0.00000463 Ry

     total magnetization       =    -2.60 Bohr mag/cell
     absolute magnetization    =    49.53 Bohr mag/cell

     iteration # 79     ecut=    71.00 Ry     beta= 0.10
     Davidson diagonalization with overlap
     ethr =  8.02E-10,  avg # of iterations =  3.1

     total cpu time spent up to now is    72155.5 secs

     total energy              =  -10718.97455968 Ry
     Harris-Foulkes estimate   =  -10718.97455868 Ry
     estimated scf accuracy    <       0.00000432 Ry

     total magnetization       =    -2.61 Bohr mag/cell
     absolute magnetization    =    49.53 Bohr mag/cell

     iteration # 80     ecut=    71.00 Ry     beta= 0.10
     Davidson diagonalization with overlap
     ethr =  8.02E-10,  avg # of iterations =  1.3

     total cpu time spent up to now is    72912.9 secs

     total energy              =  -10718.97456116 Ry
     Harris-Foulkes estimate   =  -10718.97456023 Ry
     estimated scf accuracy    <       0.00000419 Ry

     total magnetization       =    -2.61 Bohr mag/cell
     absolute magnetization    =    49.53 Bohr mag/cell

     iteration # 81     ecut=    71.00 Ry     beta= 0.10
     Davidson diagonalization with overlap
     ethr =  8.02E-10,  avg # of iterations =  1.7

     total cpu time spent up to now is    73761.7 secs

     total energy              =  -10718.97456223 Ry
     Harris-Foulkes estimate   =  -10718.97456174 Ry
     estimated scf accuracy    <       0.00000327 Ry

     total magnetization       =    -2.61 Bohr mag/cell
     absolute magnetization    =    49.52 Bohr mag/cell

     iteration # 82     ecut=    71.00 Ry     beta= 0.10
     Davidson diagonalization with overlap
     ethr =  6.36E-10,  avg # of iterations =  3.1

     total cpu time spent up to now is    75046.4 secs

     total energy              =  -10718.97456578 Ry
     Harris-Foulkes estimate   =  -10718.97456498 Ry
     estimated scf accuracy    <       0.00000268 Ry

     total magnetization       =    -2.61 Bohr mag/cell
     absolute magnetization    =    49.52 Bohr mag/cell

     iteration # 83     ecut=    71.00 Ry     beta= 0.10
     Davidson diagonalization with overlap
     ethr =  5.22E-10,  avg # of iterations =  2.6

     total cpu time spent up to now is    76132.5 secs

     total energy              =  -10718.97456765 Ry
     Harris-Foulkes estimate   =  -10718.97456704 Ry
     estimated scf accuracy    <       0.00000242 Ry

     total magnetization       =    -2.61 Bohr mag/cell
     absolute magnetization    =    49.52 Bohr mag/cell

     iteration # 84     ecut=    71.00 Ry     beta= 0.10
     Davidson diagonalization with overlap
     ethr =  4.71E-10,  avg # of iterations =  1.9

     total cpu time spent up to now is    77014.1 secs

     total energy              =  -10718.97456851 Ry
     Harris-Foulkes estimate   =  -10718.97456806 Ry
     estimated scf accuracy    <       0.00000269 Ry

     total magnetization       =    -2.61 Bohr mag/cell
     absolute magnetization    =    49.52 Bohr mag/cell

     iteration # 85     ecut=    71.00 Ry     beta= 0.10
     Davidson diagonalization with overlap
     ethr =  4.71E-10,  avg # of iterations =  3.0

     total cpu time spent up to now is    78297.2 secs

     total energy              =  -10718.97456957 Ry
     Harris-Foulkes estimate   =  -10718.97457044 Ry
     estimated scf accuracy    <       0.00000293 Ry

     total magnetization       =    -2.62 Bohr mag/cell
     absolute magnetization    =    49.51 Bohr mag/cell

     iteration # 86     ecut=    71.00 Ry     beta= 0.10
     Davidson diagonalization with overlap
     ethr =  4.71E-10,  avg # of iterations =  3.1

     total cpu time spent up to now is    79683.2 secs

     total energy              =  -10718.97457305 Ry
     Harris-Foulkes estimate   =  -10718.97457306 Ry
     estimated scf accuracy    <       0.00000169 Ry

     total magnetization       =    -2.62 Bohr mag/cell
     absolute magnetization    =    49.51 Bohr mag/cell

     iteration # 87     ecut=    71.00 Ry     beta= 0.10
     Davidson diagonalization with overlap
     ethr =  3.30E-10,  avg # of iterations =  2.8

     total cpu time spent up to now is    80863.1 secs

     total energy              =  -10718.97457433 Ry
     Harris-Foulkes estimate   =  -10718.97457418 Ry
     estimated scf accuracy    <       0.00000263 Ry

     total magnetization       =    -2.62 Bohr mag/cell
     absolute magnetization    =    49.50 Bohr mag/cell

     iteration # 88     ecut=    71.00 Ry     beta= 0.10
     Davidson diagonalization with overlap
     ethr =  3.30E-10,  avg # of iterations =  3.0

     total cpu time spent up to now is    82118.9 secs

     total energy              =  -10718.97457552 Ry
     Harris-Foulkes estimate   =  -10718.97457549 Ry
     estimated scf accuracy    <       0.00000151 Ry

     total magnetization       =    -2.62 Bohr mag/cell
     absolute magnetization    =    49.50 Bohr mag/cell

     iteration # 89     ecut=    71.00 Ry     beta= 0.10
     Davidson diagonalization with overlap
     ethr =  2.94E-10,  avg # of iterations =  2.8

     total cpu time spent up to now is    83299.9 secs

     total energy              =  -10718.97457418 Ry
     Harris-Foulkes estimate   =  -10718.97457645 Ry
     estimated scf accuracy    <       0.00000126 Ry

     total magnetization       =    -2.62 Bohr mag/cell
     absolute magnetization    =    49.50 Bohr mag/cell

     iteration # 90     ecut=    71.00 Ry     beta= 0.10
     Davidson diagonalization with overlap
     ethr =  2.46E-10,  avg # of iterations =  3.5

     total cpu time spent up to now is    84997.2 secs

     total energy              =  -10718.97457674 Ry
     Harris-Foulkes estimate   =  -10718.97457798 Ry
     estimated scf accuracy    <       0.00000141 Ry

     total magnetization       =    -2.63 Bohr mag/cell
     absolute magnetization    =    49.49 Bohr mag/cell

     iteration # 91     ecut=    71.00 Ry     beta= 0.10
     Davidson diagonalization with overlap
     ethr =  2.46E-10,  avg # of iterations =  3.2
 
     Magnetic moment per site:
     atom:    1    charge:   15.8843    magn:   -0.0806    constr:    0.0000
     atom:    2    charge:   14.3258    magn:   -1.6889    constr:    0.0000
     atom:    3    charge:   14.2109    magn:    1.7427    constr:    0.0000
     atom:    4    charge:   14.3261    magn:   -1.6853    constr:    0.0000
     atom:    5    charge:   14.2236    magn:    1.2739    constr:    0.0000
     atom:    6    charge:   14.3558    magn:   -1.4227    constr:    0.0000
     atom:    7    charge:   14.2080    magn:    1.7596    constr:    0.0000
     atom:    8    charge:   14.3261    magn:   -1.6802    constr:    0.0000
     atom:    9    charge:   14.2226    magn:    1.1954    constr:    0.0000
     atom:   10    charge:   14.3241    magn:   -1.6966    constr:    0.0000
     atom:   11    charge:   14.2267    magn:    1.5542    constr:    0.0000
     atom:   12    charge:   14.3278    magn:   -1.6778    constr:    0.0000
     atom:   13    charge:   14.2452    magn:    1.2135    constr:    0.0000
     atom:   14    charge:   14.3539    magn:   -1.4323    constr:    0.0000
     atom:   15    charge:   14.2256    magn:    1.5665    constr:    0.0000
     atom:   16    charge:   14.3238    magn:   -1.6927    constr:    0.0000
     atom:   17    charge:   14.2237    magn:    1.2692    constr:    0.0000
     atom:   18    charge:   14.3268    magn:   -1.6781    constr:    0.0000
     atom:   19    charge:   14.2100    magn:    1.7439    constr:    0.0000
     atom:   20    charge:   14.3524    magn:   -1.4546    constr:    0.0000
     atom:   21    charge:   14.2605    magn:    1.3971    constr:    0.0000
     atom:   22    charge:   14.3505    magn:   -1.4628    constr:    0.0000
     atom:   23    charge:   14.2084    magn:    1.7518    constr:    0.0000
     atom:   24    charge:   14.3544    magn:   -1.4371    constr:    0.0000
     atom:   25    charge:   14.2454    magn:    1.2125    constr:    0.0000
     atom:   26    charge:   14.3274    magn:   -1.6756    constr:    0.0000
     atom:   27    charge:   14.2236    magn:    1.5608    constr:    0.0000
     atom:   28    charge:   14.3544    magn:   -1.4482    constr:    0.0000
     atom:   29    charge:   14.2260    magn:    1.5088    constr:    0.0000
     atom:   30    charge:   14.3514    magn:   -1.4612    constr:    0.0000
     atom:   31    charge:   14.2246    magn:    1.5590    constr:    0.0000
     atom:   32    charge:   14.3509    magn:   -1.4488    constr:    0.0000

     total cpu time spent up to now is    86394.7 secs

     End of self-consistent calculation

     Number of k-points >= 100: set verbosity='high' to print the bands.

     the Fermi energy is    20.0717 ev

!    total energy              =  -10718.97457904 Ry
     Harris-Foulkes estimate   =  -10718.97457875 Ry
     estimated scf accuracy    <       0.00000076 Ry

     total all-electron energy =    -89004.193782 Ry

     The total energy is the sum of the following terms:

     one-electron contribution =   -3284.86109350 Ry
     hartree contribution      =    1993.78669789 Ry
     xc contribution           =    -890.10812760 Ry
     ewald contribution        =   -5715.81316615 Ry
     one-center paw contrib.   =   -2821.98668058 Ry
     smearing contrib. (-TS)   =       0.00779091 Ry

     total magnetization       =    -2.63 Bohr mag/cell
     absolute magnetization    =    49.49 Bohr mag/cell

     convergence has been achieved in  91 iterations

     Forces acting on atoms (cartesian axes, Ry/au):

     atom    1 type  1   force =    -0.00028071   -0.00014857    0.00015016
     atom    2 type  3   force =    -0.00049797    0.00159937   -0.00039249
     atom    3 type  4   force =     0.00069685   -0.00031628   -0.00308519
     atom    4 type  5   force =     0.00061170   -0.00164807   -0.00161675
     atom    5 type  2   force =    -0.00234922   -0.00177589    0.00121866
     atom    6 type  3   force =    -0.00112873    0.00248887   -0.00016986
     atom    7 type  4   force =    -0.00119064   -0.00153141    0.00197010
     atom    8 type  5   force =    -0.00021461   -0.00035766   -0.00175909
     atom    9 type  2   force =    -0.00137588   -0.00039580    0.00047284
     atom   10 type  3   force =    -0.00064603   -0.00139298   -0.00345650
     atom   11 type  4   force =    -0.00150905   -0.00115381   -0.00162918
     atom   12 type  5   force =    -0.00028548   -0.00046821   -0.00015164
     atom   13 type  2   force =    -0.00116753   -0.00141341   -0.00078893
     atom   14 type  3   force =    -0.00045165   -0.00059488    0.00220303
     atom   15 type  4   force =    -0.00228336    0.00191841    0.00235256
     atom   16 type  5   force =     0.00309517    0.00229185    0.00111000
     atom   17 type  2   force =    -0.00120577    0.00082272    0.00037619
     atom   18 type  3   force =     0.00106647   -0.00035681    0.00153957
     atom   19 type  4   force =     0.00363587    0.00086120   -0.00119753
     atom   20 type  5   force =     0.00053152    0.00107944    0.00096270
     atom   21 type  2   force =     0.00091649   -0.00238335    0.00091537
     atom   22 type  3   force =    -0.00048522    0.00348228    0.00099867
     atom   23 type  4   force =     0.00042993   -0.00009500   -0.00001181
     atom   24 type  5   force =     0.00013068    0.00082838    0.00016206
     atom   25 type  2   force =     0.00111373   -0.00081402    0.00209971
     atom   26 type  3   force =     0.00160811   -0.00162624   -0.00187917
     atom   27 type  4   force =    -0.00067089    0.00104616    0.00023957
     atom   28 type  5   force =    -0.00085727    0.00119671   -0.00069930
     atom   29 type  2   force =     0.00420515   -0.00132732   -0.00036173
     atom   30 type  3   force =    -0.00117307   -0.00038906    0.00142300
     atom   31 type  4   force =     0.00001132   -0.00014530   -0.00122330
     atom   32 type  5   force =    -0.00027992    0.00071867    0.00022827

     Total force =     0.014158     Total SCF correction =     0.002994
     SCF correction compared to forces is large: reduce conv_thr to get better values


     Computing stress (Cartesian axis) and pressure

          total   stress  (Ry/bohr**3)                   (kbar)     P=    2.71
   0.00002223   0.00000083   0.00000105          3.27      0.12      0.15
   0.00000083   0.00001150  -0.00000142          0.12      1.69     -0.21
   0.00000105  -0.00000142   0.00002162          0.15     -0.21      3.18


     Writing output data file WszZUaaSFQbVwwoy.save/
-------------------------------------------------------
Primary job  terminated normally, but 1 process returned
a non-zero exit code.. Per user-direction, the job has been aborted.
-------------------------------------------------------
--------------------------------------------------------------------------
mpirun detected that one or more processes exited with non-zero status, thus causing
the job to be terminated. The first process to do so was:

  Process name: [[5783,1],0]
  Exit code:    38
--------------------------------------------------------------------------

=------------------------------------------------------------------------------=
   JOB DONE.
=------------------------------------------------------------------------------=
