--------------------------------------------------------------------------
WARNING: There was an error initializing an OpenFabrics device.

  Local host:   bear-pg0211u09a
  Local device: mlx5_0
--------------------------------------------------------------------------

     Program PWSCF v.6.3 starts on 11Oct2020 at  8:15: 6 

     This program is part of the open-source Quantum ESPRESSO suite
     for quantum simulation of materials; please cite
         "P. Giannozzi et al., J. Phys.:Condens. Matter 21 395502 (2009);
         "P. Giannozzi et al., J. Phys.:Condens. Matter 29 465901 (2017);
          URL http://www.quantum-espresso.org", 
     in publications or presentations arising from this work. More details at
     http://www.quantum-espresso.org/quote

     Parallel version (MPI & OpenMP), running on      40 processor cores
     Number of MPI processes:                40
     Threads/MPI process:                     1

     MPI processes distributed on     1 nodes
     R & G space division:  proc/nbgrp/npool/nimage =      40
     Reading input from wd/ec/ec_3_003.in
Warning: card &IONS ignored
Warning: card ION_DYNAMICS = 'BFGS', ignored
Warning: card / ignored
Warning: card &CELL ignored
Warning: card CELL_DYNAMICS = 'BFGS', ignored
Warning: card CELL_FACTOR = 2.0, ignored
Warning: card PRESS = 0.0, ignored
Warning: card / ignored

     Current dimensions of program PWSCF are:
     Max number of different atomic species (ntypx) = 10
     Max number of k-points (npk) =  40000
     Max angular momentum in pseudopotentials (lmaxx) =  3
               file Fe.pbe-spn-kjpaw_psl.1.0.0.UPF: wavefunction(s)  3P 3D renormalized
               file Fe.pbe-spn-kjpaw_psl.1.0.0.UPF: wavefunction(s)  3P 3D renormalized
               file Fe.pbe-spn-kjpaw_psl.1.0.0.UPF: wavefunction(s)  3P 3D renormalized
               file Fe.pbe-spn-kjpaw_psl.1.0.0.UPF: wavefunction(s)  3P 3D renormalized

     Subspace diagonalization in iterative solution of the eigenvalue problem:
     a serial algorithm will be used

     Found symmetry operation: I + (  0.0000  0.0000  0.5000)
     This is a supercell, fractional translations are disabled
 
     Parallelization info
     --------------------
     sticks:   dense  smooth     PW     G-vecs:    dense   smooth      PW
     Min         150      99     27                 8622     4629     665
     Max         151     100     28                 8629     4634     670
     Sum        6035    3993   1103               345039   185281   26707
 


     bravais-lattice index     =            0
     lattice parameter (alat)  =      12.9382  a.u.
     unit-cell volume          =    2291.3719 (a.u.)^3
     number of atoms/cell      =           32
     number of atomic types    =            4
     number of electrons       =       512.00
     number of Kohn-Sham states=          307
     kinetic-energy cutoff     =      71.0000  Ry
     charge density cutoff     =     430.0000  Ry
     convergence threshold     =      1.0E-06
     mixing beta               =       0.1000
     number of iterations used =           10  plain     mixing
     Exchange-correlation      = SLA PW PBX PBC ( 1  4  3  4 0 0)

     celldm(1)=  12.938187  celldm(2)=   0.000000  celldm(3)=   0.000000
     celldm(4)=   0.000000  celldm(5)=   0.000000  celldm(6)=   0.000000

     crystal axes: (cart. coord. in units of alat)
               a(1) = (   1.000000   0.000000   0.000000 )  
               a(2) = (   0.000000   1.054474   0.000000 )  
               a(3) = (   0.000000   0.000000   1.003320 )  

     reciprocal axes: (cart. coord. in units 2 pi/alat)
               b(1) = (  1.000000  0.000000  0.000000 )  
               b(2) = (  0.000000  0.948340  0.000000 )  
               b(3) = (  0.000000  0.000000  0.996691 )  


     PseudoPot. # 1 for Fe read from file:
     /rds/homes/b/bxp912/pp/Fe.pbe-spn-kjpaw_psl.1.0.0.UPF
     MD5 check sum: 42f43b795421b414b0dc916aa790dbcb
     Pseudo is Projector augmented-wave + core cor, Zval = 16.0
     Generated using "atomic" code by A. Dal Corso v.6.3
     Shape of augmentation charge: PSQ
     Using radial grid of 1191 points,  6 beta functions with: 
                l(1) =   0
                l(2) =   0
                l(3) =   1
                l(4) =   1
                l(5) =   2
                l(6) =   2
     Q(r) pseudized with 0 coefficients 


     PseudoPot. # 2 for Fe read from file:
     /rds/homes/b/bxp912/pp/Fe.pbe-spn-kjpaw_psl.1.0.0.UPF
     MD5 check sum: 42f43b795421b414b0dc916aa790dbcb
     Pseudo is Projector augmented-wave + core cor, Zval = 16.0
     Generated using "atomic" code by A. Dal Corso v.6.3
     Shape of augmentation charge: PSQ
     Using radial grid of 1191 points,  6 beta functions with: 
                l(1) =   0
                l(2) =   0
                l(3) =   1
                l(4) =   1
                l(5) =   2
                l(6) =   2
     Q(r) pseudized with 0 coefficients 


     PseudoPot. # 3 for Fe read from file:
     /rds/homes/b/bxp912/pp/Fe.pbe-spn-kjpaw_psl.1.0.0.UPF
     MD5 check sum: 42f43b795421b414b0dc916aa790dbcb
     Pseudo is Projector augmented-wave + core cor, Zval = 16.0
     Generated using "atomic" code by A. Dal Corso v.6.3
     Shape of augmentation charge: PSQ
     Using radial grid of 1191 points,  6 beta functions with: 
                l(1) =   0
                l(2) =   0
                l(3) =   1
                l(4) =   1
                l(5) =   2
                l(6) =   2
     Q(r) pseudized with 0 coefficients 


     PseudoPot. # 4 for Fe read from file:
     /rds/homes/b/bxp912/pp/Fe.pbe-spn-kjpaw_psl.1.0.0.UPF
     MD5 check sum: 42f43b795421b414b0dc916aa790dbcb
     Pseudo is Projector augmented-wave + core cor, Zval = 16.0
     Generated using "atomic" code by A. Dal Corso v.6.3
     Shape of augmentation charge: PSQ
     Using radial grid of 1191 points,  6 beta functions with: 
                l(1) =   0
                l(2) =   0
                l(3) =   1
                l(4) =   1
                l(5) =   2
                l(6) =   2
     Q(r) pseudized with 0 coefficients 


     atomic species   valence    mass     pseudopotential
        Fe1           16.00    55.84500     Fe( 1.00)
        Fe2           16.00    55.84500     Fe( 1.00)
        Fe3           16.00    55.84500     Fe( 1.00)
        Fe4           16.00    55.84500     Fe( 1.00)

     Starting magnetic structure 
     atomic species   magnetization
        Fe1          0.100
        Fe2         -0.100
        Fe3          0.100
        Fe4         -0.100

      8 Sym. Ops., with inversion, found



   Cartesian axes

     site n.     atom                  positions (alat units)
         1           Fe1 tau(   1) = (   0.0000000   0.0000000   0.0000000  )
         2           Fe2 tau(   2) = (   0.2499968   0.2636211   0.0000000  )
         3           Fe3 tau(   3) = (   0.2499981   0.0000000   0.2508281  )
         4           Fe4 tau(   4) = (   0.0000000   0.2636197   0.2508341  )
         5           Fe1 tau(   5) = (   0.0000000   0.0000000   0.5016601  )
         6           Fe2 tau(   6) = (   0.2499996   0.2636239   0.5016601  )
         7           Fe3 tau(   7) = (   0.2499981   0.0000000   0.7524912  )
         8           Fe4 tau(   8) = (   0.0000000   0.2636197   0.7524852  )
         9           Fe1 tau(   9) = (   0.0000000   0.5272369   0.0000000  )
        10           Fe2 tau(  10) = (   0.2499968   0.7908529   0.0000000  )
        11           Fe3 tau(  11) = (   0.2500004   0.5272369   0.2508321  )
        12           Fe4 tau(  12) = (   0.0000000   0.7908543   0.2508341  )
        13           Fe1 tau(  13) = (   0.0000000   0.5272369   0.5016601  )
        14           Fe2 tau(  14) = (   0.2499996   0.7908501   0.5016601  )
        15           Fe3 tau(  15) = (   0.2500004   0.5272369   0.7524882  )
        16           Fe4 tau(  16) = (   0.0000000   0.7908543   0.7524852  )
        17           Fe1 tau(  17) = (   0.4999998   0.0000000   0.0000000  )
        18           Fe2 tau(  18) = (   0.7500027   0.2636211   0.0000000  )
        19           Fe3 tau(  19) = (   0.7500015   0.0000000   0.2508281  )
        20           Fe4 tau(  20) = (   0.4999998   0.2636187   0.2508321  )
        21           Fe1 tau(  21) = (   0.4999998   0.0000000   0.5016601  )
        22           Fe2 tau(  22) = (   0.7499998   0.2636239   0.5016601  )
        23           Fe3 tau(  23) = (   0.7500015   0.0000000   0.7524912  )
        24           Fe4 tau(  24) = (   0.4999998   0.2636187   0.7524872  )
        25           Fe1 tau(  25) = (   0.4999998   0.5272369   0.0000000  )
        26           Fe2 tau(  26) = (   0.7500027   0.7908529   0.0000000  )
        27           Fe3 tau(  27) = (   0.7499992   0.5272369   0.2508321  )
        28           Fe4 tau(  28) = (   0.4999998   0.7908553   0.2508321  )
        29           Fe1 tau(  29) = (   0.4999998   0.5272369   0.5016601  )
        30           Fe2 tau(  30) = (   0.7499998   0.7908501   0.5016601  )
        31           Fe3 tau(  31) = (   0.7499992   0.5272369   0.7524882  )
        32           Fe4 tau(  32) = (   0.4999998   0.7908553   0.7524872  )

     number of k points=   125  Marzari-Vanderbilt smearing, width (Ry)=  0.0400

     Number of k-points >= 100: set verbosity='high' to print them.

     Dense  grid:   345039 G-vectors     FFT dimensions: (  90,  96,  90)

     Smooth grid:   185281 G-vectors     FFT dimensions: (  72,  75,  72)

     Estimated max dynamical RAM per process >     813.40 MB

     Estimated total dynamical RAM >      31.77 GB
     Generating pointlists ...
     new r_m :   0.1461 (alat units)  1.8900 (a.u.) for type    1
     new r_m :   0.1461 (alat units)  1.8900 (a.u.) for type    2
     new r_m :   0.1461 (alat units)  1.8900 (a.u.) for type    3
     new r_m :   0.1461 (alat units)  1.8900 (a.u.) for type    4

     Check: negative/imaginary core charge=   -0.000006    0.000000

     Initial potential from superposition of free atoms

     starting charge  511.98600, renormalised to  512.00000
     Starting wfcs are  320 randomized atomic wfcs
     Checking if some PAW data can be deallocated... 

     total cpu time spent up to now is       87.8 secs

     Self-consistent Calculation

     iteration #  1     ecut=    71.00 Ry     beta= 0.10
     Davidson diagonalization with overlap
     ethr =  1.00E-02,  avg # of iterations =  3.5

     Threshold (ethr) on eigenvalues was too large:
     Diagonalizing with lowered threshold

     Davidson diagonalization with overlap
     ethr =  3.16E-04,  avg # of iterations =  3.9

     total cpu time spent up to now is     1015.9 secs

     total energy              =  -10536.43290965 Ry
     Harris-Foulkes estimate   =  -10536.77259053 Ry
     estimated scf accuracy    <       1.87018840 Ry

     total magnetization       =     0.23 Bohr mag/cell
     absolute magnetization    =    44.32 Bohr mag/cell

     iteration #  2     ecut=    71.00 Ry     beta= 0.10
     Davidson diagonalization with overlap
     ethr =  3.65E-04,  avg # of iterations =  1.0

     total cpu time spent up to now is     1245.7 secs

     total energy              =  -10536.21523781 Ry
     Harris-Foulkes estimate   =  -10536.47833014 Ry
     estimated scf accuracy    <       1.10929785 Ry

     total magnetization       =    -0.11 Bohr mag/cell
     absolute magnetization    =    45.05 Bohr mag/cell

     iteration #  3     ecut=    71.00 Ry     beta= 0.10
     Davidson diagonalization with overlap
     ethr =  2.17E-04,  avg # of iterations =  2.3

     total cpu time spent up to now is     1561.6 secs

     total energy              =  -10536.08134946 Ry
     Harris-Foulkes estimate   =  -10536.35386437 Ry
     estimated scf accuracy    <       2.70096815 Ry

     total magnetization       =     0.24 Bohr mag/cell
     absolute magnetization    =    45.42 Bohr mag/cell

     iteration #  4     ecut=    71.00 Ry     beta= 0.10
     Davidson diagonalization with overlap
     ethr =  2.17E-04,  avg # of iterations =  2.4

     total cpu time spent up to now is     1878.7 secs

     total energy              =  -10536.18294366 Ry
     Harris-Foulkes estimate   =  -10536.21438762 Ry
     estimated scf accuracy    <       0.51935252 Ry

     total magnetization       =     0.35 Bohr mag/cell
     absolute magnetization    =    46.45 Bohr mag/cell

     iteration #  5     ecut=    71.00 Ry     beta= 0.10
     Davidson diagonalization with overlap
     ethr =  1.01E-04,  avg # of iterations =  1.3

     total cpu time spent up to now is     2130.6 secs

     total energy              =  -10536.19361538 Ry
     Harris-Foulkes estimate   =  -10536.20242376 Ry
     estimated scf accuracy    <       0.08333701 Ry

     total magnetization       =     0.02 Bohr mag/cell
     absolute magnetization    =    46.59 Bohr mag/cell

     iteration #  6     ecut=    71.00 Ry     beta= 0.10
     Davidson diagonalization with overlap
     ethr =  1.63E-05,  avg # of iterations =  3.4

     total cpu time spent up to now is     2515.8 secs

     total energy              =  -10536.18485273 Ry
     Harris-Foulkes estimate   =  -10536.19705482 Ry
     estimated scf accuracy    <       0.06798843 Ry

     total magnetization       =    -0.11 Bohr mag/cell
     absolute magnetization    =    46.55 Bohr mag/cell

     iteration #  7     ecut=    71.00 Ry     beta= 0.10
     Davidson diagonalization with overlap
     ethr =  1.33E-05,  avg # of iterations =  3.8

     total cpu time spent up to now is     3079.5 secs

     total energy              =  -10536.20038811 Ry
     Harris-Foulkes estimate   =  -10536.20600734 Ry
     estimated scf accuracy    <       0.08910858 Ry

     total magnetization       =     0.05 Bohr mag/cell
     absolute magnetization    =    46.72 Bohr mag/cell

     iteration #  8     ecut=    71.00 Ry     beta= 0.10
     Davidson diagonalization with overlap
     ethr =  1.33E-05,  avg # of iterations =  2.0

     total cpu time spent up to now is     3383.9 secs

     total energy              =  -10536.20338321 Ry
     Harris-Foulkes estimate   =  -10536.20442235 Ry
     estimated scf accuracy    <       0.05911814 Ry

     total magnetization       =     0.04 Bohr mag/cell
     absolute magnetization    =    47.02 Bohr mag/cell

     iteration #  9     ecut=    71.00 Ry     beta= 0.10
     Davidson diagonalization with overlap
     ethr =  1.15E-05,  avg # of iterations =  1.0

     total cpu time spent up to now is     3613.0 secs

     total energy              =  -10536.21296663 Ry
     Harris-Foulkes estimate   =  -10536.20433658 Ry
     estimated scf accuracy    <       0.03798944 Ry

     total magnetization       =     0.01 Bohr mag/cell
     absolute magnetization    =    47.11 Bohr mag/cell

     iteration # 10     ecut=    71.00 Ry     beta= 0.10
     Davidson diagonalization with overlap
     ethr =  7.42E-06,  avg # of iterations =  2.5

     total cpu time spent up to now is     3950.3 secs

     total energy              =  -10536.23661832 Ry
     Harris-Foulkes estimate   =  -10536.21537308 Ry
     estimated scf accuracy    <       0.03164723 Ry

     total magnetization       =    -0.08 Bohr mag/cell
     absolute magnetization    =    47.41 Bohr mag/cell

     iteration # 11     ecut=    71.00 Ry     beta= 0.10
     Davidson diagonalization with overlap
     ethr =  6.18E-06,  avg # of iterations =  3.8

     total cpu time spent up to now is     4498.2 secs

     total energy              =  -10536.24984195 Ry
     Harris-Foulkes estimate   =  -10536.24805323 Ry
     estimated scf accuracy    <       0.02924926 Ry

     total magnetization       =    -0.12 Bohr mag/cell
     absolute magnetization    =    48.22 Bohr mag/cell

     iteration # 12     ecut=    71.00 Ry     beta= 0.10
     Davidson diagonalization with overlap
     ethr =  5.71E-06,  avg # of iterations =  1.1

     total cpu time spent up to now is     4737.0 secs

     total energy              =  -10536.25083370 Ry
     Harris-Foulkes estimate   =  -10536.25117574 Ry
     estimated scf accuracy    <       0.01317395 Ry

     total magnetization       =    -0.04 Bohr mag/cell
     absolute magnetization    =    48.44 Bohr mag/cell

     iteration # 13     ecut=    71.00 Ry     beta= 0.10
     Davidson diagonalization with overlap
     ethr =  2.57E-06,  avg # of iterations =  2.3

     total cpu time spent up to now is     5070.7 secs

     total energy              =  -10536.25177329 Ry
     Harris-Foulkes estimate   =  -10536.25176377 Ry
     estimated scf accuracy    <       0.00261169 Ry

     total magnetization       =    -0.01 Bohr mag/cell
     absolute magnetization    =    48.63 Bohr mag/cell

     iteration # 14     ecut=    71.00 Ry     beta= 0.10
     Davidson diagonalization with overlap
     ethr =  5.10E-07,  avg # of iterations =  1.7

     total cpu time spent up to now is     5347.1 secs

     total energy              =  -10536.25190837 Ry
     Harris-Foulkes estimate   =  -10536.25184855 Ry
     estimated scf accuracy    <       0.00121574 Ry

     total magnetization       =    -0.01 Bohr mag/cell
     absolute magnetization    =    48.66 Bohr mag/cell

     iteration # 15     ecut=    71.00 Ry     beta= 0.10
     Davidson diagonalization with overlap
     ethr =  2.37E-07,  avg # of iterations =  1.0

     total cpu time spent up to now is     5578.4 secs

     total energy              =  -10536.25209209 Ry
     Harris-Foulkes estimate   =  -10536.25193709 Ry
     estimated scf accuracy    <       0.00087977 Ry

     total magnetization       =    -0.01 Bohr mag/cell
     absolute magnetization    =    48.73 Bohr mag/cell

     iteration # 16     ecut=    71.00 Ry     beta= 0.10
     Davidson diagonalization with overlap
     ethr =  1.72E-07,  avg # of iterations =  1.8

     total cpu time spent up to now is     5859.3 secs

     total energy              =  -10536.25218508 Ry
     Harris-Foulkes estimate   =  -10536.25215043 Ry
     estimated scf accuracy    <       0.00075714 Ry

     total magnetization       =     0.00 Bohr mag/cell
     absolute magnetization    =    48.85 Bohr mag/cell

     iteration # 17     ecut=    71.00 Ry     beta= 0.10
     Davidson diagonalization with overlap
     ethr =  1.48E-07,  avg # of iterations =  1.2

     total cpu time spent up to now is     6106.5 secs

     total energy              =  -10536.25229136 Ry
     Harris-Foulkes estimate   =  -10536.25222412 Ry
     estimated scf accuracy    <       0.00058225 Ry

     total magnetization       =    -0.02 Bohr mag/cell
     absolute magnetization    =    48.90 Bohr mag/cell

     iteration # 18     ecut=    71.00 Ry     beta= 0.10
     Davidson diagonalization with overlap
     ethr =  1.14E-07,  avg # of iterations =  1.4

     total cpu time spent up to now is     6364.8 secs

     total energy              =  -10536.25241960 Ry
     Harris-Foulkes estimate   =  -10536.25231574 Ry
     estimated scf accuracy    <       0.00044160 Ry

     total magnetization       =    -0.01 Bohr mag/cell
     absolute magnetization    =    48.96 Bohr mag/cell

     iteration # 19     ecut=    71.00 Ry     beta= 0.10
     Davidson diagonalization with overlap
     ethr =  8.62E-08,  avg # of iterations =  2.1

     total cpu time spent up to now is     6669.1 secs

     total energy              =  -10536.25252716 Ry
     Harris-Foulkes estimate   =  -10536.25243998 Ry
     estimated scf accuracy    <       0.00036566 Ry

     total magnetization       =    -0.00 Bohr mag/cell
     absolute magnetization    =    49.03 Bohr mag/cell

     iteration # 20     ecut=    71.00 Ry     beta= 0.10
     Davidson diagonalization with overlap
     ethr =  7.14E-08,  avg # of iterations =  1.9

     total cpu time spent up to now is     6956.6 secs

     total energy              =  -10536.25267084 Ry
     Harris-Foulkes estimate   =  -10536.25254518 Ry
     estimated scf accuracy    <       0.00036893 Ry

     total magnetization       =    -0.01 Bohr mag/cell
     absolute magnetization    =    49.10 Bohr mag/cell

     iteration # 21     ecut=    71.00 Ry     beta= 0.10
     Davidson diagonalization with overlap
     ethr =  7.14E-08,  avg # of iterations =  3.0

     total cpu time spent up to now is     7343.5 secs

     total energy              =  -10536.25273582 Ry
     Harris-Foulkes estimate   =  -10536.25273165 Ry
     estimated scf accuracy    <       0.00018402 Ry

     total magnetization       =    -0.01 Bohr mag/cell
     absolute magnetization    =    49.30 Bohr mag/cell

     iteration # 22     ecut=    71.00 Ry     beta= 0.10
     Davidson diagonalization with overlap
     ethr =  3.59E-08,  avg # of iterations =  1.1

     total cpu time spent up to now is     7582.1 secs

     total energy              =  -10536.25278959 Ry
     Harris-Foulkes estimate   =  -10536.25274592 Ry
     estimated scf accuracy    <       0.00015581 Ry

     total magnetization       =    -0.00 Bohr mag/cell
     absolute magnetization    =    49.33 Bohr mag/cell

     iteration # 23     ecut=    71.00 Ry     beta= 0.10
     Davidson diagonalization with overlap
     ethr =  3.04E-08,  avg # of iterations =  2.0

     total cpu time spent up to now is     7876.5 secs

     total energy              =  -10536.25281479 Ry
     Harris-Foulkes estimate   =  -10536.25280315 Ry
     estimated scf accuracy    <       0.00008782 Ry

     total magnetization       =    -0.00 Bohr mag/cell
     absolute magnetization    =    49.41 Bohr mag/cell

     iteration # 24     ecut=    71.00 Ry     beta= 0.10
     Davidson diagonalization with overlap
     ethr =  1.72E-08,  avg # of iterations =  2.1

     total cpu time spent up to now is     8180.7 secs

     total energy              =  -10536.25282960 Ry
     Harris-Foulkes estimate   =  -10536.25281926 Ry
     estimated scf accuracy    <       0.00010160 Ry

     total magnetization       =    -0.01 Bohr mag/cell
     absolute magnetization    =    49.45 Bohr mag/cell

     iteration # 25     ecut=    71.00 Ry     beta= 0.10
     Davidson diagonalization with overlap
     ethr =  1.72E-08,  avg # of iterations =  3.1

     total cpu time spent up to now is     8571.9 secs

     total energy              =  -10536.25284137 Ry
     Harris-Foulkes estimate   =  -10536.25284775 Ry
     estimated scf accuracy    <       0.00010039 Ry

     total magnetization       =    -0.00 Bohr mag/cell
     absolute magnetization    =    49.55 Bohr mag/cell

     iteration # 26     ecut=    71.00 Ry     beta= 0.10
     Davidson diagonalization with overlap
     ethr =  1.72E-08,  avg # of iterations =  1.0

     total cpu time spent up to now is     8797.1 secs

     total energy              =  -10536.25284231 Ry
     Harris-Foulkes estimate   =  -10536.25284728 Ry
     estimated scf accuracy    <       0.00008279 Ry

     total magnetization       =    -0.01 Bohr mag/cell
     absolute magnetization    =    49.55 Bohr mag/cell

     iteration # 27     ecut=    71.00 Ry     beta= 0.10
     Davidson diagonalization with overlap
     ethr =  1.62E-08,  avg # of iterations =  2.2

     total cpu time spent up to now is     9109.8 secs

     total energy              =  -10536.25286112 Ry
     Harris-Foulkes estimate   =  -10536.25285416 Ry
     estimated scf accuracy    <       0.00002601 Ry

     total magnetization       =    -0.00 Bohr mag/cell
     absolute magnetization    =    49.64 Bohr mag/cell

     iteration # 28     ecut=    71.00 Ry     beta= 0.10
     Davidson diagonalization with overlap
     ethr =  5.08E-09,  avg # of iterations =  2.8

     total cpu time spent up to now is     9465.5 secs

     total energy              =  -10536.25287088 Ry
     Harris-Foulkes estimate   =  -10536.25286258 Ry
     estimated scf accuracy    <       0.00002450 Ry

     total magnetization       =    -0.00 Bohr mag/cell
     absolute magnetization    =    49.66 Bohr mag/cell

     iteration # 29     ecut=    71.00 Ry     beta= 0.10
     Davidson diagonalization with overlap
     ethr =  4.79E-09,  avg # of iterations =  2.8

     total cpu time spent up to now is     9847.8 secs

     total energy              =  -10536.25287677 Ry
     Harris-Foulkes estimate   =  -10536.25287498 Ry
     estimated scf accuracy    <       0.00001359 Ry

     total magnetization       =    -0.00 Bohr mag/cell
     absolute magnetization    =    49.69 Bohr mag/cell

     iteration # 30     ecut=    71.00 Ry     beta= 0.10
     Davidson diagonalization with overlap
     ethr =  2.65E-09,  avg # of iterations =  1.7

     total cpu time spent up to now is    10122.3 secs

     total energy              =  -10536.25287888 Ry
     Harris-Foulkes estimate   =  -10536.25287757 Ry
     estimated scf accuracy    <       0.00000843 Ry

     total magnetization       =    -0.00 Bohr mag/cell
     absolute magnetization    =    49.71 Bohr mag/cell

     iteration # 31     ecut=    71.00 Ry     beta= 0.10
     Davidson diagonalization with overlap
     ethr =  1.65E-09,  avg # of iterations =  1.5

     total cpu time spent up to now is    10391.9 secs

     total energy              =  -10536.25288011 Ry
     Harris-Foulkes estimate   =  -10536.25287913 Ry
     estimated scf accuracy    <       0.00000563 Ry

     total magnetization       =    -0.00 Bohr mag/cell
     absolute magnetization    =    49.72 Bohr mag/cell

     iteration # 32     ecut=    71.00 Ry     beta= 0.10
     Davidson diagonalization with overlap
     ethr =  1.10E-09,  avg # of iterations =  2.3

     total cpu time spent up to now is    10704.3 secs

     total energy              =  -10536.25287950 Ry
     Harris-Foulkes estimate   =  -10536.25288044 Ry
     estimated scf accuracy    <       0.00000480 Ry

     total magnetization       =    -0.00 Bohr mag/cell
     absolute magnetization    =    49.73 Bohr mag/cell

     iteration # 33     ecut=    71.00 Ry     beta= 0.10
     Davidson diagonalization with overlap
     ethr =  9.37E-10,  avg # of iterations =  3.3

     total cpu time spent up to now is    11188.9 secs

     total energy              =  -10536.25288378 Ry
     Harris-Foulkes estimate   =  -10536.25288333 Ry
     estimated scf accuracy    <       0.00000360 Ry

     total magnetization       =    -0.00 Bohr mag/cell
     absolute magnetization    =    49.79 Bohr mag/cell

     iteration # 34     ecut=    71.00 Ry     beta= 0.10
     Davidson diagonalization with overlap
     ethr =  7.03E-10,  avg # of iterations =  1.0

     total cpu time spent up to now is    11421.0 secs

     total energy              =  -10536.25288395 Ry
     Harris-Foulkes estimate   =  -10536.25288388 Ry
     estimated scf accuracy    <       0.00000190 Ry

     total magnetization       =    -0.00 Bohr mag/cell
     absolute magnetization    =    49.79 Bohr mag/cell

     iteration # 35     ecut=    71.00 Ry     beta= 0.10
     Davidson diagonalization with overlap
     ethr =  3.70E-10,  avg # of iterations =  1.4

     total cpu time spent up to now is    11675.0 secs

     total energy              =  -10536.25288425 Ry
     Harris-Foulkes estimate   =  -10536.25288416 Ry
     estimated scf accuracy    <       0.00000173 Ry

     total magnetization       =    -0.00 Bohr mag/cell
     absolute magnetization    =    49.78 Bohr mag/cell

     iteration # 36     ecut=    71.00 Ry     beta= 0.10
     Davidson diagonalization with overlap
     ethr =  3.38E-10,  avg # of iterations =  1.2
 
     Magnetic moment per site:
     atom:    1    charge:   14.3975    magn:    1.4985    constr:    0.0000
     atom:    2    charge:   14.3978    magn:   -1.4983    constr:    0.0000
     atom:    3    charge:   14.3971    magn:    1.5010    constr:    0.0000
     atom:    4    charge:   14.3976    magn:   -1.5024    constr:    0.0000
     atom:    5    charge:   14.3974    magn:    1.4993    constr:    0.0000
     atom:    6    charge:   14.3977    magn:   -1.4978    constr:    0.0000
     atom:    7    charge:   14.3971    magn:    1.5010    constr:    0.0000
     atom:    8    charge:   14.3976    magn:   -1.5024    constr:    0.0000
     atom:    9    charge:   14.3975    magn:    1.4991    constr:    0.0000
     atom:   10    charge:   14.3978    magn:   -1.4983    constr:    0.0000
     atom:   11    charge:   14.3971    magn:    1.5007    constr:    0.0000
     atom:   12    charge:   14.3976    magn:   -1.5024    constr:    0.0000
     atom:   13    charge:   14.3974    magn:    1.4997    constr:    0.0000
     atom:   14    charge:   14.3977    magn:   -1.4978    constr:    0.0000
     atom:   15    charge:   14.3971    magn:    1.5007    constr:    0.0000
     atom:   16    charge:   14.3976    magn:   -1.5024    constr:    0.0000
     atom:   17    charge:   14.3975    magn:    1.4995    constr:    0.0000
     atom:   18    charge:   14.3978    magn:   -1.4983    constr:    0.0000
     atom:   19    charge:   14.3971    magn:    1.5010    constr:    0.0000
     atom:   20    charge:   14.3975    magn:   -1.5017    constr:    0.0000
     atom:   21    charge:   14.3975    magn:    1.4999    constr:    0.0000
     atom:   22    charge:   14.3977    magn:   -1.4978    constr:    0.0000
     atom:   23    charge:   14.3971    magn:    1.5010    constr:    0.0000
     atom:   24    charge:   14.3975    magn:   -1.5017    constr:    0.0000
     atom:   25    charge:   14.3976    magn:    1.4986    constr:    0.0000
     atom:   26    charge:   14.3978    magn:   -1.4983    constr:    0.0000
     atom:   27    charge:   14.3971    magn:    1.5007    constr:    0.0000
     atom:   28    charge:   14.3975    magn:   -1.5017    constr:    0.0000
     atom:   29    charge:   14.3975    magn:    1.4986    constr:    0.0000
     atom:   30    charge:   14.3977    magn:   -1.4978    constr:    0.0000
     atom:   31    charge:   14.3971    magn:    1.5007    constr:    0.0000
     atom:   32    charge:   14.3975    magn:   -1.5017    constr:    0.0000

     total cpu time spent up to now is    11919.2 secs

     End of self-consistent calculation

     Number of k-points >= 100: set verbosity='high' to print the bands.

     the Fermi energy is    20.0417 ev

!    total energy              =  -10536.25288497 Ry
     Harris-Foulkes estimate   =  -10536.25288439 Ry
     estimated scf accuracy    <       0.00000093 Ry

     total all-electron energy =    -81457.741943 Ry

     The total energy is the sum of the following terms:

     one-electron contribution =   -3302.27023581 Ry
     hartree contribution      =    2000.03300430 Ry
     xc contribution           =    -886.88278128 Ry
     ewald contribution        =   -5697.58523740 Ry
     one-center paw contrib.   =   -2649.56013242 Ry
     smearing contrib. (-TS)   =       0.01249764 Ry

     total magnetization       =    -0.00 Bohr mag/cell
     absolute magnetization    =    49.79 Bohr mag/cell

     convergence has been achieved in  36 iterations

     Forces acting on atoms (cartesian axes, Ry/au):

     atom    1 type  1   force =     0.00000000    0.00000000    0.00000000
     atom    2 type  2   force =     0.00001097    0.00004513    0.00000000
     atom    3 type  3   force =     0.00008052   -0.00000000   -0.00000557
     atom    4 type  4   force =     0.00000000   -0.00007138    0.00000655
     atom    5 type  1   force =     0.00000000    0.00000000    0.00000000
     atom    6 type  2   force =     0.00003024    0.00000235    0.00000000
     atom    7 type  3   force =     0.00008052    0.00000000    0.00000557
     atom    8 type  4   force =     0.00000000   -0.00007138   -0.00000655
     atom    9 type  1   force =     0.00000000    0.00000000    0.00000000
     atom   10 type  2   force =     0.00001097   -0.00004513    0.00000000
     atom   11 type  3   force =     0.00002980    0.00000000    0.00001315
     atom   12 type  4   force =     0.00000000    0.00007138    0.00000655
     atom   13 type  1   force =     0.00000000    0.00000000    0.00000000
     atom   14 type  2   force =     0.00003024   -0.00000235    0.00000000
     atom   15 type  3   force =     0.00002980   -0.00000000   -0.00001315
     atom   16 type  4   force =     0.00000000    0.00007138   -0.00000655
     atom   17 type  1   force =     0.00000000    0.00000000    0.00000000
     atom   18 type  2   force =    -0.00001097    0.00004513    0.00000000
     atom   19 type  3   force =    -0.00008052    0.00000000   -0.00000557
     atom   20 type  4   force =     0.00000000    0.00002471    0.00000342
     atom   21 type  1   force =     0.00000000    0.00000000    0.00000000
     atom   22 type  2   force =    -0.00003024    0.00000235    0.00000000
     atom   23 type  3   force =    -0.00008052   -0.00000000    0.00000557
     atom   24 type  4   force =     0.00000000    0.00002471   -0.00000342
     atom   25 type  1   force =     0.00000000    0.00000000    0.00000000
     atom   26 type  2   force =    -0.00001097   -0.00004513    0.00000000
     atom   27 type  3   force =    -0.00002980   -0.00000000    0.00001315
     atom   28 type  4   force =     0.00000000   -0.00002471    0.00000342
     atom   29 type  1   force =     0.00000000    0.00000000    0.00000000
     atom   30 type  2   force =    -0.00003024   -0.00000235    0.00000000
     atom   31 type  3   force =    -0.00002980    0.00000000   -0.00001315
     atom   32 type  4   force =     0.00000000   -0.00002471   -0.00000342

     Total force =     0.000256     Total SCF correction =     0.002666
     SCF correction compared to forces is large: reduce conv_thr to get better values


     Computing stress (Cartesian axis) and pressure

          total   stress  (Ry/bohr**3)                   (kbar)     P=   -6.81
  -0.00004529   0.00000000   0.00000000         -6.66      0.00      0.00
   0.00000000  -0.00002026   0.00000000          0.00     -2.98      0.00
   0.00000000   0.00000000  -0.00007342          0.00      0.00    -10.80


     Writing output data file pLRyWSUgmlQoOYFU.save/
-------------------------------------------------------
Primary job  terminated normally, but 1 process returned
a non-zero exit code.. Per user-direction, the job has been aborted.
-------------------------------------------------------
--------------------------------------------------------------------------
mpirun detected that one or more processes exited with non-zero status, thus causing
the job to be terminated. The first process to do so was:

  Process name: [[2412,1],0]
  Exit code:    38
--------------------------------------------------------------------------
