--------------------------------------------------------------------------
WARNING: There was an error initializing an OpenFabrics device.

  Local host:   bear-pg0206u20a
  Local device: mlx5_0
--------------------------------------------------------------------------
--------------------------------------------------------------------------
WARNING: No preset parameters were found for the device that Open MPI
detected:

  Local host:            bear-pg0206u20a
  Device name:           mlx5_0
  Device vendor ID:      0x02c9
  Device vendor part ID: 4123

Default device parameters will be used, which may result in lower
performance.  You can edit any of the files specified by the
btl_openib_device_param_files MCA parameter to set values for your
device.

NOTE: You can turn off this warning by setting the MCA parameter
      btl_openib_warn_no_device_params_found to 0.
--------------------------------------------------------------------------

     Program PWSCF v.6.3 starts on 21Oct2020 at 12:44: 2 

     This program is part of the open-source Quantum ESPRESSO suite
     for quantum simulation of materials; please cite
         "P. Giannozzi et al., J. Phys.:Condens. Matter 21 395502 (2009);
         "P. Giannozzi et al., J. Phys.:Condens. Matter 29 465901 (2017);
          URL http://www.quantum-espresso.org", 
     in publications or presentations arising from this work. More details at
     http://www.quantum-espresso.org/quote

     Parallel version (MPI & OpenMP), running on      40 processor cores
     Number of MPI processes:                40
     Threads/MPI process:                     1

     MPI processes distributed on     1 nodes
     R & G space division:  proc/nbgrp/npool/nimage =      40
     Reading input from wd/ec/ec_9_003.in
Warning: card &IONS ignored
Warning: card ION_DYNAMICS = 'BFGS', ignored
Warning: card / ignored
Warning: card &CELL ignored
Warning: card CELL_DYNAMICS = 'BFGS', ignored
Warning: card CELL_FACTOR = 2.0, ignored
Warning: card PRESS = 0.0, ignored
Warning: card / ignored

     Current dimensions of program PWSCF are:
     Max number of different atomic species (ntypx) = 10
     Max number of k-points (npk) =  40000
     Max angular momentum in pseudopotentials (lmaxx) =  3
               file Fe.pbe-spn-kjpaw_psl.1.0.0.UPF: wavefunction(s)  3P 3D renormalized
               file Fe.pbe-spn-kjpaw_psl.1.0.0.UPF: wavefunction(s)  3P 3D renormalized
               file Fe.pbe-spn-kjpaw_psl.1.0.0.UPF: wavefunction(s)  3P 3D renormalized
               file Fe.pbe-spn-kjpaw_psl.1.0.0.UPF: wavefunction(s)  3P 3D renormalized

     Subspace diagonalization in iterative solution of the eigenvalue problem:
     a serial algorithm will be used

     Found symmetry operation: I + (  0.0000  0.0000 -0.5000)
     This is a supercell, fractional translations are disabled
 
     Parallelization info
     --------------------
     sticks:   dense  smooth     PW     G-vecs:    dense   smooth      PW
     Min         151     100     27                 8599     4616     665
     Max         152     102     28                 8602     4617     668
     Sum        6059    4013   1103               343995   184649   26647
 


     bravais-lattice index     =            0
     lattice parameter (alat)  =      12.9382  a.u.
     unit-cell volume          =    2283.7593 (a.u.)^3
     number of atoms/cell      =           32
     number of atomic types    =            4
     number of electrons       =       512.00
     number of Kohn-Sham states=          307
     kinetic-energy cutoff     =      71.0000  Ry
     charge density cutoff     =     430.0000  Ry
     convergence threshold     =      1.0E-06
     mixing beta               =       0.1000
     number of iterations used =           10  plain     mixing
     Exchange-correlation      = SLA PW PBX PBC ( 1  4  3  4 0 0)

     celldm(1)=  12.938187  celldm(2)=   0.000000  celldm(3)=   0.000000
     celldm(4)=   0.000000  celldm(5)=   0.000000  celldm(6)=   0.000000

     crystal axes: (cart. coord. in units of alat)
               a(1) = (   1.000004   0.000000   0.000000 )  
               a(2) = (   0.000000   1.057993   0.000000 )  
               a(3) = (   0.000000   0.000000   0.996657 )  

     reciprocal axes: (cart. coord. in units 2 pi/alat)
               b(1) = (  0.999996  0.000000  0.000000 )  
               b(2) = (  0.000000  0.945186  0.000000 )  
               b(3) = (  0.000000  0.000000  1.003354 )  


     PseudoPot. # 1 for Fe read from file:
     /rds/homes/b/bxp912/pp/Fe.pbe-spn-kjpaw_psl.1.0.0.UPF
     MD5 check sum: 42f43b795421b414b0dc916aa790dbcb
     Pseudo is Projector augmented-wave + core cor, Zval = 16.0
     Generated using "atomic" code by A. Dal Corso v.6.3
     Shape of augmentation charge: PSQ
     Using radial grid of 1191 points,  6 beta functions with: 
                l(1) =   0
                l(2) =   0
                l(3) =   1
                l(4) =   1
                l(5) =   2
                l(6) =   2
     Q(r) pseudized with 0 coefficients 


     PseudoPot. # 2 for Fe read from file:
     /rds/homes/b/bxp912/pp/Fe.pbe-spn-kjpaw_psl.1.0.0.UPF
     MD5 check sum: 42f43b795421b414b0dc916aa790dbcb
     Pseudo is Projector augmented-wave + core cor, Zval = 16.0
     Generated using "atomic" code by A. Dal Corso v.6.3
     Shape of augmentation charge: PSQ
     Using radial grid of 1191 points,  6 beta functions with: 
                l(1) =   0
                l(2) =   0
                l(3) =   1
                l(4) =   1
                l(5) =   2
                l(6) =   2
     Q(r) pseudized with 0 coefficients 


     PseudoPot. # 3 for Fe read from file:
     /rds/homes/b/bxp912/pp/Fe.pbe-spn-kjpaw_psl.1.0.0.UPF
     MD5 check sum: 42f43b795421b414b0dc916aa790dbcb
     Pseudo is Projector augmented-wave + core cor, Zval = 16.0
     Generated using "atomic" code by A. Dal Corso v.6.3
     Shape of augmentation charge: PSQ
     Using radial grid of 1191 points,  6 beta functions with: 
                l(1) =   0
                l(2) =   0
                l(3) =   1
                l(4) =   1
                l(5) =   2
                l(6) =   2
     Q(r) pseudized with 0 coefficients 


     PseudoPot. # 4 for Fe read from file:
     /rds/homes/b/bxp912/pp/Fe.pbe-spn-kjpaw_psl.1.0.0.UPF
     MD5 check sum: 42f43b795421b414b0dc916aa790dbcb
     Pseudo is Projector augmented-wave + core cor, Zval = 16.0
     Generated using "atomic" code by A. Dal Corso v.6.3
     Shape of augmentation charge: PSQ
     Using radial grid of 1191 points,  6 beta functions with: 
                l(1) =   0
                l(2) =   0
                l(3) =   1
                l(4) =   1
                l(5) =   2
                l(6) =   2
     Q(r) pseudized with 0 coefficients 


     atomic species   valence    mass     pseudopotential
        Fe1           16.00    55.84500     Fe( 1.00)
        Fe2           16.00    55.84500     Fe( 1.00)
        Fe3           16.00    55.84500     Fe( 1.00)
        Fe4           16.00    55.84500     Fe( 1.00)

     Starting magnetic structure 
     atomic species   magnetization
        Fe1          0.100
        Fe2         -0.100
        Fe3          0.100
        Fe4         -0.100

      8 Sym. Ops., with inversion, found



   Cartesian axes

     site n.     atom                  positions (alat units)
         1           Fe1 tau(   1) = (   0.0000000   0.0000000   0.0000000  )
         2           Fe2 tau(   2) = (   0.2499978   0.2645008   0.0000000  )
         3           Fe3 tau(   3) = (   0.2499991   0.0000000   0.2491623  )
         4           Fe4 tau(   4) = (   0.0000000   0.2644994   0.2491683  )
         5           Fe1 tau(   5) = (   0.0000000   0.0000000   0.4983287  )
         6           Fe2 tau(   6) = (   0.2500006   0.2645036   0.4983287  )
         7           Fe3 tau(   7) = (   0.2499991   0.0000000   0.7474940  )
         8           Fe4 tau(   8) = (   0.0000000   0.2644994   0.7474880  )
         9           Fe1 tau(   9) = (   0.0000000   0.5289964   0.0000000  )
        10           Fe2 tau(  10) = (   0.2499978   0.7934920   0.0000000  )
        11           Fe3 tau(  11) = (   0.2500013   0.5289964   0.2491663  )
        12           Fe4 tau(  12) = (   0.0000000   0.7934934   0.2491683  )
        13           Fe1 tau(  13) = (   0.0000000   0.5289964   0.4983287  )
        14           Fe2 tau(  14) = (   0.2500006   0.7934892   0.4983287  )
        15           Fe3 tau(  15) = (   0.2500013   0.5289964   0.7474910  )
        16           Fe4 tau(  16) = (   0.0000000   0.7934934   0.7474880  )
        17           Fe1 tau(  17) = (   0.5000017   0.0000000   0.0000000  )
        18           Fe2 tau(  18) = (   0.7500054   0.2645008   0.0000000  )
        19           Fe3 tau(  19) = (   0.7500042   0.0000000   0.2491623  )
        20           Fe4 tau(  20) = (   0.5000017   0.2644984   0.2491663  )
        21           Fe1 tau(  21) = (   0.5000017   0.0000000   0.4983287  )
        22           Fe2 tau(  22) = (   0.7500026   0.2645036   0.4983287  )
        23           Fe3 tau(  23) = (   0.7500042   0.0000000   0.7474940  )
        24           Fe4 tau(  24) = (   0.5000017   0.2644984   0.7474900  )
        25           Fe1 tau(  25) = (   0.5000017   0.5289964   0.0000000  )
        26           Fe2 tau(  26) = (   0.7500054   0.7934920   0.0000000  )
        27           Fe3 tau(  27) = (   0.7500020   0.5289964   0.2491663  )
        28           Fe4 tau(  28) = (   0.5000017   0.7934944   0.2491663  )
        29           Fe1 tau(  29) = (   0.5000017   0.5289964   0.4983287  )
        30           Fe2 tau(  30) = (   0.7500026   0.7934892   0.4983287  )
        31           Fe3 tau(  31) = (   0.7500020   0.5289964   0.7474910  )
        32           Fe4 tau(  32) = (   0.5000017   0.7934944   0.7474900  )

     number of k points=   125  Marzari-Vanderbilt smearing, width (Ry)=  0.0400

     Number of k-points >= 100: set verbosity='high' to print them.

     Dense  grid:   343995 G-vectors     FFT dimensions: (  90,  96,  90)

     Smooth grid:   184649 G-vectors     FFT dimensions: (  72,  75,  72)

     Estimated max dynamical RAM per process >     810.90 MB

     Estimated total dynamical RAM >      31.68 GB
     Generating pointlists ...
     new r_m :   0.1456 (alat units)  1.8838 (a.u.) for type    1
     new r_m :   0.1456 (alat units)  1.8837 (a.u.) for type    2
     new r_m :   0.1456 (alat units)  1.8838 (a.u.) for type    3
     new r_m :   0.1456 (alat units)  1.8837 (a.u.) for type    4

     Check: negative/imaginary core charge=   -0.000006    0.000000

     Initial potential from superposition of free atoms

     starting charge  511.98600, renormalised to  512.00000
     Starting wfcs are  320 randomized atomic wfcs
     Checking if some PAW data can be deallocated... 

     total cpu time spent up to now is       85.5 secs

     Self-consistent Calculation

     iteration #  1     ecut=    71.00 Ry     beta= 0.10
     Davidson diagonalization with overlap
     ethr =  1.00E-02,  avg # of iterations =  3.6

     Threshold (ethr) on eigenvalues was too large:
     Diagonalizing with lowered threshold

     Davidson diagonalization with overlap
     ethr =  3.18E-04,  avg # of iterations =  3.9

     total cpu time spent up to now is     1032.5 secs

     total energy              =  -10536.42960187 Ry
     Harris-Foulkes estimate   =  -10536.77021449 Ry
     estimated scf accuracy    <       1.87834679 Ry

     total magnetization       =     0.23 Bohr mag/cell
     absolute magnetization    =    44.36 Bohr mag/cell

     iteration #  2     ecut=    71.00 Ry     beta= 0.10
     Davidson diagonalization with overlap
     ethr =  3.67E-04,  avg # of iterations =  1.1

     total cpu time spent up to now is     1262.1 secs

     total energy              =  -10536.20992955 Ry
     Harris-Foulkes estimate   =  -10536.47507004 Ry
     estimated scf accuracy    <       1.11332909 Ry

     total magnetization       =    -0.11 Bohr mag/cell
     absolute magnetization    =    45.09 Bohr mag/cell

     iteration #  3     ecut=    71.00 Ry     beta= 0.10
     Davidson diagonalization with overlap
     ethr =  2.17E-04,  avg # of iterations =  2.3

     total cpu time spent up to now is     1583.9 secs

     total energy              =  -10536.07647129 Ry
     Harris-Foulkes estimate   =  -10536.34957361 Ry
     estimated scf accuracy    <       2.72275528 Ry

     total magnetization       =     0.22 Bohr mag/cell
     absolute magnetization    =    45.46 Bohr mag/cell

     iteration #  4     ecut=    71.00 Ry     beta= 0.10
     Davidson diagonalization with overlap
     ethr =  2.17E-04,  avg # of iterations =  2.4

     total cpu time spent up to now is     1910.2 secs

     total energy              =  -10536.17867888 Ry
     Harris-Foulkes estimate   =  -10536.20995761 Ry
     estimated scf accuracy    <       0.51680962 Ry

     total magnetization       =     0.34 Bohr mag/cell
     absolute magnetization    =    46.50 Bohr mag/cell

     iteration #  5     ecut=    71.00 Ry     beta= 0.10
     Davidson diagonalization with overlap
     ethr =  1.01E-04,  avg # of iterations =  1.4

     total cpu time spent up to now is     2165.4 secs

     total energy              =  -10536.18952550 Ry
     Harris-Foulkes estimate   =  -10536.19814308 Ry
     estimated scf accuracy    <       0.08411634 Ry

     total magnetization       =     0.02 Bohr mag/cell
     absolute magnetization    =    46.65 Bohr mag/cell

     iteration #  6     ecut=    71.00 Ry     beta= 0.10
     Davidson diagonalization with overlap
     ethr =  1.64E-05,  avg # of iterations =  3.6

     total cpu time spent up to now is     2566.9 secs

     total energy              =  -10536.18134233 Ry
     Harris-Foulkes estimate   =  -10536.19298819 Ry
     estimated scf accuracy    <       0.06973016 Ry

     total magnetization       =    -0.10 Bohr mag/cell
     absolute magnetization    =    46.61 Bohr mag/cell

     iteration #  7     ecut=    71.00 Ry     beta= 0.10
     Davidson diagonalization with overlap
     ethr =  1.36E-05,  avg # of iterations =  3.6

     total cpu time spent up to now is     3104.5 secs

     total energy              =  -10536.19850577 Ry
     Harris-Foulkes estimate   =  -10536.20091246 Ry
     estimated scf accuracy    <       0.09748278 Ry

     total magnetization       =     0.04 Bohr mag/cell
     absolute magnetization    =    46.79 Bohr mag/cell

     iteration #  8     ecut=    71.00 Ry     beta= 0.10
     Davidson diagonalization with overlap
     ethr =  1.36E-05,  avg # of iterations =  2.0

     total cpu time spent up to now is     3409.4 secs

     total energy              =  -10536.19955301 Ry
     Harris-Foulkes estimate   =  -10536.20257490 Ry
     estimated scf accuracy    <       0.07137430 Ry

     total magnetization       =     0.06 Bohr mag/cell
     absolute magnetization    =    47.05 Bohr mag/cell

     iteration #  9     ecut=    71.00 Ry     beta= 0.10
     Davidson diagonalization with overlap
     ethr =  1.36E-05,  avg # of iterations =  1.0

     total cpu time spent up to now is     3638.6 secs

     total energy              =  -10536.21075042 Ry
     Harris-Foulkes estimate   =  -10536.20092908 Ry
     estimated scf accuracy    <       0.03875254 Ry

     total magnetization       =     0.01 Bohr mag/cell
     absolute magnetization    =    47.20 Bohr mag/cell

     iteration # 10     ecut=    71.00 Ry     beta= 0.10
     Davidson diagonalization with overlap
     ethr =  7.57E-06,  avg # of iterations =  2.7

     total cpu time spent up to now is     4006.0 secs

     total energy              =  -10536.23479293 Ry
     Harris-Foulkes estimate   =  -10536.21365870 Ry
     estimated scf accuracy    <       0.03178195 Ry

     total magnetization       =    -0.08 Bohr mag/cell
     absolute magnetization    =    47.54 Bohr mag/cell

     iteration # 11     ecut=    71.00 Ry     beta= 0.10
     Davidson diagonalization with overlap
     ethr =  6.21E-06,  avg # of iterations =  3.8

     total cpu time spent up to now is     4551.1 secs

     total energy              =  -10536.24714676 Ry
     Harris-Foulkes estimate   =  -10536.24515424 Ry
     estimated scf accuracy    <       0.02789815 Ry

     total magnetization       =    -0.11 Bohr mag/cell
     absolute magnetization    =    48.34 Bohr mag/cell

     iteration # 12     ecut=    71.00 Ry     beta= 0.10
     Davidson diagonalization with overlap
     ethr =  5.45E-06,  avg # of iterations =  1.1

     total cpu time spent up to now is     4793.8 secs

     total energy              =  -10536.24830326 Ry
     Harris-Foulkes estimate   =  -10536.24850637 Ry
     estimated scf accuracy    <       0.01212603 Ry

     total magnetization       =    -0.04 Bohr mag/cell
     absolute magnetization    =    48.60 Bohr mag/cell

     iteration # 13     ecut=    71.00 Ry     beta= 0.10
     Davidson diagonalization with overlap
     ethr =  2.37E-06,  avg # of iterations =  2.5

     total cpu time spent up to now is     5137.4 secs

     total energy              =  -10536.24910105 Ry
     Harris-Foulkes estimate   =  -10536.24907335 Ry
     estimated scf accuracy    <       0.00236549 Ry

     total magnetization       =    -0.01 Bohr mag/cell
     absolute magnetization    =    48.77 Bohr mag/cell

     iteration # 14     ecut=    71.00 Ry     beta= 0.10
     Davidson diagonalization with overlap
     ethr =  4.62E-07,  avg # of iterations =  2.3

     total cpu time spent up to now is     5460.6 secs

     total energy              =  -10536.24924738 Ry
     Harris-Foulkes estimate   =  -10536.24916802 Ry
     estimated scf accuracy    <       0.00128462 Ry

     total magnetization       =    -0.02 Bohr mag/cell
     absolute magnetization    =    48.80 Bohr mag/cell

     iteration # 15     ecut=    71.00 Ry     beta= 0.10
     Davidson diagonalization with overlap
     ethr =  2.51E-07,  avg # of iterations =  1.0

     total cpu time spent up to now is     5694.9 secs

     total energy              =  -10536.24948990 Ry
     Harris-Foulkes estimate   =  -10536.24928425 Ry
     estimated scf accuracy    <       0.00090447 Ry

     total magnetization       =    -0.01 Bohr mag/cell
     absolute magnetization    =    48.88 Bohr mag/cell

     iteration # 16     ecut=    71.00 Ry     beta= 0.10
     Davidson diagonalization with overlap
     ethr =  1.77E-07,  avg # of iterations =  2.5

     total cpu time spent up to now is     6033.3 secs

     total energy              =  -10536.24958725 Ry
     Harris-Foulkes estimate   =  -10536.24958592 Ry
     estimated scf accuracy    <       0.00065751 Ry

     total magnetization       =     0.00 Bohr mag/cell
     absolute magnetization    =    49.05 Bohr mag/cell

     iteration # 17     ecut=    71.00 Ry     beta= 0.10
     Davidson diagonalization with overlap
     ethr =  1.28E-07,  avg # of iterations =  1.1

     total cpu time spent up to now is     6269.8 secs

     total energy              =  -10536.24971552 Ry
     Harris-Foulkes estimate   =  -10536.24961893 Ry
     estimated scf accuracy    <       0.00056409 Ry

     total magnetization       =    -0.02 Bohr mag/cell
     absolute magnetization    =    49.08 Bohr mag/cell

     iteration # 18     ecut=    71.00 Ry     beta= 0.10
     Davidson diagonalization with overlap
     ethr =  1.10E-07,  avg # of iterations =  1.0

     total cpu time spent up to now is     6504.2 secs

     total energy              =  -10536.24986480 Ry
     Harris-Foulkes estimate   =  -10536.24973507 Ry
     estimated scf accuracy    <       0.00038209 Ry

     total magnetization       =    -0.01 Bohr mag/cell
     absolute magnetization    =    49.14 Bohr mag/cell

     iteration # 19     ecut=    71.00 Ry     beta= 0.10
     Davidson diagonalization with overlap
     ethr =  7.46E-08,  avg # of iterations =  2.6

     total cpu time spent up to now is     6842.2 secs

     total energy              =  -10536.25004360 Ry
     Harris-Foulkes estimate   =  -10536.24989042 Ry
     estimated scf accuracy    <       0.00032945 Ry

     total magnetization       =    -0.00 Bohr mag/cell
     absolute magnetization    =    49.25 Bohr mag/cell

     iteration # 20     ecut=    71.00 Ry     beta= 0.10
     Davidson diagonalization with overlap
     ethr =  6.43E-08,  avg # of iterations =  3.1

     total cpu time spent up to now is     7251.5 secs

     total energy              =  -10536.25014179 Ry
     Harris-Foulkes estimate   =  -10536.25012668 Ry
     estimated scf accuracy    <       0.00034151 Ry

     total magnetization       =    -0.01 Bohr mag/cell
     absolute magnetization    =    49.47 Bohr mag/cell

     iteration # 21     ecut=    71.00 Ry     beta= 0.10
     Davidson diagonalization with overlap
     ethr =  6.43E-08,  avg # of iterations =  1.0

     total cpu time spent up to now is     7487.6 secs

     total energy              =  -10536.25017400 Ry
     Harris-Foulkes estimate   =  -10536.25015566 Ry
     estimated scf accuracy    <       0.00014728 Ry

     total magnetization       =    -0.01 Bohr mag/cell
     absolute magnetization    =    49.51 Bohr mag/cell

     iteration # 22     ecut=    71.00 Ry     beta= 0.10
     Davidson diagonalization with overlap
     ethr =  2.88E-08,  avg # of iterations =  1.0

     total cpu time spent up to now is     7718.4 secs

     total energy              =  -10536.25019987 Ry
     Harris-Foulkes estimate   =  -10536.25018132 Ry
     estimated scf accuracy    <       0.00011132 Ry

     total magnetization       =    -0.00 Bohr mag/cell
     absolute magnetization    =    49.56 Bohr mag/cell

     iteration # 23     ecut=    71.00 Ry     beta= 0.10
     Davidson diagonalization with overlap
     ethr =  2.17E-08,  avg # of iterations =  1.1

     total cpu time spent up to now is     7957.7 secs

     total energy              =  -10536.25021823 Ry
     Harris-Foulkes estimate   =  -10536.25020445 Ry
     estimated scf accuracy    <       0.00007809 Ry

     total magnetization       =    -0.00 Bohr mag/cell
     absolute magnetization    =    49.60 Bohr mag/cell

     iteration # 24     ecut=    71.00 Ry     beta= 0.10
     Davidson diagonalization with overlap
     ethr =  1.53E-08,  avg # of iterations =  3.0

     total cpu time spent up to now is     8333.7 secs

     total energy              =  -10536.25022959 Ry
     Harris-Foulkes estimate   =  -10536.25022606 Ry
     estimated scf accuracy    <       0.00010824 Ry

     total magnetization       =    -0.01 Bohr mag/cell
     absolute magnetization    =    49.67 Bohr mag/cell

     iteration # 25     ecut=    71.00 Ry     beta= 0.10
     Davidson diagonalization with overlap
     ethr =  1.53E-08,  avg # of iterations =  3.1

     total cpu time spent up to now is     8745.0 secs

     total energy              =  -10536.25025284 Ry
     Harris-Foulkes estimate   =  -10536.25025362 Ry
     estimated scf accuracy    <       0.00003451 Ry

     total magnetization       =    -0.00 Bohr mag/cell
     absolute magnetization    =    49.80 Bohr mag/cell

     iteration # 26     ecut=    71.00 Ry     beta= 0.10
     Davidson diagonalization with overlap
     ethr =  6.74E-09,  avg # of iterations =  1.1

     total cpu time spent up to now is     8988.8 secs

     total energy              =  -10536.25025738 Ry
     Harris-Foulkes estimate   =  -10536.25025660 Ry
     estimated scf accuracy    <       0.00006795 Ry

     total magnetization       =    -0.00 Bohr mag/cell
     absolute magnetization    =    49.81 Bohr mag/cell

     iteration # 27     ecut=    71.00 Ry     beta= 0.10
     Davidson diagonalization with overlap
     ethr =  6.74E-09,  avg # of iterations =  1.0

     total cpu time spent up to now is     9220.2 secs

     total energy              =  -10536.25026337 Ry
     Harris-Foulkes estimate   =  -10536.25026062 Ry
     estimated scf accuracy    <       0.00001257 Ry

     total magnetization       =    -0.00 Bohr mag/cell
     absolute magnetization    =    49.85 Bohr mag/cell

     iteration # 28     ecut=    71.00 Ry     beta= 0.10
     Davidson diagonalization with overlap
     ethr =  2.45E-09,  avg # of iterations =  2.1

     total cpu time spent up to now is     9528.0 secs

     total energy              =  -10536.25026759 Ry
     Harris-Foulkes estimate   =  -10536.25026394 Ry
     estimated scf accuracy    <       0.00001522 Ry

     total magnetization       =    -0.00 Bohr mag/cell
     absolute magnetization    =    49.86 Bohr mag/cell

     iteration # 29     ecut=    71.00 Ry     beta= 0.10
     Davidson diagonalization with overlap
     ethr =  2.45E-09,  avg # of iterations =  2.9

     total cpu time spent up to now is     9905.8 secs

     total energy              =  -10536.25027242 Ry
     Harris-Foulkes estimate   =  -10536.25026950 Ry
     estimated scf accuracy    <       0.00000742 Ry

     total magnetization       =    -0.00 Bohr mag/cell
     absolute magnetization    =    49.90 Bohr mag/cell

     iteration # 30     ecut=    71.00 Ry     beta= 0.10
     Davidson diagonalization with overlap
     ethr =  1.45E-09,  avg # of iterations =  2.5

     total cpu time spent up to now is    10252.2 secs

     total energy              =  -10536.25027425 Ry
     Harris-Foulkes estimate   =  -10536.25027338 Ry
     estimated scf accuracy    <       0.00000323 Ry

     total magnetization       =    -0.00 Bohr mag/cell
     absolute magnetization    =    49.92 Bohr mag/cell

     iteration # 31     ecut=    71.00 Ry     beta= 0.10
     Davidson diagonalization with overlap
     ethr =  6.30E-10,  avg # of iterations =  2.7

     total cpu time spent up to now is    10608.9 secs

     total energy              =  -10536.25027511 Ry
     Harris-Foulkes estimate   =  -10536.25027472 Ry
     estimated scf accuracy    <       0.00000316 Ry

     total magnetization       =    -0.00 Bohr mag/cell
     absolute magnetization    =    49.94 Bohr mag/cell

     iteration # 32     ecut=    71.00 Ry     beta= 0.10
     Davidson diagonalization with overlap
     ethr =  6.17E-10,  avg # of iterations =  1.0

     total cpu time spent up to now is    10838.7 secs

     total energy              =  -10536.25027563 Ry
     Harris-Foulkes estimate   =  -10536.25027522 Ry
     estimated scf accuracy    <       0.00000133 Ry

     total magnetization       =    -0.00 Bohr mag/cell
     absolute magnetization    =    49.94 Bohr mag/cell

     iteration # 33     ecut=    71.00 Ry     beta= 0.10
     Davidson diagonalization with overlap
     ethr =  2.60E-10,  avg # of iterations =  2.6

     total cpu time spent up to now is    11185.1 secs

     total energy              =  -10536.25027595 Ry
     Harris-Foulkes estimate   =  -10536.25027582 Ry
     estimated scf accuracy    <       0.00000156 Ry

     total magnetization       =    -0.00 Bohr mag/cell
     absolute magnetization    =    49.95 Bohr mag/cell

     iteration # 34     ecut=    71.00 Ry     beta= 0.10
     Davidson diagonalization with overlap
     ethr =  2.60E-10,  avg # of iterations =  1.8
 
     Magnetic moment per site:
     atom:    1    charge:   14.3813    magn:    1.5022    constr:    0.0000
     atom:    2    charge:   14.3812    magn:   -1.5024    constr:    0.0000
     atom:    3    charge:   14.3807    magn:    1.5048    constr:    0.0000
     atom:    4    charge:   14.3814    magn:   -1.5060    constr:    0.0000
     atom:    5    charge:   14.3814    magn:    1.5029    constr:    0.0000
     atom:    6    charge:   14.3813    magn:   -1.5018    constr:    0.0000
     atom:    7    charge:   14.3807    magn:    1.5048    constr:    0.0000
     atom:    8    charge:   14.3814    magn:   -1.5060    constr:    0.0000
     atom:    9    charge:   14.3808    magn:    1.5031    constr:    0.0000
     atom:   10    charge:   14.3812    magn:   -1.5024    constr:    0.0000
     atom:   11    charge:   14.3807    magn:    1.5043    constr:    0.0000
     atom:   12    charge:   14.3814    magn:   -1.5060    constr:    0.0000
     atom:   13    charge:   14.3809    magn:    1.5036    constr:    0.0000
     atom:   14    charge:   14.3813    magn:   -1.5018    constr:    0.0000
     atom:   15    charge:   14.3807    magn:    1.5043    constr:    0.0000
     atom:   16    charge:   14.3814    magn:   -1.5060    constr:    0.0000
     atom:   17    charge:   14.3811    magn:    1.5034    constr:    0.0000
     atom:   18    charge:   14.3812    magn:   -1.5024    constr:    0.0000
     atom:   19    charge:   14.3807    magn:    1.5048    constr:    0.0000
     atom:   20    charge:   14.3814    magn:   -1.5052    constr:    0.0000
     atom:   21    charge:   14.3811    magn:    1.5037    constr:    0.0000
     atom:   22    charge:   14.3813    magn:   -1.5018    constr:    0.0000
     atom:   23    charge:   14.3807    magn:    1.5048    constr:    0.0000
     atom:   24    charge:   14.3814    magn:   -1.5052    constr:    0.0000
     atom:   25    charge:   14.3807    magn:    1.5026    constr:    0.0000
     atom:   26    charge:   14.3812    magn:   -1.5024    constr:    0.0000
     atom:   27    charge:   14.3807    magn:    1.5043    constr:    0.0000
     atom:   28    charge:   14.3814    magn:   -1.5052    constr:    0.0000
     atom:   29    charge:   14.3809    magn:    1.5026    constr:    0.0000
     atom:   30    charge:   14.3813    magn:   -1.5018    constr:    0.0000
     atom:   31    charge:   14.3807    magn:    1.5043    constr:    0.0000
     atom:   32    charge:   14.3814    magn:   -1.5052    constr:    0.0000

     total cpu time spent up to now is    11471.5 secs

     End of self-consistent calculation

     Number of k-points >= 100: set verbosity='high' to print the bands.

     the Fermi energy is    20.1179 ev

!    total energy              =  -10536.25027606 Ry
     Harris-Foulkes estimate   =  -10536.25027610 Ry
     estimated scf accuracy    <       0.00000096 Ry

     total all-electron energy =    -81457.739334 Ry

     The total energy is the sum of the following terms:

     one-electron contribution =   -3292.52101973 Ry
     hartree contribution      =    1996.61513386 Ry
     xc contribution           =    -886.99328113 Ry
     ewald contribution        =   -5703.80999638 Ry
     one-center paw contrib.   =   -2649.55956364 Ry
     smearing contrib. (-TS)   =       0.01845097 Ry

     total magnetization       =    -0.00 Bohr mag/cell
     absolute magnetization    =    49.95 Bohr mag/cell

     convergence has been achieved in  34 iterations

     Forces acting on atoms (cartesian axes, Ry/au):

     atom    1 type  1   force =     0.00000000    0.00000000    0.00000000
     atom    2 type  2   force =     0.00007350    0.00001235    0.00000000
     atom    3 type  3   force =     0.00013507    0.00000000    0.00009279
     atom    4 type  4   force =     0.00000000   -0.00008500   -0.00013296
     atom    5 type  1   force =     0.00000000    0.00000000    0.00000000
     atom    6 type  2   force =     0.00004036   -0.00012461    0.00000000
     atom    7 type  3   force =     0.00013507   -0.00000000   -0.00009279
     atom    8 type  4   force =     0.00000000   -0.00008500    0.00013296
     atom    9 type  1   force =     0.00000000    0.00000000    0.00000000
     atom   10 type  2   force =     0.00007350   -0.00001235    0.00000000
     atom   11 type  3   force =    -0.00001018    0.00000000   -0.00002015
     atom   12 type  4   force =     0.00000000    0.00008500   -0.00013296
     atom   13 type  1   force =     0.00000000    0.00000000    0.00000000
     atom   14 type  2   force =     0.00004036    0.00012461    0.00000000
     atom   15 type  3   force =    -0.00001018    0.00000000    0.00002015
     atom   16 type  4   force =     0.00000000    0.00008500    0.00013296
     atom   17 type  1   force =     0.00000000    0.00000000    0.00000000
     atom   18 type  2   force =    -0.00007350    0.00001235    0.00000000
     atom   19 type  3   force =    -0.00013507   -0.00000000    0.00009279
     atom   20 type  4   force =     0.00000000    0.00006792   -0.00009367
     atom   21 type  1   force =     0.00000000    0.00000000    0.00000000
     atom   22 type  2   force =    -0.00004036   -0.00012461    0.00000000
     atom   23 type  3   force =    -0.00013507    0.00000000   -0.00009279
     atom   24 type  4   force =     0.00000000    0.00006792    0.00009367
     atom   25 type  1   force =     0.00000000    0.00000000    0.00000000
     atom   26 type  2   force =    -0.00007350   -0.00001235    0.00000000
     atom   27 type  3   force =     0.00001018    0.00000000   -0.00002015
     atom   28 type  4   force =     0.00000000   -0.00006792   -0.00009367
     atom   29 type  1   force =     0.00000000    0.00000000    0.00000000
     atom   30 type  2   force =    -0.00004036    0.00012461    0.00000000
     atom   31 type  3   force =     0.00001018    0.00000000    0.00002015
     atom   32 type  4   force =     0.00000000   -0.00006792    0.00009367

     Total force =     0.000595     Total SCF correction =     0.004185
     SCF correction compared to forces is large: reduce conv_thr to get better values


     Computing stress (Cartesian axis) and pressure

          total   stress  (Ry/bohr**3)                   (kbar)     P=    1.96
   0.00002562   0.00000000   0.00000000          3.77      0.00      0.00
   0.00000000  -0.00003858   0.00000000          0.00     -5.68      0.00
   0.00000000   0.00000000   0.00005303          0.00      0.00      7.80


     Writing output data file RdEGGJpRLfdytejt.save/
-------------------------------------------------------
Primary job  terminated normally, but 1 process returned
a non-zero exit code.. Per user-direction, the job has been aborted.
-------------------------------------------------------
--------------------------------------------------------------------------
mpirun detected that one or more processes exited with non-zero status, thus causing
the job to be terminated. The first process to do so was:

  Process name: [[31953,1],0]
  Exit code:    38
--------------------------------------------------------------------------
