--------------------------------------------------------------------------
WARNING: No preset parameters were found for the device that Open MPI
detected:

  Local host:            bear-pg0206u20a
  Device name:           mlx5_0
  Device vendor ID:      0x02c9
  Device vendor part ID: 4123

Default device parameters will be used, which may result in lower
performance.  You can edit any of the files specified by the
btl_openib_device_param_files MCA parameter to set values for your
device.

NOTE: You can turn off this warning by setting the MCA parameter
      btl_openib_warn_no_device_params_found to 0.
--------------------------------------------------------------------------
--------------------------------------------------------------------------
WARNING: There was an error initializing an OpenFabrics device.

  Local host:   bear-pg0206u20a
  Local device: mlx5_0
--------------------------------------------------------------------------

     Program PWSCF v.6.3 starts on 21Oct2020 at  9:21:32 

     This program is part of the open-source Quantum ESPRESSO suite
     for quantum simulation of materials; please cite
         "P. Giannozzi et al., J. Phys.:Condens. Matter 21 395502 (2009);
         "P. Giannozzi et al., J. Phys.:Condens. Matter 29 465901 (2017);
          URL http://www.quantum-espresso.org", 
     in publications or presentations arising from this work. More details at
     http://www.quantum-espresso.org/quote

     Parallel version (MPI & OpenMP), running on      40 processor cores
     Number of MPI processes:                40
     Threads/MPI process:                     1

     MPI processes distributed on     1 nodes
     R & G space division:  proc/nbgrp/npool/nimage =      40
     Reading input from wd/ec/ec_9_002.in
Warning: card &IONS ignored
Warning: card ION_DYNAMICS = 'BFGS', ignored
Warning: card / ignored
Warning: card &CELL ignored
Warning: card CELL_DYNAMICS = 'BFGS', ignored
Warning: card CELL_FACTOR = 2.0, ignored
Warning: card PRESS = 0.0, ignored
Warning: card / ignored

     Current dimensions of program PWSCF are:
     Max number of different atomic species (ntypx) = 10
     Max number of k-points (npk) =  40000
     Max angular momentum in pseudopotentials (lmaxx) =  3
               file Fe.pbe-spn-kjpaw_psl.1.0.0.UPF: wavefunction(s)  3P 3D renormalized
               file Fe.pbe-spn-kjpaw_psl.1.0.0.UPF: wavefunction(s)  3P 3D renormalized
               file Fe.pbe-spn-kjpaw_psl.1.0.0.UPF: wavefunction(s)  3P 3D renormalized
               file Fe.pbe-spn-kjpaw_psl.1.0.0.UPF: wavefunction(s)  3P 3D renormalized

     Subspace diagonalization in iterative solution of the eigenvalue problem:
     a serial algorithm will be used

     Found symmetry operation: I + (  0.0000  0.0000  0.5000)
     This is a supercell, fractional translations are disabled
 
     Parallelization info
     --------------------
     sticks:   dense  smooth     PW     G-vecs:    dense   smooth      PW
     Min         151     100     27                 8597     4616     663
     Max         152     101     28                 8600     4620     668
     Sum        6047    4001   1103               343939   184713   26599
 


     bravais-lattice index     =            0
     lattice parameter (alat)  =      12.9382  a.u.
     unit-cell volume          =    2283.7593 (a.u.)^3
     number of atoms/cell      =           32
     number of atomic types    =            4
     number of electrons       =       512.00
     number of Kohn-Sham states=          307
     kinetic-energy cutoff     =      71.0000  Ry
     charge density cutoff     =     430.0000  Ry
     convergence threshold     =      1.0E-06
     mixing beta               =       0.1000
     number of iterations used =           10  plain     mixing
     Exchange-correlation      = SLA PW PBX PBC ( 1  4  3  4 0 0)

     celldm(1)=  12.938187  celldm(2)=   0.000000  celldm(3)=   0.000000
     celldm(4)=   0.000000  celldm(5)=   0.000000  celldm(6)=   0.000000

     crystal axes: (cart. coord. in units of alat)
               a(1) = (   1.000001   0.000000   0.000000 )  
               a(2) = (   0.000000   1.056232   0.000000 )  
               a(3) = (   0.000000   0.000000   0.998321 )  

     reciprocal axes: (cart. coord. in units 2 pi/alat)
               b(1) = (  0.999999  0.000000  0.000000 )  
               b(2) = (  0.000000  0.946762  0.000000 )  
               b(3) = (  0.000000  0.000000  1.001682 )  


     PseudoPot. # 1 for Fe read from file:
     /rds/homes/b/bxp912/pp/Fe.pbe-spn-kjpaw_psl.1.0.0.UPF
     MD5 check sum: 42f43b795421b414b0dc916aa790dbcb
     Pseudo is Projector augmented-wave + core cor, Zval = 16.0
     Generated using "atomic" code by A. Dal Corso v.6.3
     Shape of augmentation charge: PSQ
     Using radial grid of 1191 points,  6 beta functions with: 
                l(1) =   0
                l(2) =   0
                l(3) =   1
                l(4) =   1
                l(5) =   2
                l(6) =   2
     Q(r) pseudized with 0 coefficients 


     PseudoPot. # 2 for Fe read from file:
     /rds/homes/b/bxp912/pp/Fe.pbe-spn-kjpaw_psl.1.0.0.UPF
     MD5 check sum: 42f43b795421b414b0dc916aa790dbcb
     Pseudo is Projector augmented-wave + core cor, Zval = 16.0
     Generated using "atomic" code by A. Dal Corso v.6.3
     Shape of augmentation charge: PSQ
     Using radial grid of 1191 points,  6 beta functions with: 
                l(1) =   0
                l(2) =   0
                l(3) =   1
                l(4) =   1
                l(5) =   2
                l(6) =   2
     Q(r) pseudized with 0 coefficients 


     PseudoPot. # 3 for Fe read from file:
     /rds/homes/b/bxp912/pp/Fe.pbe-spn-kjpaw_psl.1.0.0.UPF
     MD5 check sum: 42f43b795421b414b0dc916aa790dbcb
     Pseudo is Projector augmented-wave + core cor, Zval = 16.0
     Generated using "atomic" code by A. Dal Corso v.6.3
     Shape of augmentation charge: PSQ
     Using radial grid of 1191 points,  6 beta functions with: 
                l(1) =   0
                l(2) =   0
                l(3) =   1
                l(4) =   1
                l(5) =   2
                l(6) =   2
     Q(r) pseudized with 0 coefficients 


     PseudoPot. # 4 for Fe read from file:
     /rds/homes/b/bxp912/pp/Fe.pbe-spn-kjpaw_psl.1.0.0.UPF
     MD5 check sum: 42f43b795421b414b0dc916aa790dbcb
     Pseudo is Projector augmented-wave + core cor, Zval = 16.0
     Generated using "atomic" code by A. Dal Corso v.6.3
     Shape of augmentation charge: PSQ
     Using radial grid of 1191 points,  6 beta functions with: 
                l(1) =   0
                l(2) =   0
                l(3) =   1
                l(4) =   1
                l(5) =   2
                l(6) =   2
     Q(r) pseudized with 0 coefficients 


     atomic species   valence    mass     pseudopotential
        Fe1           16.00    55.84500     Fe( 1.00)
        Fe2           16.00    55.84500     Fe( 1.00)
        Fe3           16.00    55.84500     Fe( 1.00)
        Fe4           16.00    55.84500     Fe( 1.00)

     Starting magnetic structure 
     atomic species   magnetization
        Fe1          0.100
        Fe2         -0.100
        Fe3          0.100
        Fe4         -0.100

      8 Sym. Ops., with inversion, found



   Cartesian axes

     site n.     atom                  positions (alat units)
         1           Fe1 tau(   1) = (   0.0000000   0.0000000   0.0000000  )
         2           Fe2 tau(   2) = (   0.2499971   0.2640607   0.0000000  )
         3           Fe3 tau(   3) = (   0.2499984   0.0000000   0.2495783  )
         4           Fe4 tau(   4) = (   0.0000000   0.2640593   0.2495843  )
         5           Fe1 tau(   5) = (   0.0000000   0.0000000   0.4991606  )
         6           Fe2 tau(   6) = (   0.2499999   0.2640635   0.4991606  )
         7           Fe3 tau(   7) = (   0.2499984   0.0000000   0.7487419  )
         8           Fe4 tau(   8) = (   0.0000000   0.2640593   0.7487359  )
         9           Fe1 tau(   9) = (   0.0000000   0.5281162   0.0000000  )
        10           Fe2 tau(  10) = (   0.2499971   0.7921717   0.0000000  )
        11           Fe3 tau(  11) = (   0.2500006   0.5281162   0.2495823  )
        12           Fe4 tau(  12) = (   0.0000000   0.7921731   0.2495843  )
        13           Fe1 tau(  13) = (   0.0000000   0.5281162   0.4991606  )
        14           Fe2 tau(  14) = (   0.2499999   0.7921689   0.4991606  )
        15           Fe3 tau(  15) = (   0.2500006   0.5281162   0.7487389  )
        16           Fe4 tau(  16) = (   0.0000000   0.7921731   0.7487359  )
        17           Fe1 tau(  17) = (   0.5000003   0.0000000   0.0000000  )
        18           Fe2 tau(  18) = (   0.7500033   0.2640607   0.0000000  )
        19           Fe3 tau(  19) = (   0.7500021   0.0000000   0.2495783  )
        20           Fe4 tau(  20) = (   0.5000003   0.2640583   0.2495823  )
        21           Fe1 tau(  21) = (   0.5000003   0.0000000   0.4991606  )
        22           Fe2 tau(  22) = (   0.7500005   0.2640635   0.4991606  )
        23           Fe3 tau(  23) = (   0.7500021   0.0000000   0.7487419  )
        24           Fe4 tau(  24) = (   0.5000003   0.2640583   0.7487379  )
        25           Fe1 tau(  25) = (   0.5000003   0.5281162   0.0000000  )
        26           Fe2 tau(  26) = (   0.7500033   0.7921717   0.0000000  )
        27           Fe3 tau(  27) = (   0.7499999   0.5281162   0.2495823  )
        28           Fe4 tau(  28) = (   0.5000003   0.7921741   0.2495823  )
        29           Fe1 tau(  29) = (   0.5000003   0.5281162   0.4991606  )
        30           Fe2 tau(  30) = (   0.7500005   0.7921689   0.4991606  )
        31           Fe3 tau(  31) = (   0.7499999   0.5281162   0.7487389  )
        32           Fe4 tau(  32) = (   0.5000003   0.7921741   0.7487379  )

     number of k points=   125  Marzari-Vanderbilt smearing, width (Ry)=  0.0400

     Number of k-points >= 100: set verbosity='high' to print them.

     Dense  grid:   343939 G-vectors     FFT dimensions: (  90,  96,  90)

     Smooth grid:   184713 G-vectors     FFT dimensions: (  72,  75,  72)

     Estimated max dynamical RAM per process >     810.90 MB

     Estimated total dynamical RAM >      31.68 GB
     Generating pointlists ...
     new r_m :   0.1457 (alat units)  1.8853 (a.u.) for type    1
     new r_m :   0.1457 (alat units)  1.8853 (a.u.) for type    2
     new r_m :   0.1457 (alat units)  1.8853 (a.u.) for type    3
     new r_m :   0.1457 (alat units)  1.8853 (a.u.) for type    4

     Check: negative/imaginary core charge=   -0.000006    0.000000

     Initial potential from superposition of free atoms

     starting charge  511.98600, renormalised to  512.00000
     Starting wfcs are  320 randomized atomic wfcs
     Checking if some PAW data can be deallocated... 

     total cpu time spent up to now is       84.5 secs

     Self-consistent Calculation

     iteration #  1     ecut=    71.00 Ry     beta= 0.10
     Davidson diagonalization with overlap
     ethr =  1.00E-02,  avg # of iterations =  3.5

     Threshold (ethr) on eigenvalues was too large:
     Diagonalizing with lowered threshold

     Davidson diagonalization with overlap
     ethr =  3.18E-04,  avg # of iterations =  4.0

     total cpu time spent up to now is     1033.6 secs

     total energy              =  -10536.43122702 Ry
     Harris-Foulkes estimate   =  -10536.77240514 Ry
     estimated scf accuracy    <       1.88135644 Ry

     total magnetization       =     0.23 Bohr mag/cell
     absolute magnetization    =    44.29 Bohr mag/cell

     iteration #  2     ecut=    71.00 Ry     beta= 0.10
     Davidson diagonalization with overlap
     ethr =  3.67E-04,  avg # of iterations =  1.0

     total cpu time spent up to now is     1260.3 secs

     total energy              =  -10536.21095494 Ry
     Harris-Foulkes estimate   =  -10536.47671075 Ry
     estimated scf accuracy    <       1.11446478 Ry

     total magnetization       =    -0.11 Bohr mag/cell
     absolute magnetization    =    45.01 Bohr mag/cell

     iteration #  3     ecut=    71.00 Ry     beta= 0.10
     Davidson diagonalization with overlap
     ethr =  2.18E-04,  avg # of iterations =  2.3

     total cpu time spent up to now is     1584.7 secs

     total energy              =  -10536.07772740 Ry
     Harris-Foulkes estimate   =  -10536.35093748 Ry
     estimated scf accuracy    <       2.72389582 Ry

     total magnetization       =     0.23 Bohr mag/cell
     absolute magnetization    =    45.38 Bohr mag/cell

     iteration #  4     ecut=    71.00 Ry     beta= 0.10
     Davidson diagonalization with overlap
     ethr =  2.18E-04,  avg # of iterations =  2.4

     total cpu time spent up to now is     1907.2 secs

     total energy              =  -10536.17986434 Ry
     Harris-Foulkes estimate   =  -10536.21108723 Ry
     estimated scf accuracy    <       0.51521733 Ry

     total magnetization       =     0.34 Bohr mag/cell
     absolute magnetization    =    46.41 Bohr mag/cell

     iteration #  5     ecut=    71.00 Ry     beta= 0.10
     Davidson diagonalization with overlap
     ethr =  1.01E-04,  avg # of iterations =  1.3

     total cpu time spent up to now is     2154.8 secs

     total energy              =  -10536.19053304 Ry
     Harris-Foulkes estimate   =  -10536.19928863 Ry
     estimated scf accuracy    <       0.08367892 Ry

     total magnetization       =     0.02 Bohr mag/cell
     absolute magnetization    =    46.55 Bohr mag/cell

     iteration #  6     ecut=    71.00 Ry     beta= 0.10
     Davidson diagonalization with overlap
     ethr =  1.63E-05,  avg # of iterations =  3.5

     total cpu time spent up to now is     2552.4 secs

     total energy              =  -10536.18208984 Ry
     Harris-Foulkes estimate   =  -10536.19401248 Ry
     estimated scf accuracy    <       0.06875739 Ry

     total magnetization       =    -0.10 Bohr mag/cell
     absolute magnetization    =    46.51 Bohr mag/cell

     iteration #  7     ecut=    71.00 Ry     beta= 0.10
     Davidson diagonalization with overlap
     ethr =  1.34E-05,  avg # of iterations =  3.7

     total cpu time spent up to now is     3109.4 secs

     total energy              =  -10536.19864395 Ry
     Harris-Foulkes estimate   =  -10536.20246588 Ry
     estimated scf accuracy    <       0.09281757 Ry

     total magnetization       =     0.05 Bohr mag/cell
     absolute magnetization    =    46.68 Bohr mag/cell

     iteration #  8     ecut=    71.00 Ry     beta= 0.10
     Davidson diagonalization with overlap
     ethr =  1.34E-05,  avg # of iterations =  2.1

     total cpu time spent up to now is     3420.9 secs

     total energy              =  -10536.20038393 Ry
     Harris-Foulkes estimate   =  -10536.20258083 Ry
     estimated scf accuracy    <       0.06734090 Ry

     total magnetization       =     0.05 Bohr mag/cell
     absolute magnetization    =    46.95 Bohr mag/cell

     iteration #  9     ecut=    71.00 Ry     beta= 0.10
     Davidson diagonalization with overlap
     ethr =  1.32E-05,  avg # of iterations =  1.0

     total cpu time spent up to now is     3649.7 secs

     total energy              =  -10536.21131013 Ry
     Harris-Foulkes estimate   =  -10536.20159785 Ry
     estimated scf accuracy    <       0.03807180 Ry

     total magnetization       =     0.01 Bohr mag/cell
     absolute magnetization    =    47.07 Bohr mag/cell

     iteration # 10     ecut=    71.00 Ry     beta= 0.10
     Davidson diagonalization with overlap
     ethr =  7.44E-06,  avg # of iterations =  2.6

     total cpu time spent up to now is     3998.6 secs

     total energy              =  -10536.23486886 Ry
     Harris-Foulkes estimate   =  -10536.21390946 Ry
     estimated scf accuracy    <       0.03188029 Ry

     total magnetization       =    -0.08 Bohr mag/cell
     absolute magnetization    =    47.39 Bohr mag/cell

     iteration # 11     ecut=    71.00 Ry     beta= 0.10
     Davidson diagonalization with overlap
     ethr =  6.23E-06,  avg # of iterations =  3.8

     total cpu time spent up to now is     4546.0 secs

     total energy              =  -10536.24744898 Ry
     Harris-Foulkes estimate   =  -10536.24553155 Ry
     estimated scf accuracy    <       0.02638695 Ry

     total magnetization       =    -0.11 Bohr mag/cell
     absolute magnetization    =    48.18 Bohr mag/cell

     iteration # 12     ecut=    71.00 Ry     beta= 0.10
     Davidson diagonalization with overlap
     ethr =  5.15E-06,  avg # of iterations =  1.5

     total cpu time spent up to now is     4811.5 secs

     total energy              =  -10536.24884134 Ry
     Harris-Foulkes estimate   =  -10536.24896478 Ry
     estimated scf accuracy    <       0.00664121 Ry

     total magnetization       =    -0.03 Bohr mag/cell
     absolute magnetization    =    48.46 Bohr mag/cell

     iteration # 13     ecut=    71.00 Ry     beta= 0.10
     Davidson diagonalization with overlap
     ethr =  1.30E-06,  avg # of iterations =  3.2

     total cpu time spent up to now is     5236.6 secs

     total energy              =  -10536.24945470 Ry
     Harris-Foulkes estimate   =  -10536.24948035 Ry
     estimated scf accuracy    <       0.00152594 Ry

     total magnetization       =    -0.01 Bohr mag/cell
     absolute magnetization    =    48.60 Bohr mag/cell

     iteration # 14     ecut=    71.00 Ry     beta= 0.10
     Davidson diagonalization with overlap
     ethr =  2.98E-07,  avg # of iterations =  1.6

     total cpu time spent up to now is     5502.2 secs

     total energy              =  -10536.24961089 Ry
     Harris-Foulkes estimate   =  -10536.24952175 Ry
     estimated scf accuracy    <       0.00103033 Ry

     total magnetization       =    -0.01 Bohr mag/cell
     absolute magnetization    =    48.67 Bohr mag/cell

     iteration # 15     ecut=    71.00 Ry     beta= 0.10
     Davidson diagonalization with overlap
     ethr =  2.01E-07,  avg # of iterations =  1.3

     total cpu time spent up to now is     5748.6 secs

     total energy              =  -10536.24978583 Ry
     Harris-Foulkes estimate   =  -10536.24966074 Ry
     estimated scf accuracy    <       0.00140766 Ry

     total magnetization       =    -0.00 Bohr mag/cell
     absolute magnetization    =    48.74 Bohr mag/cell

     iteration # 16     ecut=    71.00 Ry     beta= 0.10
     Davidson diagonalization with overlap
     ethr =  2.01E-07,  avg # of iterations =  1.4

     total cpu time spent up to now is     6006.7 secs

     total energy              =  -10536.24983990 Ry
     Harris-Foulkes estimate   =  -10536.24986050 Ry
     estimated scf accuracy    <       0.00076605 Ry

     total magnetization       =     0.00 Bohr mag/cell
     absolute magnetization    =    48.85 Bohr mag/cell

     iteration # 17     ecut=    71.00 Ry     beta= 0.10
     Davidson diagonalization with overlap
     ethr =  1.50E-07,  avg # of iterations =  1.1

     total cpu time spent up to now is     6248.3 secs

     total energy              =  -10536.24999224 Ry
     Harris-Foulkes estimate   =  -10536.24987778 Ry
     estimated scf accuracy    <       0.00058504 Ry

     total magnetization       =    -0.03 Bohr mag/cell
     absolute magnetization    =    48.87 Bohr mag/cell

     iteration # 18     ecut=    71.00 Ry     beta= 0.10
     Davidson diagonalization with overlap
     ethr =  1.14E-07,  avg # of iterations =  1.1

     total cpu time spent up to now is     6489.6 secs

     total energy              =  -10536.25013793 Ry
     Harris-Foulkes estimate   =  -10536.25001805 Ry
     estimated scf accuracy    <       0.00037225 Ry

     total magnetization       =    -0.00 Bohr mag/cell
     absolute magnetization    =    48.95 Bohr mag/cell

     iteration # 19     ecut=    71.00 Ry     beta= 0.10
     Davidson diagonalization with overlap
     ethr =  7.27E-08,  avg # of iterations =  2.9

     total cpu time spent up to now is     6855.5 secs

     total energy              =  -10536.25031310 Ry
     Harris-Foulkes estimate   =  -10536.25016456 Ry
     estimated scf accuracy    <       0.00030796 Ry

     total magnetization       =    -0.01 Bohr mag/cell
     absolute magnetization    =    49.05 Bohr mag/cell

     iteration # 20     ecut=    71.00 Ry     beta= 0.10
     Davidson diagonalization with overlap
     ethr =  6.01E-08,  avg # of iterations =  3.1

     total cpu time spent up to now is     7261.6 secs

     total energy              =  -10536.25041869 Ry
     Harris-Foulkes estimate   =  -10536.25040148 Ry
     estimated scf accuracy    <       0.00025614 Ry

     total magnetization       =    -0.01 Bohr mag/cell
     absolute magnetization    =    49.28 Bohr mag/cell

     iteration # 21     ecut=    71.00 Ry     beta= 0.10
     Davidson diagonalization with overlap
     ethr =  5.00E-08,  avg # of iterations =  1.0

     total cpu time spent up to now is     7493.8 secs

     total energy              =  -10536.25045098 Ry
     Harris-Foulkes estimate   =  -10536.25042955 Ry
     estimated scf accuracy    <       0.00014165 Ry

     total magnetization       =    -0.01 Bohr mag/cell
     absolute magnetization    =    49.31 Bohr mag/cell

     iteration # 22     ecut=    71.00 Ry     beta= 0.10
     Davidson diagonalization with overlap
     ethr =  2.77E-08,  avg # of iterations =  1.2

     total cpu time spent up to now is     7733.8 secs

     total energy              =  -10536.25047016 Ry
     Harris-Foulkes estimate   =  -10536.25045926 Ry
     estimated scf accuracy    <       0.00010649 Ry

     total magnetization       =    -0.00 Bohr mag/cell
     absolute magnetization    =    49.37 Bohr mag/cell

     iteration # 23     ecut=    71.00 Ry     beta= 0.10
     Davidson diagonalization with overlap
     ethr =  2.08E-08,  avg # of iterations =  1.1

     total cpu time spent up to now is     7974.0 secs

     total energy              =  -10536.25048653 Ry
     Harris-Foulkes estimate   =  -10536.25047345 Ry
     estimated scf accuracy    <       0.00008492 Ry

     total magnetization       =    -0.00 Bohr mag/cell
     absolute magnetization    =    49.40 Bohr mag/cell

     iteration # 24     ecut=    71.00 Ry     beta= 0.10
     Davidson diagonalization with overlap
     ethr =  1.66E-08,  avg # of iterations =  2.6

     total cpu time spent up to now is     8324.7 secs

     total energy              =  -10536.25049910 Ry
     Harris-Foulkes estimate   =  -10536.25049423 Ry
     estimated scf accuracy    <       0.00008067 Ry

     total magnetization       =    -0.01 Bohr mag/cell
     absolute magnetization    =    49.46 Bohr mag/cell

     iteration # 25     ecut=    71.00 Ry     beta= 0.10
     Davidson diagonalization with overlap
     ethr =  1.58E-08,  avg # of iterations =  2.5

     total cpu time spent up to now is     8671.4 secs

     total energy              =  -10536.25051666 Ry
     Harris-Foulkes estimate   =  -10536.25051434 Ry
     estimated scf accuracy    <       0.00004462 Ry

     total magnetization       =    -0.00 Bohr mag/cell
     absolute magnetization    =    49.56 Bohr mag/cell

     iteration # 26     ecut=    71.00 Ry     beta= 0.10
     Davidson diagonalization with overlap
     ethr =  8.71E-09,  avg # of iterations =  3.0

     total cpu time spent up to now is     9055.6 secs

     total energy              =  -10536.25052466 Ry
     Harris-Foulkes estimate   =  -10536.25052313 Ry
     estimated scf accuracy    <       0.00001593 Ry

     total magnetization       =    -0.00 Bohr mag/cell
     absolute magnetization    =    49.62 Bohr mag/cell

     iteration # 27     ecut=    71.00 Ry     beta= 0.10
     Davidson diagonalization with overlap
     ethr =  3.11E-09,  avg # of iterations =  1.7

     total cpu time spent up to now is     9334.2 secs

     total energy              =  -10536.25052812 Ry
     Harris-Foulkes estimate   =  -10536.25052519 Ry
     estimated scf accuracy    <       0.00001447 Ry

     total magnetization       =    -0.00 Bohr mag/cell
     absolute magnetization    =    49.64 Bohr mag/cell

     iteration # 28     ecut=    71.00 Ry     beta= 0.10
     Davidson diagonalization with overlap
     ethr =  2.83E-09,  avg # of iterations =  1.0

     total cpu time spent up to now is     9567.8 secs

     total energy              =  -10536.25053226 Ry
     Harris-Foulkes estimate   =  -10536.25052867 Ry
     estimated scf accuracy    <       0.00001173 Ry

     total magnetization       =    -0.00 Bohr mag/cell
     absolute magnetization    =    49.65 Bohr mag/cell

     iteration # 29     ecut=    71.00 Ry     beta= 0.10
     Davidson diagonalization with overlap
     ethr =  2.29E-09,  avg # of iterations =  1.6

     total cpu time spent up to now is     9844.1 secs

     total energy              =  -10536.25053627 Ry
     Harris-Foulkes estimate   =  -10536.25053314 Ry
     estimated scf accuracy    <       0.00001597 Ry

     total magnetization       =    -0.00 Bohr mag/cell
     absolute magnetization    =    49.67 Bohr mag/cell

     iteration # 30     ecut=    71.00 Ry     beta= 0.10
     Davidson diagonalization with overlap
     ethr =  2.29E-09,  avg # of iterations =  2.1

     total cpu time spent up to now is    10153.7 secs

     total energy              =  -10536.25053896 Ry
     Harris-Foulkes estimate   =  -10536.25053721 Ry
     estimated scf accuracy    <       0.00000585 Ry

     total magnetization       =    -0.00 Bohr mag/cell
     absolute magnetization    =    49.68 Bohr mag/cell

     iteration # 31     ecut=    71.00 Ry     beta= 0.10
     Davidson diagonalization with overlap
     ethr =  1.14E-09,  avg # of iterations =  3.0

     total cpu time spent up to now is    10544.7 secs

     total energy              =  -10536.25054042 Ry
     Harris-Foulkes estimate   =  -10536.25053967 Ry
     estimated scf accuracy    <       0.00000456 Ry

     total magnetization       =    -0.00 Bohr mag/cell
     absolute magnetization    =    49.70 Bohr mag/cell

     iteration # 32     ecut=    71.00 Ry     beta= 0.10
     Davidson diagonalization with overlap
     ethr =  8.90E-10,  avg # of iterations =  1.2

     total cpu time spent up to now is    10790.0 secs

     total energy              =  -10536.25054105 Ry
     Harris-Foulkes estimate   =  -10536.25054060 Ry
     estimated scf accuracy    <       0.00000288 Ry

     total magnetization       =    -0.00 Bohr mag/cell
     absolute magnetization    =    49.71 Bohr mag/cell

     iteration # 33     ecut=    71.00 Ry     beta= 0.10
     Davidson diagonalization with overlap
     ethr =  5.63E-10,  avg # of iterations =  3.0

     total cpu time spent up to now is    11243.0 secs

     total energy              =  -10536.25054209 Ry
     Harris-Foulkes estimate   =  -10536.25054193 Ry
     estimated scf accuracy    <       0.00000108 Ry

     total magnetization       =    -0.00 Bohr mag/cell
     absolute magnetization    =    49.73 Bohr mag/cell

     iteration # 34     ecut=    71.00 Ry     beta= 0.10
     Davidson diagonalization with overlap
     ethr =  2.11E-10,  avg # of iterations =  1.0

     total cpu time spent up to now is    11474.6 secs

     total energy              =  -10536.25054228 Ry
     Harris-Foulkes estimate   =  -10536.25054214 Ry
     estimated scf accuracy    <       0.00000105 Ry

     total magnetization       =    -0.00 Bohr mag/cell
     absolute magnetization    =    49.73 Bohr mag/cell

     iteration # 35     ecut=    71.00 Ry     beta= 0.10
     Davidson diagonalization with overlap
     ethr =  2.05E-10,  avg # of iterations =  1.1
 
     Magnetic moment per site:
     atom:    1    charge:   14.3862    magn:    1.4962    constr:    0.0000
     atom:    2    charge:   14.3865    magn:   -1.4962    constr:    0.0000
     atom:    3    charge:   14.3860    magn:    1.4988    constr:    0.0000
     atom:    4    charge:   14.3864    magn:   -1.5001    constr:    0.0000
     atom:    5    charge:   14.3862    magn:    1.4970    constr:    0.0000
     atom:    6    charge:   14.3865    magn:   -1.4957    constr:    0.0000
     atom:    7    charge:   14.3860    magn:    1.4988    constr:    0.0000
     atom:    8    charge:   14.3864    magn:   -1.5001    constr:    0.0000
     atom:    9    charge:   14.3861    magn:    1.4970    constr:    0.0000
     atom:   10    charge:   14.3865    magn:   -1.4962    constr:    0.0000
     atom:   11    charge:   14.3859    magn:    1.4984    constr:    0.0000
     atom:   12    charge:   14.3864    magn:   -1.5001    constr:    0.0000
     atom:   13    charge:   14.3860    magn:    1.4975    constr:    0.0000
     atom:   14    charge:   14.3865    magn:   -1.4957    constr:    0.0000
     atom:   15    charge:   14.3859    magn:    1.4984    constr:    0.0000
     atom:   16    charge:   14.3864    magn:   -1.5001    constr:    0.0000
     atom:   17    charge:   14.3863    magn:    1.4973    constr:    0.0000
     atom:   18    charge:   14.3865    magn:   -1.4962    constr:    0.0000
     atom:   19    charge:   14.3860    magn:    1.4988    constr:    0.0000
     atom:   20    charge:   14.3864    magn:   -1.4993    constr:    0.0000
     atom:   21    charge:   14.3862    magn:    1.4977    constr:    0.0000
     atom:   22    charge:   14.3865    magn:   -1.4957    constr:    0.0000
     atom:   23    charge:   14.3860    magn:    1.4988    constr:    0.0000
     atom:   24    charge:   14.3864    magn:   -1.4993    constr:    0.0000
     atom:   25    charge:   14.3860    magn:    1.4964    constr:    0.0000
     atom:   26    charge:   14.3865    magn:   -1.4962    constr:    0.0000
     atom:   27    charge:   14.3859    magn:    1.4984    constr:    0.0000
     atom:   28    charge:   14.3864    magn:   -1.4993    constr:    0.0000
     atom:   29    charge:   14.3860    magn:    1.4965    constr:    0.0000
     atom:   30    charge:   14.3865    magn:   -1.4957    constr:    0.0000
     atom:   31    charge:   14.3859    magn:    1.4984    constr:    0.0000
     atom:   32    charge:   14.3864    magn:   -1.4993    constr:    0.0000

     total cpu time spent up to now is    11709.5 secs

     End of self-consistent calculation

     Number of k-points >= 100: set verbosity='high' to print the bands.

     the Fermi energy is    20.1180 ev

!    total energy              =  -10536.25054263 Ry
     Harris-Foulkes estimate   =  -10536.25054235 Ry
     estimated scf accuracy    <       0.00000065 Ry

     total all-electron energy =    -81457.739601 Ry

     The total energy is the sum of the following terms:

     one-electron contribution =   -3292.43289826 Ry
     hartree contribution      =    1996.54769027 Ry
     xc contribution           =    -886.97268027 Ry
     ewald contribution        =   -5703.84905297 Ry
     one-center paw contrib.   =   -2649.56007344 Ry
     smearing contrib. (-TS)   =       0.01647204 Ry

     total magnetization       =    -0.00 Bohr mag/cell
     absolute magnetization    =    49.74 Bohr mag/cell

     convergence has been achieved in  35 iterations

     Forces acting on atoms (cartesian axes, Ry/au):

     atom    1 type  1   force =     0.00000000    0.00000000    0.00000000
     atom    2 type  2   force =    -0.00001941    0.00005274    0.00000000
     atom    3 type  3   force =    -0.00002044    0.00000000   -0.00002151
     atom    4 type  4   force =     0.00000000    0.00005475    0.00001265
     atom    5 type  1   force =     0.00000000    0.00000000    0.00000000
     atom    6 type  2   force =    -0.00000070    0.00007948    0.00000000
     atom    7 type  3   force =    -0.00002044    0.00000000    0.00002151
     atom    8 type  4   force =     0.00000000    0.00005475   -0.00001265
     atom    9 type  1   force =     0.00000000    0.00000000    0.00000000
     atom   10 type  2   force =    -0.00001941   -0.00005274    0.00000000
     atom   11 type  3   force =     0.00003335   -0.00000000   -0.00000461
     atom   12 type  4   force =     0.00000000   -0.00005475    0.00001265
     atom   13 type  1   force =     0.00000000    0.00000000    0.00000000
     atom   14 type  2   force =    -0.00000070   -0.00007948    0.00000000
     atom   15 type  3   force =     0.00003335    0.00000000    0.00000461
     atom   16 type  4   force =     0.00000000   -0.00005475   -0.00001265
     atom   17 type  1   force =     0.00000000    0.00000000    0.00000000
     atom   18 type  2   force =     0.00001941    0.00005274    0.00000000
     atom   19 type  3   force =     0.00002044    0.00000000   -0.00002151
     atom   20 type  4   force =     0.00000000    0.00005285    0.00003030
     atom   21 type  1   force =     0.00000000    0.00000000    0.00000000
     atom   22 type  2   force =     0.00000070    0.00007948    0.00000000
     atom   23 type  3   force =     0.00002044    0.00000000    0.00002151
     atom   24 type  4   force =     0.00000000    0.00005285   -0.00003030
     atom   25 type  1   force =     0.00000000    0.00000000    0.00000000
     atom   26 type  2   force =     0.00001941   -0.00005274    0.00000000
     atom   27 type  3   force =    -0.00003335    0.00000000   -0.00000461
     atom   28 type  4   force =     0.00000000   -0.00005285    0.00003030
     atom   29 type  1   force =     0.00000000    0.00000000    0.00000000
     atom   30 type  2   force =     0.00000070   -0.00007948    0.00000000
     atom   31 type  3   force =    -0.00003335   -0.00000000    0.00000461
     atom   32 type  4   force =     0.00000000   -0.00005285   -0.00003030

     Total force =     0.000271     Total SCF correction =     0.005451
     SCF correction compared to forces is large: reduce conv_thr to get better values


     Computing stress (Cartesian axis) and pressure

          total   stress  (Ry/bohr**3)                   (kbar)     P=   -0.09
   0.00000538   0.00000000   0.00000000          0.79      0.00      0.00
   0.00000000  -0.00002647   0.00000000          0.00     -3.89      0.00
   0.00000000   0.00000000   0.00001931          0.00      0.00      2.84


     Writing output data file tOkFvNkAATFpKIXO.save/
-------------------------------------------------------
Primary job  terminated normally, but 1 process returned
a non-zero exit code.. Per user-direction, the job has been aborted.
-------------------------------------------------------
--------------------------------------------------------------------------
mpirun detected that one or more processes exited with non-zero status, thus causing
the job to be terminated. The first process to do so was:

  Process name: [[56191,1],0]
  Exit code:    38
--------------------------------------------------------------------------
