--------------------------------------------------------------------------
WARNING: No preset parameters were found for the device that Open MPI
detected:

  Local host:            bear-pg0206u39a
  Device name:           mlx5_0
  Device vendor ID:      0x02c9
  Device vendor part ID: 4123

Default device parameters will be used, which may result in lower
performance.  You can edit any of the files specified by the
btl_openib_device_param_files MCA parameter to set values for your
device.

NOTE: You can turn off this warning by setting the MCA parameter
      btl_openib_warn_no_device_params_found to 0.
--------------------------------------------------------------------------
--------------------------------------------------------------------------
WARNING: There was an error initializing an OpenFabrics device.

  Local host:   bear-pg0206u39a
  Local device: mlx5_0
--------------------------------------------------------------------------

     Program PWSCF v.6.3 starts on  9Sep2020 at 15:35:11 

     This program is part of the open-source Quantum ESPRESSO suite
     for quantum simulation of materials; please cite
         "P. Giannozzi et al., J. Phys.:Condens. Matter 21 395502 (2009);
         "P. Giannozzi et al., J. Phys.:Condens. Matter 29 465901 (2017);
          URL http://www.quantum-espresso.org", 
     in publications or presentations arising from this work. More details at
     http://www.quantum-espresso.org/quote

     Parallel version (MPI & OpenMP), running on      40 processor cores
     Number of MPI processes:                40
     Threads/MPI process:                     1

     MPI processes distributed on     1 nodes
     R & G space division:  proc/nbgrp/npool/nimage =      40
     Reading input from wd/ec/ec_3_005.in
Warning: card &IONS ignored
Warning: card ION_DYNAMICS = 'BFGS', ignored
Warning: card / ignored
Warning: card &CELL ignored
Warning: card CELL_DYNAMICS = 'BFGS', ignored
Warning: card CELL_FACTOR = 2.0, ignored
Warning: card PRESS = 0.0, ignored
Warning: card / ignored

     Current dimensions of program PWSCF are:
     Max number of different atomic species (ntypx) = 10
     Max number of k-points (npk) =  40000
     Max angular momentum in pseudopotentials (lmaxx) =  3
               file Fe.pbe-spn-kjpaw_psl.1.0.0.UPF: wavefunction(s)  3P 3D renormalized
               file Fe.pbe-spn-kjpaw_psl.1.0.0.UPF: wavefunction(s)  3P 3D renormalized

     Subspace diagonalization in iterative solution of the eigenvalue problem:
     a serial algorithm will be used

     Found symmetry operation: I + (  0.0000  0.0000 -0.5000)
     This is a supercell, fractional translations are disabled
 
     Parallelization info
     --------------------
     sticks:   dense  smooth     PW     G-vecs:    dense   smooth      PW
     Min          95      63     17                 4487     2409     357
     Max          96      64     18                 4492     2414     362
     Sum        3833    2537    717               179607    96457   14371
 


     bravais-lattice index     =            0
     lattice parameter (alat)  =      10.5935  a.u.
     unit-cell volume          =    1192.7957 (a.u.)^3
     number of atoms/cell      =           16
     number of atomic types    =            2
     number of electrons       =       256.00
     number of Kohn-Sham states=          154
     kinetic-energy cutoff     =      71.0000  Ry
     charge density cutoff     =     430.0000  Ry
     convergence threshold     =      1.0E-06
     mixing beta               =       0.1000
     number of iterations used =           10  plain     mixing
     Exchange-correlation      = SLA PW PBX PBC ( 1  4  3  4 0 0)

     celldm(1)=  10.593520  celldm(2)=   0.000000  celldm(3)=   0.000000
     celldm(4)=   0.000000  celldm(5)=   0.000000  celldm(6)=   0.000000

     crystal axes: (cart. coord. in units of alat)
               a(1) = (   1.000000   0.000000   0.000000 )  
               a(2) = (   0.000000   1.000000   0.000000 )  
               a(3) = (   0.000000   0.000000   1.003333 )  

     reciprocal axes: (cart. coord. in units 2 pi/alat)
               b(1) = (  1.000000  0.000000  0.000000 )  
               b(2) = (  0.000000  1.000000  0.000000 )  
               b(3) = (  0.000000  0.000000  0.996678 )  


     PseudoPot. # 1 for Fe read from file:
     /rds/homes/b/bxp912/pp/Fe.pbe-spn-kjpaw_psl.1.0.0.UPF
     MD5 check sum: 42f43b795421b414b0dc916aa790dbcb
     Pseudo is Projector augmented-wave + core cor, Zval = 16.0
     Generated using "atomic" code by A. Dal Corso v.6.3
     Shape of augmentation charge: PSQ
     Using radial grid of 1191 points,  6 beta functions with: 
                l(1) =   0
                l(2) =   0
                l(3) =   1
                l(4) =   1
                l(5) =   2
                l(6) =   2
     Q(r) pseudized with 0 coefficients 


     PseudoPot. # 2 for Fe read from file:
     /rds/homes/b/bxp912/pp/Fe.pbe-spn-kjpaw_psl.1.0.0.UPF
     MD5 check sum: 42f43b795421b414b0dc916aa790dbcb
     Pseudo is Projector augmented-wave + core cor, Zval = 16.0
     Generated using "atomic" code by A. Dal Corso v.6.3
     Shape of augmentation charge: PSQ
     Using radial grid of 1191 points,  6 beta functions with: 
                l(1) =   0
                l(2) =   0
                l(3) =   1
                l(4) =   1
                l(5) =   2
                l(6) =   2
     Q(r) pseudized with 0 coefficients 


     atomic species   valence    mass     pseudopotential
        Fe1           16.00    55.84500     Fe( 1.00)
        Fe2           16.00    55.84500     Fe( 1.00)

     Starting magnetic structure 
     atomic species   magnetization
        Fe1          0.100
        Fe2          0.100

     16 Sym. Ops., with inversion, found



   Cartesian axes

     site n.     atom                  positions (alat units)
         1           Fe1 tau(   1) = (   0.0000000   0.0000000   0.0000000  )
         2           Fe2 tau(   2) = (   0.2500004   0.2500004   0.2508338  )
         3           Fe1 tau(   3) = (   0.0000000   0.0000000   0.5016667  )
         4           Fe2 tau(   4) = (   0.2500004   0.2500004   0.7524996  )
         5           Fe1 tau(   5) = (   0.0000000   0.5000000   0.0000000  )
         6           Fe2 tau(   6) = (   0.2500004   0.7499996   0.2508338  )
         7           Fe1 tau(   7) = (   0.0000000   0.5000000   0.5016667  )
         8           Fe2 tau(   8) = (   0.2500004   0.7499996   0.7524996  )
         9           Fe1 tau(   9) = (   0.5000000   0.0000000   0.0000000  )
        10           Fe2 tau(  10) = (   0.7499996   0.2500004   0.2508338  )
        11           Fe1 tau(  11) = (   0.5000000   0.0000000   0.5016667  )
        12           Fe2 tau(  12) = (   0.7499996   0.2500004   0.7524996  )
        13           Fe1 tau(  13) = (   0.5000000   0.5000000   0.0000000  )
        14           Fe2 tau(  14) = (   0.7499996   0.7499996   0.2508338  )
        15           Fe1 tau(  15) = (   0.5000000   0.5000000   0.5016667  )
        16           Fe2 tau(  16) = (   0.7499996   0.7499996   0.7524996  )

     number of k points=    75  Marzari-Vanderbilt smearing, width (Ry)=  0.0400
                       cart. coord. in units 2pi/alat
        k(    1) = (   0.0555556   0.0555556   0.0553710), wk =   0.0109739
        k(    2) = (   0.0555556   0.0555556   0.1661130), wk =   0.0109739
        k(    3) = (   0.0555556   0.0555556   0.2768549), wk =   0.0109739
        k(    4) = (   0.0555556   0.0555556   0.3875969), wk =   0.0109739
        k(    5) = (   0.0555556   0.0555556  -0.4983389), wk =   0.0054870
        k(    6) = (   0.0555556   0.1666667   0.0553710), wk =   0.0219479
        k(    7) = (   0.0555556   0.1666667   0.1661130), wk =   0.0219479
        k(    8) = (   0.0555556   0.1666667   0.2768549), wk =   0.0219479
        k(    9) = (   0.0555556   0.1666667   0.3875969), wk =   0.0219479
        k(   10) = (   0.0555556   0.1666667  -0.4983389), wk =   0.0109739
        k(   11) = (   0.0555556   0.2777778   0.0553710), wk =   0.0219479
        k(   12) = (   0.0555556   0.2777778   0.1661130), wk =   0.0219479
        k(   13) = (   0.0555556   0.2777778   0.2768549), wk =   0.0219479
        k(   14) = (   0.0555556   0.2777778   0.3875969), wk =   0.0219479
        k(   15) = (   0.0555556   0.2777778  -0.4983389), wk =   0.0109739
        k(   16) = (   0.0555556   0.3888889   0.0553710), wk =   0.0219479
        k(   17) = (   0.0555556   0.3888889   0.1661130), wk =   0.0219479
        k(   18) = (   0.0555556   0.3888889   0.2768549), wk =   0.0219479
        k(   19) = (   0.0555556   0.3888889   0.3875969), wk =   0.0219479
        k(   20) = (   0.0555556   0.3888889  -0.4983389), wk =   0.0109739
        k(   21) = (   0.0555556  -0.5000000   0.0553710), wk =   0.0109739
        k(   22) = (   0.0555556  -0.5000000   0.1661130), wk =   0.0109739
        k(   23) = (   0.0555556  -0.5000000   0.2768549), wk =   0.0109739
        k(   24) = (   0.0555556  -0.5000000   0.3875969), wk =   0.0109739
        k(   25) = (   0.0555556  -0.5000000  -0.4983389), wk =   0.0054870
        k(   26) = (   0.1666667   0.1666667   0.0553710), wk =   0.0109739
        k(   27) = (   0.1666667   0.1666667   0.1661130), wk =   0.0109739
        k(   28) = (   0.1666667   0.1666667   0.2768549), wk =   0.0109739
        k(   29) = (   0.1666667   0.1666667   0.3875969), wk =   0.0109739
        k(   30) = (   0.1666667   0.1666667  -0.4983389), wk =   0.0054870
        k(   31) = (   0.1666667   0.2777778   0.0553710), wk =   0.0219479
        k(   32) = (   0.1666667   0.2777778   0.1661130), wk =   0.0219479
        k(   33) = (   0.1666667   0.2777778   0.2768549), wk =   0.0219479
        k(   34) = (   0.1666667   0.2777778   0.3875969), wk =   0.0219479
        k(   35) = (   0.1666667   0.2777778  -0.4983389), wk =   0.0109739
        k(   36) = (   0.1666667   0.3888889   0.0553710), wk =   0.0219479
        k(   37) = (   0.1666667   0.3888889   0.1661130), wk =   0.0219479
        k(   38) = (   0.1666667   0.3888889   0.2768549), wk =   0.0219479
        k(   39) = (   0.1666667   0.3888889   0.3875969), wk =   0.0219479
        k(   40) = (   0.1666667   0.3888889  -0.4983389), wk =   0.0109739
        k(   41) = (   0.1666667  -0.5000000   0.0553710), wk =   0.0109739
        k(   42) = (   0.1666667  -0.5000000   0.1661130), wk =   0.0109739
        k(   43) = (   0.1666667  -0.5000000   0.2768549), wk =   0.0109739
        k(   44) = (   0.1666667  -0.5000000   0.3875969), wk =   0.0109739
        k(   45) = (   0.1666667  -0.5000000  -0.4983389), wk =   0.0054870
        k(   46) = (   0.2777778   0.2777778   0.0553710), wk =   0.0109739
        k(   47) = (   0.2777778   0.2777778   0.1661130), wk =   0.0109739
        k(   48) = (   0.2777778   0.2777778   0.2768549), wk =   0.0109739
        k(   49) = (   0.2777778   0.2777778   0.3875969), wk =   0.0109739
        k(   50) = (   0.2777778   0.2777778  -0.4983389), wk =   0.0054870
        k(   51) = (   0.2777778   0.3888889   0.0553710), wk =   0.0219479
        k(   52) = (   0.2777778   0.3888889   0.1661130), wk =   0.0219479
        k(   53) = (   0.2777778   0.3888889   0.2768549), wk =   0.0219479
        k(   54) = (   0.2777778   0.3888889   0.3875969), wk =   0.0219479
        k(   55) = (   0.2777778   0.3888889  -0.4983389), wk =   0.0109739
        k(   56) = (   0.2777778  -0.5000000   0.0553710), wk =   0.0109739
        k(   57) = (   0.2777778  -0.5000000   0.1661130), wk =   0.0109739
        k(   58) = (   0.2777778  -0.5000000   0.2768549), wk =   0.0109739
        k(   59) = (   0.2777778  -0.5000000   0.3875969), wk =   0.0109739
        k(   60) = (   0.2777778  -0.5000000  -0.4983389), wk =   0.0054870
        k(   61) = (   0.3888889   0.3888889   0.0553710), wk =   0.0109739
        k(   62) = (   0.3888889   0.3888889   0.1661130), wk =   0.0109739
        k(   63) = (   0.3888889   0.3888889   0.2768549), wk =   0.0109739
        k(   64) = (   0.3888889   0.3888889   0.3875969), wk =   0.0109739
        k(   65) = (   0.3888889   0.3888889  -0.4983389), wk =   0.0054870
        k(   66) = (   0.3888889  -0.5000000   0.0553710), wk =   0.0109739
        k(   67) = (   0.3888889  -0.5000000   0.1661130), wk =   0.0109739
        k(   68) = (   0.3888889  -0.5000000   0.2768549), wk =   0.0109739
        k(   69) = (   0.3888889  -0.5000000   0.3875969), wk =   0.0109739
        k(   70) = (   0.3888889  -0.5000000  -0.4983389), wk =   0.0054870
        k(   71) = (  -0.5000000  -0.5000000   0.0553710), wk =   0.0027435
        k(   72) = (  -0.5000000  -0.5000000   0.1661130), wk =   0.0027435
        k(   73) = (  -0.5000000  -0.5000000   0.2768549), wk =   0.0027435
        k(   74) = (  -0.5000000  -0.5000000   0.3875969), wk =   0.0027435
        k(   75) = (  -0.5000000  -0.5000000  -0.4983389), wk =   0.0013717

     Dense  grid:   179607 G-vectors     FFT dimensions: (  72,  72,  72)

     Smooth grid:    96457 G-vectors     FFT dimensions: (  60,  60,  60)

     Estimated max dynamical RAM per process >     145.28 MB

     Estimated total dynamical RAM >       5.68 GB
     Generating pointlists ...
     new r_m :   0.1788 (alat units)  1.8943 (a.u.) for type    1
     new r_m :   0.1788 (alat units)  1.8943 (a.u.) for type    2

     Check: negative/imaginary core charge=   -0.000006    0.000000

     Initial potential from superposition of free atoms

     starting charge  255.99300, renormalised to  256.00000
     Starting wfcs are  160 randomized atomic wfcs
     Checking if some PAW data can be deallocated... 

     total cpu time spent up to now is       15.0 secs

     Self-consistent Calculation

     iteration #  1     ecut=    71.00 Ry     beta= 0.10
     Davidson diagonalization with overlap
     ethr =  1.00E-02,  avg # of iterations =  3.3

     Threshold (ethr) on eigenvalues was too large:
     Diagonalizing with lowered threshold

     Davidson diagonalization with overlap
     ethr =  2.08E-04,  avg # of iterations =  3.6

     total cpu time spent up to now is      129.4 secs

     total energy              =   -5268.00805340 Ry
     Harris-Foulkes estimate   =   -5268.06910841 Ry
     estimated scf accuracy    <       0.61595101 Ry

     total magnetization       =    27.99 Bohr mag/cell
     absolute magnetization    =    28.10 Bohr mag/cell

     iteration #  2     ecut=    71.00 Ry     beta= 0.10
     Davidson diagonalization with overlap
     ethr =  2.41E-04,  avg # of iterations =  1.0

     total cpu time spent up to now is      162.8 secs

     total energy              =   -5267.97720783 Ry
     Harris-Foulkes estimate   =   -5268.02034143 Ry
     estimated scf accuracy    <       0.36060979 Ry

     total magnetization       =    28.65 Bohr mag/cell
     absolute magnetization    =    28.79 Bohr mag/cell

     iteration #  3     ecut=    71.00 Ry     beta= 0.10
     Davidson diagonalization with overlap
     ethr =  1.41E-04,  avg # of iterations =  3.0

     total cpu time spent up to now is      216.5 secs

     total energy              =   -5268.02739134 Ry
     Harris-Foulkes estimate   =   -5268.03180730 Ry
     estimated scf accuracy    <       0.40974776 Ry

     total magnetization       =    29.78 Bohr mag/cell
     absolute magnetization    =    30.08 Bohr mag/cell

     iteration #  4     ecut=    71.00 Ry     beta= 0.10
     Davidson diagonalization with overlap
     ethr =  1.41E-04,  avg # of iterations =  1.0

     total cpu time spent up to now is      249.9 secs

     total energy              =   -5268.04501063 Ry
     Harris-Foulkes estimate   =   -5268.04061694 Ry
     estimated scf accuracy    <       0.12225802 Ry

     total magnetization       =    30.19 Bohr mag/cell
     absolute magnetization    =    30.53 Bohr mag/cell

     iteration #  5     ecut=    71.00 Ry     beta= 0.10
     Davidson diagonalization with overlap
     ethr =  4.78E-05,  avg # of iterations =  1.0

     total cpu time spent up to now is      283.2 secs

     total energy              =   -5268.11438055 Ry
     Harris-Foulkes estimate   =   -5268.04672926 Ry
     estimated scf accuracy    <       0.10650357 Ry

     total magnetization       =    30.26 Bohr mag/cell
     absolute magnetization    =    30.62 Bohr mag/cell

     iteration #  6     ecut=    71.00 Ry     beta= 0.10
     Davidson diagonalization with overlap
     ethr =  4.16E-05,  avg # of iterations =  3.5

     negative rho (up, down):  0.000E+00 1.097E-03

     total cpu time spent up to now is      348.5 secs

     total energy              =   -5268.16246491 Ry
     Harris-Foulkes estimate   =   -5268.16259859 Ry
     estimated scf accuracy    <       0.20230449 Ry

     total magnetization       =    31.03 Bohr mag/cell
     absolute magnetization    =    31.80 Bohr mag/cell

     iteration #  7     ecut=    71.00 Ry     beta= 0.10
     Davidson diagonalization with overlap
     ethr =  4.16E-05,  avg # of iterations =  2.6

     negative rho (up, down):  0.000E+00 1.574E-03

     total cpu time spent up to now is      401.6 secs

     total energy              =   -5268.18217303 Ry
     Harris-Foulkes estimate   =   -5268.18416266 Ry
     estimated scf accuracy    <       0.04904367 Ry

     total magnetization       =    31.94 Bohr mag/cell
     absolute magnetization    =    33.18 Bohr mag/cell

     iteration #  8     ecut=    71.00 Ry     beta= 0.10
     Davidson diagonalization with overlap
     ethr =  1.92E-05,  avg # of iterations =  1.3

     negative rho (up, down):  0.000E+00 1.241E-03

     total cpu time spent up to now is      436.9 secs

     total energy              =   -5268.18038720 Ry
     Harris-Foulkes estimate   =   -5268.18429268 Ry
     estimated scf accuracy    <       0.02880625 Ry

     total magnetization       =    32.11 Bohr mag/cell
     absolute magnetization    =    33.39 Bohr mag/cell

     iteration #  9     ecut=    71.00 Ry     beta= 0.10
     Davidson diagonalization with overlap
     ethr =  1.13E-05,  avg # of iterations =  2.3

     negative rho (up, down):  0.000E+00 1.536E-03

     total cpu time spent up to now is      480.3 secs

     total energy              =   -5268.18429894 Ry
     Harris-Foulkes estimate   =   -5268.18168860 Ry
     estimated scf accuracy    <       0.01835310 Ry

     total magnetization       =    32.20 Bohr mag/cell
     absolute magnetization    =    33.52 Bohr mag/cell

     iteration # 10     ecut=    71.00 Ry     beta= 0.10
     Davidson diagonalization with overlap
     ethr =  7.17E-06,  avg # of iterations =  1.9

     negative rho (up, down):  0.000E+00 2.365E-03

     total cpu time spent up to now is      521.5 secs

     total energy              =   -5268.18834725 Ry
     Harris-Foulkes estimate   =   -5268.18536009 Ry
     estimated scf accuracy    <       0.00595081 Ry

     total magnetization       =    32.41 Bohr mag/cell
     absolute magnetization    =    33.82 Bohr mag/cell

     iteration # 11     ecut=    71.00 Ry     beta= 0.10
     Davidson diagonalization with overlap
     ethr =  2.32E-06,  avg # of iterations =  3.6

     negative rho (up, down):  0.000E+00 2.326E-03

     total cpu time spent up to now is      581.9 secs

     total energy              =   -5268.18974063 Ry
     Harris-Foulkes estimate   =   -5268.18968612 Ry
     estimated scf accuracy    <       0.00105059 Ry

     total magnetization       =    32.67 Bohr mag/cell
     absolute magnetization    =    34.30 Bohr mag/cell

     iteration # 12     ecut=    71.00 Ry     beta= 0.10
     Davidson diagonalization with overlap
     ethr =  4.10E-07,  avg # of iterations =  1.2

     negative rho (up, down):  0.000E+00 2.221E-03

     total cpu time spent up to now is      616.9 secs

     total energy              =   -5268.19004238 Ry
     Harris-Foulkes estimate   =   -5268.18975904 Ry
     estimated scf accuracy    <       0.00087106 Ry

     total magnetization       =    32.69 Bohr mag/cell
     absolute magnetization    =    34.32 Bohr mag/cell

     iteration # 13     ecut=    71.00 Ry     beta= 0.10
     Davidson diagonalization with overlap
     ethr =  3.40E-07,  avg # of iterations =  2.3

     negative rho (up, down):  0.000E+00 2.336E-03

     total cpu time spent up to now is      663.5 secs

     total energy              =   -5268.19036210 Ry
     Harris-Foulkes estimate   =   -5268.19016581 Ry
     estimated scf accuracy    <       0.00059275 Ry

     total magnetization       =    32.75 Bohr mag/cell
     absolute magnetization    =    34.43 Bohr mag/cell

     iteration # 14     ecut=    71.00 Ry     beta= 0.10
     Davidson diagonalization with overlap
     ethr =  2.32E-07,  avg # of iterations =  2.4

     negative rho (up, down):  0.000E+00 2.465E-03

     total cpu time spent up to now is      711.3 secs

     total energy              =   -5268.19044203 Ry
     Harris-Foulkes estimate   =   -5268.19042731 Ry
     estimated scf accuracy    <       0.00024725 Ry

     total magnetization       =    32.83 Bohr mag/cell
     absolute magnetization    =    34.55 Bohr mag/cell

     iteration # 15     ecut=    71.00 Ry     beta= 0.10
     Davidson diagonalization with overlap
     ethr =  9.66E-08,  avg # of iterations =  3.1

     negative rho (up, down):  0.000E+00 2.398E-03

     total cpu time spent up to now is      763.5 secs

     total energy              =   -5268.19051858 Ry
     Harris-Foulkes estimate   =   -5268.19047663 Ry
     estimated scf accuracy    <       0.00010246 Ry

     total magnetization       =    32.87 Bohr mag/cell
     absolute magnetization    =    34.62 Bohr mag/cell

     iteration # 16     ecut=    71.00 Ry     beta= 0.10
     Davidson diagonalization with overlap
     ethr =  4.00E-08,  avg # of iterations =  2.1

     negative rho (up, down):  0.000E+00 2.488E-03

     total cpu time spent up to now is      806.1 secs

     total energy              =   -5268.19051517 Ry
     Harris-Foulkes estimate   =   -5268.19052972 Ry
     estimated scf accuracy    <       0.00009802 Ry

     total magnetization       =    32.88 Bohr mag/cell
     absolute magnetization    =    34.63 Bohr mag/cell

     iteration # 17     ecut=    71.00 Ry     beta= 0.10
     Davidson diagonalization with overlap
     ethr =  3.83E-08,  avg # of iterations =  3.0

     negative rho (up, down):  0.000E+00 2.450E-03

     total cpu time spent up to now is      857.6 secs

     total energy              =   -5268.19055653 Ry
     Harris-Foulkes estimate   =   -5268.19053157 Ry
     estimated scf accuracy    <       0.00007496 Ry

     total magnetization       =    32.91 Bohr mag/cell
     absolute magnetization    =    34.68 Bohr mag/cell

     iteration # 18     ecut=    71.00 Ry     beta= 0.10
     Davidson diagonalization with overlap
     ethr =  2.93E-08,  avg # of iterations =  2.4

     negative rho (up, down):  0.000E+00 2.450E-03

     total cpu time spent up to now is      904.5 secs

     total energy              =   -5268.19057205 Ry
     Harris-Foulkes estimate   =   -5268.19056838 Ry
     estimated scf accuracy    <       0.00001765 Ry

     total magnetization       =    32.93 Bohr mag/cell
     absolute magnetization    =    34.71 Bohr mag/cell

     iteration # 19     ecut=    71.00 Ry     beta= 0.10
     Davidson diagonalization with overlap
     ethr =  6.89E-09,  avg # of iterations =  2.0

     negative rho (up, down):  0.000E+00 2.468E-03

     total cpu time spent up to now is      944.9 secs

     total energy              =   -5268.19057382 Ry
     Harris-Foulkes estimate   =   -5268.19057300 Ry
     estimated scf accuracy    <       0.00001174 Ry

     total magnetization       =    32.94 Bohr mag/cell
     absolute magnetization    =    34.72 Bohr mag/cell

     iteration # 20     ecut=    71.00 Ry     beta= 0.10
     Davidson diagonalization with overlap
     ethr =  4.59E-09,  avg # of iterations =  2.7

     negative rho (up, down):  0.000E+00 2.465E-03

     total cpu time spent up to now is      993.6 secs

     total energy              =   -5268.19057704 Ry
     Harris-Foulkes estimate   =   -5268.19057623 Ry
     estimated scf accuracy    <       0.00000372 Ry

     total magnetization       =    32.95 Bohr mag/cell
     absolute magnetization    =    34.73 Bohr mag/cell

     iteration # 21     ecut=    71.00 Ry     beta= 0.10
     Davidson diagonalization with overlap
     ethr =  1.45E-09,  avg # of iterations =  2.6

     negative rho (up, down):  0.000E+00 2.468E-03

     total cpu time spent up to now is     1038.4 secs

     total energy              =   -5268.19057787 Ry
     Harris-Foulkes estimate   =   -5268.19057750 Ry
     estimated scf accuracy    <       0.00000218 Ry

     total magnetization       =    32.95 Bohr mag/cell
     absolute magnetization    =    34.74 Bohr mag/cell

     iteration # 22     ecut=    71.00 Ry     beta= 0.10
     Davidson diagonalization with overlap
     ethr =  8.51E-10,  avg # of iterations =  1.3

     negative rho (up, down):  0.000E+00 2.481E-03
 
     Magnetic moment per site:
     atom:    1    charge:   14.3691    magn:    2.1035    constr:    0.0000
     atom:    2    charge:   14.3691    magn:    2.1054    constr:    0.0000
     atom:    3    charge:   14.3690    magn:    2.1047    constr:    0.0000
     atom:    4    charge:   14.3691    magn:    2.1054    constr:    0.0000
     atom:    5    charge:   14.3692    magn:    2.1037    constr:    0.0000
     atom:    6    charge:   14.3691    magn:    2.1054    constr:    0.0000
     atom:    7    charge:   14.3692    magn:    2.1046    constr:    0.0000
     atom:    8    charge:   14.3691    magn:    2.1054    constr:    0.0000
     atom:    9    charge:   14.3692    magn:    2.1037    constr:    0.0000
     atom:   10    charge:   14.3691    magn:    2.1054    constr:    0.0000
     atom:   11    charge:   14.3692    magn:    2.1046    constr:    0.0000
     atom:   12    charge:   14.3691    magn:    2.1054    constr:    0.0000
     atom:   13    charge:   14.3691    magn:    2.1040    constr:    0.0000
     atom:   14    charge:   14.3691    magn:    2.1054    constr:    0.0000
     atom:   15    charge:   14.3692    magn:    2.1049    constr:    0.0000
     atom:   16    charge:   14.3691    magn:    2.1054    constr:    0.0000

     total cpu time spent up to now is     1073.9 secs

     End of self-consistent calculation

     Number of k-points >= 100: set verbosity='high' to print the bands.

     the Fermi energy is    18.8946 ev

!    total energy              =   -5268.19057929 Ry
     Harris-Foulkes estimate   =   -5268.19057798 Ry
     estimated scf accuracy    <       0.00000079 Ry

     total all-electron energy =    -40728.935108 Ry

     The total energy is the sum of the following terms:

     one-electron contribution =   -1712.36538592 Ry
     hartree contribution      =    1024.05271736 Ry
     xc contribution           =    -444.22369921 Ry
     ewald contribution        =   -2811.10943395 Ry
     one-center paw contrib.   =   -1324.67042254 Ry
     smearing contrib. (-TS)   =       0.12564497 Ry

     total magnetization       =    32.96 Bohr mag/cell
     absolute magnetization    =    34.74 Bohr mag/cell

     convergence has been achieved in  22 iterations

     negative rho (up, down):  0.000E+00 2.481E-03

     Forces acting on atoms (cartesian axes, Ry/au):

     atom    1 type  1   force =     0.00000000    0.00000000    0.00000000
     atom    2 type  2   force =     0.00002238    0.00002238    0.00011398
     atom    3 type  1   force =     0.00000000    0.00000000    0.00000000
     atom    4 type  2   force =     0.00002238    0.00002238   -0.00011398
     atom    5 type  1   force =     0.00000000    0.00000000    0.00000000
     atom    6 type  2   force =     0.00002238   -0.00002238    0.00011398
     atom    7 type  1   force =     0.00000000    0.00000000    0.00000000
     atom    8 type  2   force =     0.00002238   -0.00002238   -0.00011398
     atom    9 type  1   force =     0.00000000    0.00000000    0.00000000
     atom   10 type  2   force =    -0.00002238    0.00002238    0.00011398
     atom   11 type  1   force =     0.00000000    0.00000000    0.00000000
     atom   12 type  2   force =    -0.00002238    0.00002238   -0.00011398
     atom   13 type  1   force =     0.00000000    0.00000000    0.00000000
     atom   14 type  2   force =    -0.00002238   -0.00002238    0.00011398
     atom   15 type  1   force =     0.00000000    0.00000000    0.00000000
     atom   16 type  2   force =    -0.00002238   -0.00002238   -0.00011398

     Total force =     0.000335     Total SCF correction =     0.004959
     SCF correction compared to forces is large: reduce conv_thr to get better values


     Computing stress (Cartesian axis) and pressure


     negative rho (up, down):  0.000E+00 2.481E-03
          total   stress  (Ry/bohr**3)                   (kbar)     P=  -10.48
  -0.00006168   0.00000000   0.00000000         -9.07      0.00      0.00
   0.00000000  -0.00006168   0.00000000          0.00     -9.07      0.00
   0.00000000   0.00000000  -0.00009042          0.00      0.00    -13.30


     Writing output data file SEUExriTKwrqddxM.save/
 
     init_run     :     12.95s CPU     13.58s WALL (       1 calls)
     electrons    :   1026.77s CPU   1058.97s WALL (       1 calls)
     forces       :      4.70s CPU      5.11s WALL (       1 calls)
     stress       :     13.05s CPU     13.20s WALL (       1 calls)

     Called by init_run:
     wfcinit      :     12.52s CPU     13.05s WALL (       1 calls)
     potinit      :      0.21s CPU      0.23s WALL (       1 calls)
     hinit0       :      0.12s CPU      0.17s WALL (       1 calls)

     Called by electrons:
     c_bands      :    924.94s CPU    951.60s WALL (      23 calls)
     sum_band     :     97.27s CPU    102.26s WALL (      23 calls)
     v_of_rho     :      0.35s CPU      0.35s WALL (      23 calls)
     newd         :      0.71s CPU      0.91s WALL (      23 calls)
     PAW_pot      :      3.46s CPU      3.73s WALL (      23 calls)
     mix_rho      :      0.12s CPU      0.14s WALL (      23 calls)

     Called by c_bands:
     init_us_2    :      5.15s CPU      5.22s WALL (    7350 calls)
     cegterg      :    899.52s CPU    925.90s WALL (    3450 calls)

     Called by sum_band:
     sum_band:bec :      1.45s CPU      1.47s WALL (    3450 calls)
     addusdens    :      1.15s CPU      1.31s WALL (      23 calls)

     Called by *egterg:
     h_psi        :    377.79s CPU    393.90s WALL (   11575 calls)
     s_psi        :     21.43s CPU     21.57s WALL (   11575 calls)
     g_psi        :      0.89s CPU      0.91s WALL (    7975 calls)
     cdiaghg      :    410.37s CPU    411.83s WALL (   11275 calls)

     Called by h_psi:
     h_psi:pot    :    375.41s CPU    391.50s WALL (   11575 calls)
     h_psi:calbec :     31.44s CPU     36.50s WALL (   11575 calls)
     vloc_psi     :    322.31s CPU    333.21s WALL (   11575 calls)
     add_vuspsi   :     21.56s CPU     21.71s WALL (   11575 calls)

     General routines
     calbec       :     47.90s CPU     55.71s WALL (   15775 calls)
     fft          :      0.36s CPU      0.38s WALL (     617 calls)
     ffts         :      0.05s CPU      0.22s WALL (      92 calls)
     fftw         :    376.55s CPU    389.10s WALL ( 2879330 calls)
     interpolate  :      0.06s CPU      0.14s WALL (      46 calls)
 
     Parallel routines
     fft_scatt_xy :     25.13s CPU     25.93s WALL ( 2880039 calls)
     fft_scatt_yz :    250.70s CPU    259.36s WALL ( 2880039 calls)
 
     PWSCF        : 17m46.92s CPU    18m47.21s WALL

 
   This run was terminated on:  15:53:58   9Sep2020            

=------------------------------------------------------------------------------=
   JOB DONE.
=------------------------------------------------------------------------------=
