--------------------------------------------------------------------------
WARNING: No preset parameters were found for the device that Open MPI
detected:

  Local host:            bear-pg0206u26a
  Device name:           mlx5_0
  Device vendor ID:      0x02c9
  Device vendor part ID: 4123

Default device parameters will be used, which may result in lower
performance.  You can edit any of the files specified by the
btl_openib_device_param_files MCA parameter to set values for your
device.

NOTE: You can turn off this warning by setting the MCA parameter
      btl_openib_warn_no_device_params_found to 0.
--------------------------------------------------------------------------
--------------------------------------------------------------------------
WARNING: There was an error initializing an OpenFabrics device.

  Local host:   bear-pg0206u26a
  Local device: mlx5_0
--------------------------------------------------------------------------

     Program PWSCF v.6.3 starts on  2Nov2020 at 16:59:31 

     This program is part of the open-source Quantum ESPRESSO suite
     for quantum simulation of materials; please cite
         "P. Giannozzi et al., J. Phys.:Condens. Matter 21 395502 (2009);
         "P. Giannozzi et al., J. Phys.:Condens. Matter 29 465901 (2017);
          URL http://www.quantum-espresso.org", 
     in publications or presentations arising from this work. More details at
     http://www.quantum-espresso.org/quote

     Parallel version (MPI & OpenMP), running on      40 processor cores
     Number of MPI processes:                40
     Threads/MPI process:                     1

     MPI processes distributed on     1 nodes
     R & G space division:  proc/nbgrp/npool/nimage =      40
     Reading input from wd/ec/ec_7_003.in
Warning: card &IONS ignored
Warning: card ION_DYNAMICS = 'BFGS', ignored
Warning: card / ignored
Warning: card &CELL ignored
Warning: card CELL_DYNAMICS = 'BFGS', ignored
Warning: card CELL_FACTOR = 2.0, ignored
Warning: card PRESS = 0.0, ignored
Warning: card / ignored

     Current dimensions of program PWSCF are:
     Max number of different atomic species (ntypx) = 10
     Max number of k-points (npk) =  40000
     Max angular momentum in pseudopotentials (lmaxx) =  3
               file Fe.pbe-spn-kjpaw_psl.1.0.0.UPF: wavefunction(s)  3P 3D renormalized
               file Fe.pbe-spn-kjpaw_psl.1.0.0.UPF: wavefunction(s)  3P 3D renormalized

     Subspace diagonalization in iterative solution of the eigenvalue problem:
     a serial algorithm will be used

     Found symmetry operation: I + (  0.0000  0.0000  0.5000)
     This is a supercell, fractional translations are disabled
 
     Parallelization info
     --------------------
     sticks:   dense  smooth     PW     G-vecs:    dense   smooth      PW
     Min          95      63     17                 4471     2401     355
     Max          96      64     18                 4476     2406     360
     Sum        3831    2541    717               178943    96121   14331
 


     bravais-lattice index     =            0
     lattice parameter (alat)  =      10.5935  a.u.
     unit-cell volume          =    1188.8329 (a.u.)^3
     number of atoms/cell      =           16
     number of atomic types    =            2
     number of electrons       =       256.00
     number of Kohn-Sham states=          154
     kinetic-energy cutoff     =      71.0000  Ry
     charge density cutoff     =     430.0000  Ry
     convergence threshold     =      1.0E-06
     mixing beta               =       0.1000
     number of iterations used =           10  plain     mixing
     Exchange-correlation      = SLA PW PBX PBC ( 1  4  3  4 0 0)

     celldm(1)=  10.593520  celldm(2)=   0.000000  celldm(3)=   0.000000
     celldm(4)=   0.000000  celldm(5)=   0.000000  celldm(6)=   0.000000

     crystal axes: (cart. coord. in units of alat)
               a(1) = (   1.001334   0.000000   0.000000 )  
               a(2) = (   0.000000   0.998667   0.000000 )  
               a(3) = (   0.000000   0.000000   1.000001 )  

     reciprocal axes: (cart. coord. in units 2 pi/alat)
               b(1) = (  0.998668  0.000000  0.000000 )  
               b(2) = (  0.000000  1.001335  0.000000 )  
               b(3) = (  0.000000  0.000000  0.999999 )  


     PseudoPot. # 1 for Fe read from file:
     /rds/homes/b/bxp912/pp/Fe.pbe-spn-kjpaw_psl.1.0.0.UPF
     MD5 check sum: 42f43b795421b414b0dc916aa790dbcb
     Pseudo is Projector augmented-wave + core cor, Zval = 16.0
     Generated using "atomic" code by A. Dal Corso v.6.3
     Shape of augmentation charge: PSQ
     Using radial grid of 1191 points,  6 beta functions with: 
                l(1) =   0
                l(2) =   0
                l(3) =   1
                l(4) =   1
                l(5) =   2
                l(6) =   2
     Q(r) pseudized with 0 coefficients 


     PseudoPot. # 2 for Fe read from file:
     /rds/homes/b/bxp912/pp/Fe.pbe-spn-kjpaw_psl.1.0.0.UPF
     MD5 check sum: 42f43b795421b414b0dc916aa790dbcb
     Pseudo is Projector augmented-wave + core cor, Zval = 16.0
     Generated using "atomic" code by A. Dal Corso v.6.3
     Shape of augmentation charge: PSQ
     Using radial grid of 1191 points,  6 beta functions with: 
                l(1) =   0
                l(2) =   0
                l(3) =   1
                l(4) =   1
                l(5) =   2
                l(6) =   2
     Q(r) pseudized with 0 coefficients 


     atomic species   valence    mass     pseudopotential
        Fe1           16.00    55.84500     Fe( 1.00)
        Fe2           16.00    55.84500     Fe( 1.00)

     Starting magnetic structure 
     atomic species   magnetization
        Fe1          0.100
        Fe2          0.100

      8 Sym. Ops., with inversion, found



   Cartesian axes

     site n.     atom                  positions (alat units)
         1           Fe1 tau(   1) = (   0.0000000   0.0000000   0.0000000  )
         2           Fe2 tau(   2) = (   0.2503339   0.2496672   0.2500006  )
         3           Fe1 tau(   3) = (   0.0000000   0.0000000   0.5000003  )
         4           Fe2 tau(   4) = (   0.2503339   0.2496672   0.7500000  )
         5           Fe1 tau(   5) = (   0.0000000   0.4993336   0.0000000  )
         6           Fe2 tau(   6) = (   0.2503339   0.7490000   0.2500006  )
         7           Fe1 tau(   7) = (   0.0000000   0.4993336   0.5000003  )
         8           Fe2 tau(   8) = (   0.2503339   0.7490000   0.7500000  )
         9           Fe1 tau(   9) = (   0.5006670   0.0000000   0.0000000  )
        10           Fe2 tau(  10) = (   0.7510000   0.2496672   0.2500006  )
        11           Fe1 tau(  11) = (   0.5006670   0.0000000   0.5000003  )
        12           Fe2 tau(  12) = (   0.7510000   0.2496672   0.7500000  )
        13           Fe1 tau(  13) = (   0.5006670   0.4993336   0.0000000  )
        14           Fe2 tau(  14) = (   0.7510000   0.7490000   0.2500006  )
        15           Fe1 tau(  15) = (   0.5006670   0.4993336   0.5000003  )
        16           Fe2 tau(  16) = (   0.7510000   0.7490000   0.7500000  )

     number of k points=   125  Marzari-Vanderbilt smearing, width (Ry)=  0.0400

     Number of k-points >= 100: set verbosity='high' to print them.

     Dense  grid:   178943 G-vectors     FFT dimensions: (  72,  72,  72)

     Smooth grid:    96121 G-vectors     FFT dimensions: (  60,  60,  60)

     Estimated max dynamical RAM per process >     215.38 MB

     Estimated total dynamical RAM >       8.41 GB
     Generating pointlists ...
     new r_m :   0.1786 (alat units)  1.8922 (a.u.) for type    1
     new r_m :   0.1786 (alat units)  1.8922 (a.u.) for type    2

     Check: negative/imaginary core charge=   -0.000006    0.000000

     Initial potential from superposition of free atoms

     starting charge  255.99300, renormalised to  256.00000
     Starting wfcs are  160 randomized atomic wfcs
     Checking if some PAW data can be deallocated... 

     total cpu time spent up to now is       23.5 secs

     Self-consistent Calculation

     iteration #  1     ecut=    71.00 Ry     beta= 0.10
     Davidson diagonalization with overlap
     ethr =  1.00E-02,  avg # of iterations =  3.4

     Threshold (ethr) on eigenvalues was too large:
     Diagonalizing with lowered threshold

     Davidson diagonalization with overlap
     ethr =  2.83E-04,  avg # of iterations =  3.4

     total cpu time spent up to now is      209.7 secs

     total energy              =   -5268.17614823 Ry
     Harris-Foulkes estimate   =   -5268.32783073 Ry
     estimated scf accuracy    <       0.82051407 Ry

     total magnetization       =    28.04 Bohr mag/cell
     absolute magnetization    =    28.41 Bohr mag/cell

     iteration #  2     ecut=    71.00 Ry     beta= 0.10
     Davidson diagonalization with overlap
     ethr =  3.21E-04,  avg # of iterations =  1.0

     total cpu time spent up to now is      265.7 secs

     total energy              =   -5268.07004822 Ry
     Harris-Foulkes estimate   =   -5268.19494343 Ry
     estimated scf accuracy    <       0.49777573 Ry

     total magnetization       =    28.67 Bohr mag/cell
     absolute magnetization    =    28.96 Bohr mag/cell

     iteration #  3     ecut=    71.00 Ry     beta= 0.10
     Davidson diagonalization with overlap
     ethr =  1.94E-04,  avg # of iterations =  2.5

     total cpu time spent up to now is      340.8 secs

     total energy              =   -5268.03732613 Ry
     Harris-Foulkes estimate   =   -5268.11671532 Ry
     estimated scf accuracy    <       0.57307726 Ry

     total magnetization       =    29.37 Bohr mag/cell
     absolute magnetization    =    29.71 Bohr mag/cell

     iteration #  4     ecut=    71.00 Ry     beta= 0.10
     Davidson diagonalization with overlap
     ethr =  1.94E-04,  avg # of iterations =  2.1

     total cpu time spent up to now is      409.9 secs

     total energy              =   -5268.06937464 Ry
     Harris-Foulkes estimate   =   -5268.07310232 Ry
     estimated scf accuracy    <       0.17776842 Ry

     total magnetization       =    30.21 Bohr mag/cell
     absolute magnetization    =    30.58 Bohr mag/cell

     iteration #  5     ecut=    71.00 Ry     beta= 0.10
     Davidson diagonalization with overlap
     ethr =  6.94E-05,  avg # of iterations =  1.3

     total cpu time spent up to now is      469.1 secs

     total energy              =   -5268.08822066 Ry
     Harris-Foulkes estimate   =   -5268.07356295 Ry
     estimated scf accuracy    <       0.11148534 Ry

     total magnetization       =    30.30 Bohr mag/cell
     absolute magnetization    =    30.70 Bohr mag/cell

     iteration #  6     ecut=    71.00 Ry     beta= 0.10
     Davidson diagonalization with overlap
     ethr =  4.35E-05,  avg # of iterations =  3.2

     total cpu time spent up to now is      574.7 secs

     total energy              =   -5268.14466654 Ry
     Harris-Foulkes estimate   =   -5268.12697525 Ry
     estimated scf accuracy    <       0.13299095 Ry

     total magnetization       =    30.92 Bohr mag/cell
     absolute magnetization    =    31.63 Bohr mag/cell

     iteration #  7     ecut=    71.00 Ry     beta= 0.10
     Davidson diagonalization with overlap
     ethr =  4.35E-05,  avg # of iterations =  2.0

     total cpu time spent up to now is      646.6 secs

     total energy              =   -5268.15329863 Ry
     Harris-Foulkes estimate   =   -5268.15261306 Ry
     estimated scf accuracy    <       0.09916669 Ry

     total magnetization       =    31.45 Bohr mag/cell
     absolute magnetization    =    32.36 Bohr mag/cell

     iteration #  8     ecut=    71.00 Ry     beta= 0.10
     Davidson diagonalization with overlap
     ethr =  3.87E-05,  avg # of iterations =  1.0

     negative rho (up, down):  0.000E+00 1.781E-03

     total cpu time spent up to now is      702.3 secs

     total energy              =   -5268.17038085 Ry
     Harris-Foulkes estimate   =   -5268.15465318 Ry
     estimated scf accuracy    <       0.07704271 Ry

     total magnetization       =    31.60 Bohr mag/cell
     absolute magnetization    =    32.58 Bohr mag/cell

     iteration #  9     ecut=    71.00 Ry     beta= 0.10
     Davidson diagonalization with overlap
     ethr =  3.01E-05,  avg # of iterations =  2.7

     negative rho (up, down):  0.000E+00 2.151E-03

     total cpu time spent up to now is      792.7 secs

     total energy              =   -5268.18945308 Ry
     Harris-Foulkes estimate   =   -5268.18746135 Ry
     estimated scf accuracy    <       0.03103677 Ry

     total magnetization       =    32.34 Bohr mag/cell
     absolute magnetization    =    33.75 Bohr mag/cell

     iteration # 10     ecut=    71.00 Ry     beta= 0.10
     Davidson diagonalization with overlap
     ethr =  1.21E-05,  avg # of iterations =  1.0

     negative rho (up, down):  0.000E+00 2.513E-03

     total cpu time spent up to now is      848.6 secs

     total energy              =   -5268.18790054 Ry
     Harris-Foulkes estimate   =   -5268.19015445 Ry
     estimated scf accuracy    <       0.01627759 Ry

     total magnetization       =    32.48 Bohr mag/cell
     absolute magnetization    =    33.94 Bohr mag/cell

     iteration # 11     ecut=    71.00 Ry     beta= 0.10
     Davidson diagonalization with overlap
     ethr =  6.36E-06,  avg # of iterations =  2.4

     negative rho (up, down):  0.000E+00 2.559E-03

     total cpu time spent up to now is      923.9 secs

     total energy              =   -5268.18870824 Ry
     Harris-Foulkes estimate   =   -5268.18891846 Ry
     estimated scf accuracy    <       0.00167480 Ry

     total magnetization       =    32.65 Bohr mag/cell
     absolute magnetization    =    34.26 Bohr mag/cell

     iteration # 12     ecut=    71.00 Ry     beta= 0.10
     Davidson diagonalization with overlap
     ethr =  6.54E-07,  avg # of iterations =  2.8

     negative rho (up, down):  0.000E+00 2.582E-03

     total cpu time spent up to now is     1005.3 secs

     total energy              =   -5268.18900880 Ry
     Harris-Foulkes estimate   =   -5268.18885149 Ry
     estimated scf accuracy    <       0.00080210 Ry

     total magnetization       =    32.70 Bohr mag/cell
     absolute magnetization    =    34.34 Bohr mag/cell

     iteration # 13     ecut=    71.00 Ry     beta= 0.10
     Davidson diagonalization with overlap
     ethr =  3.13E-07,  avg # of iterations =  2.1

     negative rho (up, down):  0.000E+00 2.529E-03

     total cpu time spent up to now is     1073.9 secs

     total energy              =   -5268.18899590 Ry
     Harris-Foulkes estimate   =   -5268.18908565 Ry
     estimated scf accuracy    <       0.00113943 Ry

     total magnetization       =    32.74 Bohr mag/cell
     absolute magnetization    =    34.42 Bohr mag/cell

     iteration # 14     ecut=    71.00 Ry     beta= 0.10
     Davidson diagonalization with overlap
     ethr =  3.13E-07,  avg # of iterations =  2.7

     negative rho (up, down):  0.000E+00 2.479E-03

     total cpu time spent up to now is     1157.7 secs

     total energy              =   -5268.18925004 Ry
     Harris-Foulkes estimate   =   -5268.18914909 Ry
     estimated scf accuracy    <       0.00054652 Ry

     total magnetization       =    32.78 Bohr mag/cell
     absolute magnetization    =    34.50 Bohr mag/cell

     iteration # 15     ecut=    71.00 Ry     beta= 0.10
     Davidson diagonalization with overlap
     ethr =  2.13E-07,  avg # of iterations =  1.3

     negative rho (up, down):  0.000E+00 2.483E-03

     total cpu time spent up to now is     1217.5 secs

     total energy              =   -5268.18931720 Ry
     Harris-Foulkes estimate   =   -5268.18927928 Ry
     estimated scf accuracy    <       0.00018692 Ry

     total magnetization       =    32.79 Bohr mag/cell
     absolute magnetization    =    34.51 Bohr mag/cell

     iteration # 16     ecut=    71.00 Ry     beta= 0.10
     Davidson diagonalization with overlap
     ethr =  7.30E-08,  avg # of iterations =  2.6

     negative rho (up, down):  0.000E+00 2.459E-03

     total cpu time spent up to now is     1297.1 secs

     total energy              =   -5268.18938019 Ry
     Harris-Foulkes estimate   =   -5268.18933680 Ry
     estimated scf accuracy    <       0.00010306 Ry

     total magnetization       =    32.82 Bohr mag/cell
     absolute magnetization    =    34.56 Bohr mag/cell

     iteration # 17     ecut=    71.00 Ry     beta= 0.10
     Davidson diagonalization with overlap
     ethr =  4.03E-08,  avg # of iterations =  2.1

     negative rho (up, down):  0.000E+00 2.397E-03

     total cpu time spent up to now is     1369.2 secs

     total energy              =   -5268.18941295 Ry
     Harris-Foulkes estimate   =   -5268.18938881 Ry
     estimated scf accuracy    <       0.00006847 Ry

     total magnetization       =    32.83 Bohr mag/cell
     absolute magnetization    =    34.58 Bohr mag/cell

     iteration # 18     ecut=    71.00 Ry     beta= 0.10
     Davidson diagonalization with overlap
     ethr =  2.67E-08,  avg # of iterations =  2.6

     negative rho (up, down):  0.000E+00 2.417E-03

     total cpu time spent up to now is     1455.5 secs

     total energy              =   -5268.18944076 Ry
     Harris-Foulkes estimate   =   -5268.18943306 Ry
     estimated scf accuracy    <       0.00003860 Ry

     total magnetization       =    32.85 Bohr mag/cell
     absolute magnetization    =    34.60 Bohr mag/cell

     iteration # 19     ecut=    71.00 Ry     beta= 0.10
     Davidson diagonalization with overlap
     ethr =  1.51E-08,  avg # of iterations =  2.1

     negative rho (up, down):  0.000E+00 2.421E-03

     total cpu time spent up to now is     1527.6 secs

     total energy              =   -5268.18944464 Ry
     Harris-Foulkes estimate   =   -5268.18944443 Ry
     estimated scf accuracy    <       0.00002238 Ry

     total magnetization       =    32.87 Bohr mag/cell
     absolute magnetization    =    34.63 Bohr mag/cell

     iteration # 20     ecut=    71.00 Ry     beta= 0.10
     Davidson diagonalization with overlap
     ethr =  8.74E-09,  avg # of iterations =  1.1

     negative rho (up, down):  0.000E+00 2.466E-03

     total cpu time spent up to now is     1584.0 secs

     total energy              =   -5268.18944332 Ry
     Harris-Foulkes estimate   =   -5268.18944548 Ry
     estimated scf accuracy    <       0.00001929 Ry

     total magnetization       =    32.87 Bohr mag/cell
     absolute magnetization    =    34.63 Bohr mag/cell

     iteration # 21     ecut=    71.00 Ry     beta= 0.10
     Davidson diagonalization with overlap
     ethr =  7.54E-09,  avg # of iterations =  3.1

     negative rho (up, down):  0.000E+00 2.467E-03

     total cpu time spent up to now is     1675.6 secs

     total energy              =   -5268.18944934 Ry
     Harris-Foulkes estimate   =   -5268.18944782 Ry
     estimated scf accuracy    <       0.00000645 Ry

     total magnetization       =    32.89 Bohr mag/cell
     absolute magnetization    =    34.66 Bohr mag/cell

     iteration # 22     ecut=    71.00 Ry     beta= 0.10
     Davidson diagonalization with overlap
     ethr =  2.52E-09,  avg # of iterations =  1.0

     negative rho (up, down):  0.000E+00 2.462E-03

     total cpu time spent up to now is     1730.7 secs

     total energy              =   -5268.18945239 Ry
     Harris-Foulkes estimate   =   -5268.18944963 Ry
     estimated scf accuracy    <       0.00000417 Ry

     total magnetization       =    32.89 Bohr mag/cell
     absolute magnetization    =    34.66 Bohr mag/cell

     iteration # 23     ecut=    71.00 Ry     beta= 0.10
     Davidson diagonalization with overlap
     ethr =  1.63E-09,  avg # of iterations =  2.3

     negative rho (up, down):  0.000E+00 2.454E-03

     total cpu time spent up to now is     1805.4 secs

     total energy              =   -5268.18945395 Ry
     Harris-Foulkes estimate   =   -5268.18945301 Ry
     estimated scf accuracy    <       0.00000221 Ry

     total magnetization       =    32.90 Bohr mag/cell
     absolute magnetization    =    34.67 Bohr mag/cell

     iteration # 24     ecut=    71.00 Ry     beta= 0.10
     Davidson diagonalization with overlap
     ethr =  8.63E-10,  avg # of iterations =  2.6

     negative rho (up, down):  0.000E+00 2.451E-03

     total cpu time spent up to now is     1885.4 secs

     total energy              =   -5268.18945482 Ry
     Harris-Foulkes estimate   =   -5268.18945426 Ry
     estimated scf accuracy    <       0.00000165 Ry

     total magnetization       =    32.90 Bohr mag/cell
     absolute magnetization    =    34.66 Bohr mag/cell

     iteration # 25     ecut=    71.00 Ry     beta= 0.10
     Davidson diagonalization with overlap
     ethr =  6.45E-10,  avg # of iterations =  1.8

     negative rho (up, down):  0.000E+00 2.464E-03
 
     Magnetic moment per site:
     atom:    1    charge:   14.3665    magn:    2.0995    constr:    0.0000
     atom:    2    charge:   14.3664    magn:    2.1016    constr:    0.0000
     atom:    3    charge:   14.3665    magn:    2.1002    constr:    0.0000
     atom:    4    charge:   14.3664    magn:    2.1016    constr:    0.0000
     atom:    5    charge:   14.3666    magn:    2.1001    constr:    0.0000
     atom:    6    charge:   14.3664    magn:    2.1016    constr:    0.0000
     atom:    7    charge:   14.3664    magn:    2.1004    constr:    0.0000
     atom:    8    charge:   14.3664    magn:    2.1016    constr:    0.0000
     atom:    9    charge:   14.3665    magn:    2.0984    constr:    0.0000
     atom:   10    charge:   14.3664    magn:    2.1016    constr:    0.0000
     atom:   11    charge:   14.3663    magn:    2.0988    constr:    0.0000
     atom:   12    charge:   14.3664    magn:    2.1016    constr:    0.0000
     atom:   13    charge:   14.3665    magn:    2.0988    constr:    0.0000
     atom:   14    charge:   14.3664    magn:    2.1016    constr:    0.0000
     atom:   15    charge:   14.3664    magn:    2.0994    constr:    0.0000
     atom:   16    charge:   14.3664    magn:    2.1016    constr:    0.0000

     total cpu time spent up to now is     1949.9 secs

     End of self-consistent calculation

     Number of k-points >= 100: set verbosity='high' to print the bands.

     the Fermi energy is    18.9743 ev

!    total energy              =   -5268.18945663 Ry
     Harris-Foulkes estimate   =   -5268.18945493 Ry
     estimated scf accuracy    <       0.00000070 Ry

     total all-electron energy =    -40728.933986 Ry

     The total energy is the sum of the following terms:

     one-electron contribution =   -1707.42954442 Ry
     hartree contribution      =    1022.27632489 Ry
     xc contribution           =    -444.25963003 Ry
     ewald contribution        =   -2814.22970922 Ry
     one-center paw contrib.   =   -1324.67105510 Ry
     smearing contrib. (-TS)   =       0.12415723 Ry

     total magnetization       =    32.90 Bohr mag/cell
     absolute magnetization    =    34.66 Bohr mag/cell

     convergence has been achieved in  25 iterations

     negative rho (up, down):  0.000E+00 2.464E-03

     Forces acting on atoms (cartesian axes, Ry/au):

     atom    1 type  1   force =     0.00000000    0.00000000    0.00000000
     atom    2 type  2   force =    -0.00007235    0.00024866    0.00008826
     atom    3 type  1   force =     0.00000000    0.00000000    0.00000000
     atom    4 type  2   force =    -0.00007235    0.00024866   -0.00008826
     atom    5 type  1   force =     0.00000000    0.00000000    0.00000000
     atom    6 type  2   force =    -0.00007235   -0.00024866    0.00008826
     atom    7 type  1   force =     0.00000000    0.00000000    0.00000000
     atom    8 type  2   force =    -0.00007235   -0.00024866   -0.00008826
     atom    9 type  1   force =     0.00000000    0.00000000    0.00000000
     atom   10 type  2   force =     0.00007235    0.00024866    0.00008826
     atom   11 type  1   force =     0.00000000    0.00000000    0.00000000
     atom   12 type  2   force =     0.00007235    0.00024866   -0.00008826
     atom   13 type  1   force =     0.00000000    0.00000000    0.00000000
     atom   14 type  2   force =     0.00007235   -0.00024866    0.00008826
     atom   15 type  1   force =     0.00000000    0.00000000    0.00000000
     atom   16 type  2   force =     0.00007235   -0.00024866   -0.00008826

     Total force =     0.000774     Total SCF correction =     0.004907
     SCF correction compared to forces is large: reduce conv_thr to get better values


     Computing stress (Cartesian axis) and pressure


     negative rho (up, down):  0.000E+00 2.464E-03
          total   stress  (Ry/bohr**3)                   (kbar)     P=   -3.01
  -0.00003229   0.00000000   0.00000000         -4.75      0.00      0.00
   0.00000000  -0.00000873   0.00000000          0.00     -1.28      0.00
   0.00000000   0.00000000  -0.00002041          0.00      0.00     -3.00


     Writing output data file LmOIKMWpSxlfosQw.save/
 
     init_run     :     21.15s CPU     22.06s WALL (       1 calls)
     electrons    :   1867.43s CPU   1926.46s WALL (       1 calls)
     forces       :      7.49s CPU      8.17s WALL (       1 calls)
     stress       :     20.62s CPU     20.88s WALL (       1 calls)

     Called by init_run:
     wfcinit      :     20.69s CPU     21.53s WALL (       1 calls)
     potinit      :      0.20s CPU      0.23s WALL (       1 calls)
     hinit0       :      0.16s CPU      0.17s WALL (       1 calls)

     Called by electrons:
     c_bands      :   1682.25s CPU   1731.25s WALL (      26 calls)
     sum_band     :    179.88s CPU    189.24s WALL (      26 calls)
     v_of_rho     :      0.42s CPU      0.43s WALL (      26 calls)
     newd         :      0.81s CPU      1.05s WALL (      26 calls)
     PAW_pot      :      3.94s CPU      4.26s WALL (      26 calls)
     mix_rho      :      0.16s CPU      0.17s WALL (      26 calls)

     Called by c_bands:
     init_us_2    :      9.20s CPU      9.41s WALL (   13750 calls)
     cegterg      :   1635.83s CPU   1684.06s WALL (    6500 calls)

     Called by sum_band:
     sum_band:bec :      2.53s CPU      2.56s WALL (    6500 calls)
     addusdens    :      1.27s CPU      1.47s WALL (      26 calls)

     Called by *egterg:
     h_psi        :    709.60s CPU    739.25s WALL (   20783 calls)
     s_psi        :     37.52s CPU     37.78s WALL (   20783 calls)
     g_psi        :      1.53s CPU      1.55s WALL (   14033 calls)
     cdiaghg      :    723.16s CPU    725.65s WALL (   20283 calls)

     Called by h_psi:
     h_psi:pot    :    705.33s CPU    734.93s WALL (   20783 calls)
     h_psi:calbec :     58.41s CPU     67.34s WALL (   20783 calls)
     vloc_psi     :    608.73s CPU    629.14s WALL (   20783 calls)
     add_vuspsi   :     38.01s CPU     38.32s WALL (   20783 calls)

     General routines
     calbec       :     89.32s CPU    103.25s WALL (   28533 calls)
     fft          :      0.48s CPU      0.51s WALL (     692 calls)
     ffts         :      0.10s CPU      0.31s WALL (     104 calls)
     fftw         :    710.00s CPU    733.58s WALL ( 5385866 calls)
     interpolate  :      0.12s CPU      0.21s WALL (      52 calls)
 
     Parallel routines
     fft_scatt_xy :     46.20s CPU     47.70s WALL ( 5386662 calls)
     fft_scatt_yz :    478.33s CPU    494.71s WALL ( 5386662 calls)
 
     PWSCF        : 32m11.94s CPU    34m 1.89s WALL

 
   This run was terminated on:  17:33:33   2Nov2020            

=------------------------------------------------------------------------------=
   JOB DONE.
=------------------------------------------------------------------------------=
