--------------------------------------------------------------------------
WARNING: There was an error initializing an OpenFabrics device.

  Local host:   bear-pg0211u09a
  Local device: mlx5_0
--------------------------------------------------------------------------

     Program PWSCF v.6.3 starts on 11Oct2020 at  4:57:20 

     This program is part of the open-source Quantum ESPRESSO suite
     for quantum simulation of materials; please cite
         "P. Giannozzi et al., J. Phys.:Condens. Matter 21 395502 (2009);
         "P. Giannozzi et al., J. Phys.:Condens. Matter 29 465901 (2017);
          URL http://www.quantum-espresso.org", 
     in publications or presentations arising from this work. More details at
     http://www.quantum-espresso.org/quote

     Parallel version (MPI & OpenMP), running on      40 processor cores
     Number of MPI processes:                40
     Threads/MPI process:                     1

     MPI processes distributed on     1 nodes
     R & G space division:  proc/nbgrp/npool/nimage =      40
     Reading input from wd/ec/ec_3_002.in
Warning: card &IONS ignored
Warning: card ION_DYNAMICS = 'BFGS', ignored
Warning: card / ignored
Warning: card &CELL ignored
Warning: card CELL_DYNAMICS = 'BFGS', ignored
Warning: card CELL_FACTOR = 2.0, ignored
Warning: card PRESS = 0.0, ignored
Warning: card / ignored

     Current dimensions of program PWSCF are:
     Max number of different atomic species (ntypx) = 10
     Max number of k-points (npk) =  40000
     Max angular momentum in pseudopotentials (lmaxx) =  3
               file Fe.pbe-spn-kjpaw_psl.1.0.0.UPF: wavefunction(s)  3P 3D renormalized
               file Fe.pbe-spn-kjpaw_psl.1.0.0.UPF: wavefunction(s)  3P 3D renormalized
               file Fe.pbe-spn-kjpaw_psl.1.0.0.UPF: wavefunction(s)  3P 3D renormalized
               file Fe.pbe-spn-kjpaw_psl.1.0.0.UPF: wavefunction(s)  3P 3D renormalized

     Subspace diagonalization in iterative solution of the eigenvalue problem:
     a serial algorithm will be used

     Found symmetry operation: I + (  0.0000  0.0000 -0.5000)
     This is a supercell, fractional translations are disabled
 
     Parallelization info
     --------------------
     sticks:   dense  smooth     PW     G-vecs:    dense   smooth      PW
     Min         150      99     27                 8608     4623     665
     Max         151     100     28                 8615     4628     668
     Sum        6035    3993   1103               344471   185013   26643
 


     bravais-lattice index     =            0
     lattice parameter (alat)  =      12.9382  a.u.
     unit-cell volume          =    2287.5656 (a.u.)^3
     number of atoms/cell      =           32
     number of atomic types    =            4
     number of electrons       =       512.00
     number of Kohn-Sham states=          307
     kinetic-energy cutoff     =      71.0000  Ry
     charge density cutoff     =     430.0000  Ry
     convergence threshold     =      1.0E-06
     mixing beta               =       0.1000
     number of iterations used =           10  plain     mixing
     Exchange-correlation      = SLA PW PBX PBC ( 1  4  3  4 0 0)

     celldm(1)=  12.938187  celldm(2)=   0.000000  celldm(3)=   0.000000
     celldm(4)=   0.000000  celldm(5)=   0.000000  celldm(6)=   0.000000

     crystal axes: (cart. coord. in units of alat)
               a(1) = (   1.000000   0.000000   0.000000 )  
               a(2) = (   0.000000   1.054474   0.000000 )  
               a(3) = (   0.000000   0.000000   1.001654 )  

     reciprocal axes: (cart. coord. in units 2 pi/alat)
               b(1) = (  1.000000  0.000000  0.000000 )  
               b(2) = (  0.000000  0.948340  0.000000 )  
               b(3) = (  0.000000  0.000000  0.998349 )  


     PseudoPot. # 1 for Fe read from file:
     /rds/homes/b/bxp912/pp/Fe.pbe-spn-kjpaw_psl.1.0.0.UPF
     MD5 check sum: 42f43b795421b414b0dc916aa790dbcb
     Pseudo is Projector augmented-wave + core cor, Zval = 16.0
     Generated using "atomic" code by A. Dal Corso v.6.3
     Shape of augmentation charge: PSQ
     Using radial grid of 1191 points,  6 beta functions with: 
                l(1) =   0
                l(2) =   0
                l(3) =   1
                l(4) =   1
                l(5) =   2
                l(6) =   2
     Q(r) pseudized with 0 coefficients 


     PseudoPot. # 2 for Fe read from file:
     /rds/homes/b/bxp912/pp/Fe.pbe-spn-kjpaw_psl.1.0.0.UPF
     MD5 check sum: 42f43b795421b414b0dc916aa790dbcb
     Pseudo is Projector augmented-wave + core cor, Zval = 16.0
     Generated using "atomic" code by A. Dal Corso v.6.3
     Shape of augmentation charge: PSQ
     Using radial grid of 1191 points,  6 beta functions with: 
                l(1) =   0
                l(2) =   0
                l(3) =   1
                l(4) =   1
                l(5) =   2
                l(6) =   2
     Q(r) pseudized with 0 coefficients 


     PseudoPot. # 3 for Fe read from file:
     /rds/homes/b/bxp912/pp/Fe.pbe-spn-kjpaw_psl.1.0.0.UPF
     MD5 check sum: 42f43b795421b414b0dc916aa790dbcb
     Pseudo is Projector augmented-wave + core cor, Zval = 16.0
     Generated using "atomic" code by A. Dal Corso v.6.3
     Shape of augmentation charge: PSQ
     Using radial grid of 1191 points,  6 beta functions with: 
                l(1) =   0
                l(2) =   0
                l(3) =   1
                l(4) =   1
                l(5) =   2
                l(6) =   2
     Q(r) pseudized with 0 coefficients 


     PseudoPot. # 4 for Fe read from file:
     /rds/homes/b/bxp912/pp/Fe.pbe-spn-kjpaw_psl.1.0.0.UPF
     MD5 check sum: 42f43b795421b414b0dc916aa790dbcb
     Pseudo is Projector augmented-wave + core cor, Zval = 16.0
     Generated using "atomic" code by A. Dal Corso v.6.3
     Shape of augmentation charge: PSQ
     Using radial grid of 1191 points,  6 beta functions with: 
                l(1) =   0
                l(2) =   0
                l(3) =   1
                l(4) =   1
                l(5) =   2
                l(6) =   2
     Q(r) pseudized with 0 coefficients 


     atomic species   valence    mass     pseudopotential
        Fe1           16.00    55.84500     Fe( 1.00)
        Fe2           16.00    55.84500     Fe( 1.00)
        Fe3           16.00    55.84500     Fe( 1.00)
        Fe4           16.00    55.84500     Fe( 1.00)

     Starting magnetic structure 
     atomic species   magnetization
        Fe1          0.100
        Fe2         -0.100
        Fe3          0.100
        Fe4         -0.100

      8 Sym. Ops., with inversion, found



   Cartesian axes

     site n.     atom                  positions (alat units)
         1           Fe1 tau(   1) = (   0.0000000   0.0000000   0.0000000  )
         2           Fe2 tau(   2) = (   0.2499968   0.2636211   0.0000000  )
         3           Fe3 tau(   3) = (   0.2499981   0.0000000   0.2504114  )
         4           Fe4 tau(   4) = (   0.0000000   0.2636197   0.2504174  )
         5           Fe1 tau(   5) = (   0.0000000   0.0000000   0.5008268  )
         6           Fe2 tau(   6) = (   0.2499996   0.2636239   0.5008268  )
         7           Fe3 tau(   7) = (   0.2499981   0.0000000   0.7512412  )
         8           Fe4 tau(   8) = (   0.0000000   0.2636197   0.7512352  )
         9           Fe1 tau(   9) = (   0.0000000   0.5272369   0.0000000  )
        10           Fe2 tau(  10) = (   0.2499968   0.7908529   0.0000000  )
        11           Fe3 tau(  11) = (   0.2500004   0.5272369   0.2504154  )
        12           Fe4 tau(  12) = (   0.0000000   0.7908543   0.2504174  )
        13           Fe1 tau(  13) = (   0.0000000   0.5272369   0.5008268  )
        14           Fe2 tau(  14) = (   0.2499996   0.7908501   0.5008268  )
        15           Fe3 tau(  15) = (   0.2500004   0.5272369   0.7512382  )
        16           Fe4 tau(  16) = (   0.0000000   0.7908543   0.7512352  )
        17           Fe1 tau(  17) = (   0.4999998   0.0000000   0.0000000  )
        18           Fe2 tau(  18) = (   0.7500027   0.2636211   0.0000000  )
        19           Fe3 tau(  19) = (   0.7500015   0.0000000   0.2504114  )
        20           Fe4 tau(  20) = (   0.4999998   0.2636187   0.2504154  )
        21           Fe1 tau(  21) = (   0.4999998   0.0000000   0.5008268  )
        22           Fe2 tau(  22) = (   0.7499998   0.2636239   0.5008268  )
        23           Fe3 tau(  23) = (   0.7500015   0.0000000   0.7512412  )
        24           Fe4 tau(  24) = (   0.4999998   0.2636187   0.7512372  )
        25           Fe1 tau(  25) = (   0.4999998   0.5272369   0.0000000  )
        26           Fe2 tau(  26) = (   0.7500027   0.7908529   0.0000000  )
        27           Fe3 tau(  27) = (   0.7499992   0.5272369   0.2504154  )
        28           Fe4 tau(  28) = (   0.4999998   0.7908553   0.2504154  )
        29           Fe1 tau(  29) = (   0.4999998   0.5272369   0.5008268  )
        30           Fe2 tau(  30) = (   0.7499998   0.7908501   0.5008268  )
        31           Fe3 tau(  31) = (   0.7499992   0.5272369   0.7512382  )
        32           Fe4 tau(  32) = (   0.4999998   0.7908553   0.7512372  )

     number of k points=   125  Marzari-Vanderbilt smearing, width (Ry)=  0.0400

     Number of k-points >= 100: set verbosity='high' to print them.

     Dense  grid:   344471 G-vectors     FFT dimensions: (  90,  96,  90)

     Smooth grid:   185013 G-vectors     FFT dimensions: (  72,  75,  72)

     Estimated max dynamical RAM per process >     812.15 MB

     Estimated total dynamical RAM >      31.72 GB
     Generating pointlists ...
     new r_m :   0.1460 (alat units)  1.8885 (a.u.) for type    1
     new r_m :   0.1460 (alat units)  1.8885 (a.u.) for type    2
     new r_m :   0.1460 (alat units)  1.8885 (a.u.) for type    3
     new r_m :   0.1460 (alat units)  1.8885 (a.u.) for type    4

     Check: negative/imaginary core charge=   -0.000006    0.000000

     Initial potential from superposition of free atoms

     starting charge  511.98600, renormalised to  512.00000
     Starting wfcs are  320 randomized atomic wfcs
     Checking if some PAW data can be deallocated... 

     total cpu time spent up to now is       84.9 secs

     Self-consistent Calculation

     iteration #  1     ecut=    71.00 Ry     beta= 0.10
     Davidson diagonalization with overlap
     ethr =  1.00E-02,  avg # of iterations =  3.6

     Threshold (ethr) on eigenvalues was too large:
     Diagonalizing with lowered threshold

     Davidson diagonalization with overlap
     ethr =  3.18E-04,  avg # of iterations =  4.0

     total cpu time spent up to now is     1016.6 secs

     total energy              =  -10536.43282009 Ry
     Harris-Foulkes estimate   =  -10536.77345198 Ry
     estimated scf accuracy    <       1.87679475 Ry

     total magnetization       =     0.23 Bohr mag/cell
     absolute magnetization    =    44.27 Bohr mag/cell

     iteration #  2     ecut=    71.00 Ry     beta= 0.10
     Davidson diagonalization with overlap
     ethr =  3.67E-04,  avg # of iterations =  1.0

     total cpu time spent up to now is     1243.5 secs

     total energy              =  -10536.21366848 Ry
     Harris-Foulkes estimate   =  -10536.47831326 Ry
     estimated scf accuracy    <       1.11221543 Ry

     total magnetization       =    -0.11 Bohr mag/cell
     absolute magnetization    =    44.99 Bohr mag/cell

     iteration #  3     ecut=    71.00 Ry     beta= 0.10
     Davidson diagonalization with overlap
     ethr =  2.17E-04,  avg # of iterations =  2.3

     total cpu time spent up to now is     1560.3 secs

     total energy              =  -10536.08015232 Ry
     Harris-Foulkes estimate   =  -10536.35299832 Ry
     estimated scf accuracy    <       2.70978229 Ry

     total magnetization       =     0.24 Bohr mag/cell
     absolute magnetization    =    45.36 Bohr mag/cell

     iteration #  4     ecut=    71.00 Ry     beta= 0.10
     Davidson diagonalization with overlap
     ethr =  2.17E-04,  avg # of iterations =  2.5

     total cpu time spent up to now is     1880.9 secs

     total energy              =  -10536.18191865 Ry
     Harris-Foulkes estimate   =  -10536.21329110 Ry
     estimated scf accuracy    <       0.51761400 Ry

     total magnetization       =     0.35 Bohr mag/cell
     absolute magnetization    =    46.38 Bohr mag/cell

     iteration #  5     ecut=    71.00 Ry     beta= 0.10
     Davidson diagonalization with overlap
     ethr =  1.01E-04,  avg # of iterations =  1.3

     total cpu time spent up to now is     2128.0 secs

     total energy              =  -10536.19255679 Ry
     Harris-Foulkes estimate   =  -10536.20138130 Ry
     estimated scf accuracy    <       0.08333150 Ry

     total magnetization       =     0.02 Bohr mag/cell
     absolute magnetization    =    46.52 Bohr mag/cell

     iteration #  6     ecut=    71.00 Ry     beta= 0.10
     Davidson diagonalization with overlap
     ethr =  1.63E-05,  avg # of iterations =  3.4

     total cpu time spent up to now is     2517.3 secs

     total energy              =  -10536.18380059 Ry
     Harris-Foulkes estimate   =  -10536.19601672 Ry
     estimated scf accuracy    <       0.06798457 Ry

     total magnetization       =    -0.11 Bohr mag/cell
     absolute magnetization    =    46.48 Bohr mag/cell

     iteration #  7     ecut=    71.00 Ry     beta= 0.10
     Davidson diagonalization with overlap
     ethr =  1.33E-05,  avg # of iterations =  3.8

     total cpu time spent up to now is     3068.1 secs

     total energy              =  -10536.19931706 Ry
     Harris-Foulkes estimate   =  -10536.20493244 Ry
     estimated scf accuracy    <       0.08853465 Ry

     total magnetization       =     0.06 Bohr mag/cell
     absolute magnetization    =    46.64 Bohr mag/cell

     iteration #  8     ecut=    71.00 Ry     beta= 0.10
     Davidson diagonalization with overlap
     ethr =  1.33E-05,  avg # of iterations =  2.0

     total cpu time spent up to now is     3372.5 secs

     total energy              =  -10536.20236492 Ry
     Harris-Foulkes estimate   =  -10536.20334294 Ry
     estimated scf accuracy    <       0.05825586 Ry

     total magnetization       =     0.04 Bohr mag/cell
     absolute magnetization    =    46.94 Bohr mag/cell

     iteration #  9     ecut=    71.00 Ry     beta= 0.10
     Davidson diagonalization with overlap
     ethr =  1.14E-05,  avg # of iterations =  1.0

     total cpu time spent up to now is     3601.4 secs

     total energy              =  -10536.21229659 Ry
     Harris-Foulkes estimate   =  -10536.20329370 Ry
     estimated scf accuracy    <       0.03791329 Ry

     total magnetization       =     0.01 Bohr mag/cell
     absolute magnetization    =    47.02 Bohr mag/cell

     iteration # 10     ecut=    71.00 Ry     beta= 0.10
     Davidson diagonalization with overlap
     ethr =  7.40E-06,  avg # of iterations =  2.6

     total cpu time spent up to now is     3948.5 secs

     total energy              =  -10536.23598715 Ry
     Harris-Foulkes estimate   =  -10536.21487998 Ry
     estimated scf accuracy    <       0.03150522 Ry

     total magnetization       =    -0.08 Bohr mag/cell
     absolute magnetization    =    47.34 Bohr mag/cell

     iteration # 11     ecut=    71.00 Ry     beta= 0.10
     Davidson diagonalization with overlap
     ethr =  6.15E-06,  avg # of iterations =  3.7

     total cpu time spent up to now is     4484.3 secs

     total energy              =  -10536.24858592 Ry
     Harris-Foulkes estimate   =  -10536.24707823 Ry
     estimated scf accuracy    <       0.02852387 Ry

     total magnetization       =    -0.12 Bohr mag/cell
     absolute magnetization    =    48.12 Bohr mag/cell

     iteration # 12     ecut=    71.00 Ry     beta= 0.10
     Davidson diagonalization with overlap
     ethr =  5.57E-06,  avg # of iterations =  1.6

     total cpu time spent up to now is     4757.6 secs

     total energy              =  -10536.25002210 Ry
     Harris-Foulkes estimate   =  -10536.25023147 Ry
     estimated scf accuracy    <       0.00752242 Ry

     total magnetization       =    -0.03 Bohr mag/cell
     absolute magnetization    =    48.38 Bohr mag/cell

     iteration # 13     ecut=    71.00 Ry     beta= 0.10
     Davidson diagonalization with overlap
     ethr =  1.47E-06,  avg # of iterations =  3.1

     total cpu time spent up to now is     5171.1 secs

     total energy              =  -10536.25075763 Ry
     Harris-Foulkes estimate   =  -10536.25079466 Ry
     estimated scf accuracy    <       0.00169601 Ry

     total magnetization       =    -0.01 Bohr mag/cell
     absolute magnetization    =    48.54 Bohr mag/cell

     iteration # 14     ecut=    71.00 Ry     beta= 0.10
     Davidson diagonalization with overlap
     ethr =  3.31E-07,  avg # of iterations =  1.1

     total cpu time spent up to now is     5402.4 secs

     total energy              =  -10536.25083399 Ry
     Harris-Foulkes estimate   =  -10536.25079498 Ry
     estimated scf accuracy    <       0.00122254 Ry

     total magnetization       =    -0.01 Bohr mag/cell
     absolute magnetization    =    48.56 Bohr mag/cell

     iteration # 15     ecut=    71.00 Ry     beta= 0.10
     Davidson diagonalization with overlap
     ethr =  2.39E-07,  avg # of iterations =  1.3

     total cpu time spent up to now is     5650.7 secs

     total energy              =  -10536.25103150 Ry
     Harris-Foulkes estimate   =  -10536.25087413 Ry
     estimated scf accuracy    <       0.00090911 Ry

     total magnetization       =    -0.01 Bohr mag/cell
     absolute magnetization    =    48.63 Bohr mag/cell

     iteration # 16     ecut=    71.00 Ry     beta= 0.10
     Davidson diagonalization with overlap
     ethr =  1.78E-07,  avg # of iterations =  1.5

     total cpu time spent up to now is     5915.9 secs

     total energy              =  -10536.25109374 Ry
     Harris-Foulkes estimate   =  -10536.25109103 Ry
     estimated scf accuracy    <       0.00074665 Ry

     total magnetization       =     0.00 Bohr mag/cell
     absolute magnetization    =    48.74 Bohr mag/cell

     iteration # 17     ecut=    71.00 Ry     beta= 0.10
     Davidson diagonalization with overlap
     ethr =  1.46E-07,  avg # of iterations =  1.4

     total cpu time spent up to now is     6175.5 secs

     total energy              =  -10536.25125554 Ry
     Harris-Foulkes estimate   =  -10536.25113699 Ry
     estimated scf accuracy    <       0.00055552 Ry

     total magnetization       =    -0.03 Bohr mag/cell
     absolute magnetization    =    48.78 Bohr mag/cell

     iteration # 18     ecut=    71.00 Ry     beta= 0.10
     Davidson diagonalization with overlap
     ethr =  1.09E-07,  avg # of iterations =  1.5

     total cpu time spent up to now is     6439.8 secs

     total energy              =  -10536.25139331 Ry
     Harris-Foulkes estimate   =  -10536.25128575 Ry
     estimated scf accuracy    <       0.00038191 Ry

     total magnetization       =    -0.00 Bohr mag/cell
     absolute magnetization    =    48.87 Bohr mag/cell

     iteration # 19     ecut=    71.00 Ry     beta= 0.10
     Davidson diagonalization with overlap
     ethr =  7.46E-08,  avg # of iterations =  2.6

     total cpu time spent up to now is     6777.8 secs

     total energy              =  -10536.25155926 Ry
     Harris-Foulkes estimate   =  -10536.25141533 Ry
     estimated scf accuracy    <       0.00029693 Ry

     total magnetization       =    -0.00 Bohr mag/cell
     absolute magnetization    =    48.95 Bohr mag/cell

     iteration # 20     ecut=    71.00 Ry     beta= 0.10
     Davidson diagonalization with overlap
     ethr =  5.80E-08,  avg # of iterations =  3.0

     total cpu time spent up to now is     7167.9 secs

     total energy              =  -10536.25165418 Ry
     Harris-Foulkes estimate   =  -10536.25162798 Ry
     estimated scf accuracy    <       0.00031368 Ry

     total magnetization       =    -0.01 Bohr mag/cell
     absolute magnetization    =    49.15 Bohr mag/cell

     iteration # 21     ecut=    71.00 Ry     beta= 0.10
     Davidson diagonalization with overlap
     ethr =  5.80E-08,  avg # of iterations =  1.0

     total cpu time spent up to now is     7399.4 secs

     total energy              =  -10536.25169850 Ry
     Harris-Foulkes estimate   =  -10536.25166895 Ry
     estimated scf accuracy    <       0.00019072 Ry

     total magnetization       =    -0.01 Bohr mag/cell
     absolute magnetization    =    49.19 Bohr mag/cell

     iteration # 22     ecut=    71.00 Ry     beta= 0.10
     Davidson diagonalization with overlap
     ethr =  3.73E-08,  avg # of iterations =  1.0

     total cpu time spent up to now is     7630.9 secs

     total energy              =  -10536.25172203 Ry
     Harris-Foulkes estimate   =  -10536.25171138 Ry
     estimated scf accuracy    <       0.00012866 Ry

     total magnetization       =    -0.00 Bohr mag/cell
     absolute magnetization    =    49.26 Bohr mag/cell

     iteration # 23     ecut=    71.00 Ry     beta= 0.10
     Davidson diagonalization with overlap
     ethr =  2.51E-08,  avg # of iterations =  1.2

     total cpu time spent up to now is     7873.6 secs

     total energy              =  -10536.25173712 Ry
     Harris-Foulkes estimate   =  -10536.25172674 Ry
     estimated scf accuracy    <       0.00008815 Ry

     total magnetization       =    -0.00 Bohr mag/cell
     absolute magnetization    =    49.30 Bohr mag/cell

     iteration # 24     ecut=    71.00 Ry     beta= 0.10
     Davidson diagonalization with overlap
     ethr =  1.72E-08,  avg # of iterations =  2.1

     total cpu time spent up to now is     8182.8 secs

     total energy              =  -10536.25175228 Ry
     Harris-Foulkes estimate   =  -10536.25174205 Ry
     estimated scf accuracy    <       0.00008683 Ry

     total magnetization       =    -0.01 Bohr mag/cell
     absolute magnetization    =    49.34 Bohr mag/cell

     iteration # 25     ecut=    71.00 Ry     beta= 0.10
     Davidson diagonalization with overlap
     ethr =  1.70E-08,  avg # of iterations =  2.5

     total cpu time spent up to now is     8508.4 secs

     total energy              =  -10536.25176879 Ry
     Harris-Foulkes estimate   =  -10536.25176304 Ry
     estimated scf accuracy    <       0.00007999 Ry

     total magnetization       =    -0.00 Bohr mag/cell
     absolute magnetization    =    49.42 Bohr mag/cell

     iteration # 26     ecut=    71.00 Ry     beta= 0.10
     Davidson diagonalization with overlap
     ethr =  1.56E-08,  avg # of iterations =  2.7

     total cpu time spent up to now is     8858.3 secs

     total energy              =  -10536.25178238 Ry
     Harris-Foulkes estimate   =  -10536.25177976 Ry
     estimated scf accuracy    <       0.00002572 Ry

     total magnetization       =    -0.00 Bohr mag/cell
     absolute magnetization    =    49.50 Bohr mag/cell

     iteration # 27     ecut=    71.00 Ry     beta= 0.10
     Davidson diagonalization with overlap
     ethr =  5.02E-09,  avg # of iterations =  3.0

     total cpu time spent up to now is     9239.2 secs

     total energy              =  -10536.25178731 Ry
     Harris-Foulkes estimate   =  -10536.25178589 Ry
     estimated scf accuracy    <       0.00001585 Ry

     total magnetization       =    -0.00 Bohr mag/cell
     absolute magnetization    =    49.55 Bohr mag/cell

     iteration # 28     ecut=    71.00 Ry     beta= 0.10
     Davidson diagonalization with overlap
     ethr =  3.10E-09,  avg # of iterations =  2.0

     total cpu time spent up to now is     9541.5 secs

     total energy              =  -10536.25179026 Ry
     Harris-Foulkes estimate   =  -10536.25178812 Ry
     estimated scf accuracy    <       0.00001414 Ry

     total magnetization       =    -0.00 Bohr mag/cell
     absolute magnetization    =    49.57 Bohr mag/cell

     iteration # 29     ecut=    71.00 Ry     beta= 0.10
     Davidson diagonalization with overlap
     ethr =  2.76E-09,  avg # of iterations =  1.5

     total cpu time spent up to now is     9805.9 secs

     total energy              =  -10536.25179316 Ry
     Harris-Foulkes estimate   =  -10536.25179082 Ry
     estimated scf accuracy    <       0.00000872 Ry

     total magnetization       =    -0.00 Bohr mag/cell
     absolute magnetization    =    49.58 Bohr mag/cell

     iteration # 30     ecut=    71.00 Ry     beta= 0.10
     Davidson diagonalization with overlap
     ethr =  1.70E-09,  avg # of iterations =  2.1

     total cpu time spent up to now is    10114.1 secs

     total energy              =  -10536.25179401 Ry
     Harris-Foulkes estimate   =  -10536.25179356 Ry
     estimated scf accuracy    <       0.00000735 Ry

     total magnetization       =    -0.00 Bohr mag/cell
     absolute magnetization    =    49.59 Bohr mag/cell

     iteration # 31     ecut=    71.00 Ry     beta= 0.10
     Davidson diagonalization with overlap
     ethr =  1.44E-09,  avg # of iterations =  2.9

     total cpu time spent up to now is    10481.0 secs

     total energy              =  -10536.25179812 Ry
     Harris-Foulkes estimate   =  -10536.25179509 Ry
     estimated scf accuracy    <       0.00000702 Ry

     total magnetization       =    -0.00 Bohr mag/cell
     absolute magnetization    =    49.62 Bohr mag/cell

     iteration # 32     ecut=    71.00 Ry     beta= 0.10
     Davidson diagonalization with overlap
     ethr =  1.37E-09,  avg # of iterations =  3.1

     total cpu time spent up to now is    10906.2 secs

     total energy              =  -10536.25180046 Ry
     Harris-Foulkes estimate   =  -10536.25180033 Ry
     estimated scf accuracy    <       0.00000124 Ry

     total magnetization       =    -0.00 Bohr mag/cell
     absolute magnetization    =    49.65 Bohr mag/cell

     iteration # 33     ecut=    71.00 Ry     beta= 0.10
     Davidson diagonalization with overlap
     ethr =  2.42E-10,  avg # of iterations =  2.0

     total cpu time spent up to now is    11200.6 secs

     total energy              =  -10536.25180073 Ry
     Harris-Foulkes estimate   =  -10536.25180053 Ry
     estimated scf accuracy    <       0.00000147 Ry

     total magnetization       =    -0.00 Bohr mag/cell
     absolute magnetization    =    49.65 Bohr mag/cell

     iteration # 34     ecut=    71.00 Ry     beta= 0.10
     Davidson diagonalization with overlap
     ethr =  2.42E-10,  avg # of iterations =  1.0
 
     Magnetic moment per site:
     atom:    1    charge:   14.3945    magn:    1.4941    constr:    0.0000
     atom:    2    charge:   14.3947    magn:   -1.4941    constr:    0.0000
     atom:    3    charge:   14.3942    magn:    1.4967    constr:    0.0000
     atom:    4    charge:   14.3945    magn:   -1.4983    constr:    0.0000
     atom:    5    charge:   14.3945    magn:    1.4950    constr:    0.0000
     atom:    6    charge:   14.3948    magn:   -1.4934    constr:    0.0000
     atom:    7    charge:   14.3942    magn:    1.4967    constr:    0.0000
     atom:    8    charge:   14.3945    magn:   -1.4983    constr:    0.0000
     atom:    9    charge:   14.3942    magn:    1.4949    constr:    0.0000
     atom:   10    charge:   14.3947    magn:   -1.4941    constr:    0.0000
     atom:   11    charge:   14.3941    magn:    1.4963    constr:    0.0000
     atom:   12    charge:   14.3945    magn:   -1.4983    constr:    0.0000
     atom:   13    charge:   14.3943    magn:    1.4955    constr:    0.0000
     atom:   14    charge:   14.3948    magn:   -1.4934    constr:    0.0000
     atom:   15    charge:   14.3941    magn:    1.4963    constr:    0.0000
     atom:   16    charge:   14.3945    magn:   -1.4983    constr:    0.0000
     atom:   17    charge:   14.3945    magn:    1.4953    constr:    0.0000
     atom:   18    charge:   14.3947    magn:   -1.4941    constr:    0.0000
     atom:   19    charge:   14.3942    magn:    1.4967    constr:    0.0000
     atom:   20    charge:   14.3946    magn:   -1.4974    constr:    0.0000
     atom:   21    charge:   14.3945    magn:    1.4956    constr:    0.0000
     atom:   22    charge:   14.3948    magn:   -1.4934    constr:    0.0000
     atom:   23    charge:   14.3942    magn:    1.4967    constr:    0.0000
     atom:   24    charge:   14.3946    magn:   -1.4974    constr:    0.0000
     atom:   25    charge:   14.3943    magn:    1.4944    constr:    0.0000
     atom:   26    charge:   14.3947    magn:   -1.4941    constr:    0.0000
     atom:   27    charge:   14.3941    magn:    1.4963    constr:    0.0000
     atom:   28    charge:   14.3946    magn:   -1.4974    constr:    0.0000
     atom:   29    charge:   14.3944    magn:    1.4944    constr:    0.0000
     atom:   30    charge:   14.3948    magn:   -1.4934    constr:    0.0000
     atom:   31    charge:   14.3941    magn:    1.4963    constr:    0.0000
     atom:   32    charge:   14.3946    magn:   -1.4974    constr:    0.0000

     total cpu time spent up to now is    11430.2 secs

     End of self-consistent calculation

     Number of k-points >= 100: set verbosity='high' to print the bands.

     the Fermi energy is    20.0796 ev

!    total energy              =  -10536.25180103 Ry
     Harris-Foulkes estimate   =  -10536.25180078 Ry
     estimated scf accuracy    <       0.00000099 Ry

     total all-electron energy =    -81457.740859 Ry

     The total energy is the sum of the following terms:

     one-electron contribution =   -3297.32911369 Ry
     hartree contribution      =    1998.27583790 Ry
     xc contribution           =    -886.91935684 Ry
     ewald contribution        =   -5700.73216622 Ry
     one-center paw contrib.   =   -2649.56053983 Ry
     smearing contrib. (-TS)   =       0.01353766 Ry

     total magnetization       =    -0.00 Bohr mag/cell
     absolute magnetization    =    49.65 Bohr mag/cell

     convergence has been achieved in  34 iterations

     Forces acting on atoms (cartesian axes, Ry/au):

     atom    1 type  1   force =     0.00000000    0.00000000    0.00000000
     atom    2 type  2   force =     0.00001278    0.00008040    0.00000000
     atom    3 type  3   force =     0.00007997    0.00000000   -0.00001528
     atom    4 type  4   force =     0.00000000   -0.00001900   -0.00006070
     atom    5 type  1   force =     0.00000000    0.00000000    0.00000000
     atom    6 type  2   force =     0.00003404    0.00002765    0.00000000
     atom    7 type  3   force =     0.00007997    0.00000000    0.00001528
     atom    8 type  4   force =     0.00000000   -0.00001900    0.00006070
     atom    9 type  1   force =     0.00000000    0.00000000    0.00000000
     atom   10 type  2   force =     0.00001278   -0.00008040    0.00000000
     atom   11 type  3   force =     0.00003528    0.00000000   -0.00002401
     atom   12 type  4   force =     0.00000000    0.00001900   -0.00006070
     atom   13 type  1   force =     0.00000000    0.00000000    0.00000000
     atom   14 type  2   force =     0.00003404   -0.00002765    0.00000000
     atom   15 type  3   force =     0.00003528   -0.00000000    0.00002401
     atom   16 type  4   force =     0.00000000    0.00001900    0.00006070
     atom   17 type  1   force =     0.00000000    0.00000000    0.00000000
     atom   18 type  2   force =    -0.00001278    0.00008040    0.00000000
     atom   19 type  3   force =    -0.00007997    0.00000000   -0.00001528
     atom   20 type  4   force =     0.00000000    0.00008094   -0.00003837
     atom   21 type  1   force =     0.00000000    0.00000000    0.00000000
     atom   22 type  2   force =    -0.00003404    0.00002765    0.00000000
     atom   23 type  3   force =    -0.00007997    0.00000000    0.00001528
     atom   24 type  4   force =     0.00000000    0.00008094    0.00003837
     atom   25 type  1   force =     0.00000000    0.00000000    0.00000000
     atom   26 type  2   force =    -0.00001278   -0.00008040    0.00000000
     atom   27 type  3   force =    -0.00003528   -0.00000000   -0.00002401
     atom   28 type  4   force =     0.00000000   -0.00008094   -0.00003837
     atom   29 type  1   force =     0.00000000    0.00000000    0.00000000
     atom   30 type  2   force =    -0.00003404   -0.00002765    0.00000000
     atom   31 type  3   force =    -0.00003528    0.00000000    0.00002401
     atom   32 type  4   force =     0.00000000   -0.00008094    0.00003837

     Total force =     0.000341     Total SCF correction =     0.006267
     SCF correction compared to forces is large: reduce conv_thr to get better values


     Computing stress (Cartesian axis) and pressure

          total   stress  (Ry/bohr**3)                   (kbar)     P=   -2.92
  -0.00001888   0.00000000   0.00000000         -2.78      0.00      0.00
   0.00000000  -0.00000783   0.00000000          0.00     -1.15      0.00
   0.00000000   0.00000000  -0.00003290          0.00      0.00     -4.84


     Writing output data file IYLFXTDlsSqhALYn.save/
-------------------------------------------------------
Primary job  terminated normally, but 1 process returned
a non-zero exit code.. Per user-direction, the job has been aborted.
-------------------------------------------------------
--------------------------------------------------------------------------
mpirun detected that one or more processes exited with non-zero status, thus causing
the job to be terminated. The first process to do so was:

  Process name: [[37705,1],0]
  Exit code:    38
--------------------------------------------------------------------------
