--------------------------------------------------------------------------
WARNING: No preset parameters were found for the device that Open MPI
detected:

  Local host:            bear-pg0206u13b
  Device name:           mlx5_0
  Device vendor ID:      0x02c9
  Device vendor part ID: 4123

Default device parameters will be used, which may result in lower
performance.  You can edit any of the files specified by the
btl_openib_device_param_files MCA parameter to set values for your
device.

NOTE: You can turn off this warning by setting the MCA parameter
      btl_openib_warn_no_device_params_found to 0.
--------------------------------------------------------------------------
--------------------------------------------------------------------------
WARNING: There was an error initializing an OpenFabrics device.

  Local host:   bear-pg0206u13b
  Local device: mlx5_0
--------------------------------------------------------------------------

     Program PWSCF v.6.3 starts on 12Oct2020 at  4:34:46 

     This program is part of the open-source Quantum ESPRESSO suite
     for quantum simulation of materials; please cite
         "P. Giannozzi et al., J. Phys.:Condens. Matter 21 395502 (2009);
         "P. Giannozzi et al., J. Phys.:Condens. Matter 29 465901 (2017);
          URL http://www.quantum-espresso.org", 
     in publications or presentations arising from this work. More details at
     http://www.quantum-espresso.org/quote

     Parallel version (MPI & OpenMP), running on      40 processor cores
     Number of MPI processes:                40
     Threads/MPI process:                     1

     MPI processes distributed on     1 nodes
     R & G space division:  proc/nbgrp/npool/nimage =      40
     Reading input from wd/ec/ec_3_004.in
Warning: card &IONS ignored
Warning: card ION_DYNAMICS = 'BFGS', ignored
Warning: card / ignored
Warning: card &CELL ignored
Warning: card CELL_DYNAMICS = 'BFGS', ignored
Warning: card CELL_FACTOR = 2.0, ignored
Warning: card PRESS = 0.0, ignored
Warning: card / ignored

     Current dimensions of program PWSCF are:
     Max number of different atomic species (ntypx) = 10
     Max number of k-points (npk) =  40000
     Max angular momentum in pseudopotentials (lmaxx) =  3
               file Fe.pbe-spn-kjpaw_psl.1.0.0.UPF: wavefunction(s)  3P 3D renormalized
               file Fe.pbe-spn-kjpaw_psl.1.0.0.UPF: wavefunction(s)  3P 3D renormalized
               file Fe.pbe-spn-kjpaw_psl.1.0.0.UPF: wavefunction(s)  3P 3D renormalized
               file Fe.pbe-spn-kjpaw_psl.1.0.0.UPF: wavefunction(s)  3P 3D renormalized

     Subspace diagonalization in iterative solution of the eigenvalue problem:
     a serial algorithm will be used

     Found symmetry operation: I + (  0.0000  0.0000 -0.5000)
     This is a supercell, fractional translations are disabled
 
     Parallelization info
     --------------------
     sticks:   dense  smooth     PW     G-vecs:    dense   smooth      PW
     Min         150      99     27                 8638     4637     667
     Max         151     100     28                 8643     4642     670
     Sum        6035    3993   1103               345615   185589   26755
 


     bravais-lattice index     =            0
     lattice parameter (alat)  =      12.9382  a.u.
     unit-cell volume          =    2295.1781 (a.u.)^3
     number of atoms/cell      =           32
     number of atomic types    =            4
     number of electrons       =       512.00
     number of Kohn-Sham states=          307
     kinetic-energy cutoff     =      71.0000  Ry
     charge density cutoff     =     430.0000  Ry
     convergence threshold     =      1.0E-06
     mixing beta               =       0.1000
     number of iterations used =           10  plain     mixing
     Exchange-correlation      = SLA PW PBX PBC ( 1  4  3  4 0 0)

     celldm(1)=  12.938187  celldm(2)=   0.000000  celldm(3)=   0.000000
     celldm(4)=   0.000000  celldm(5)=   0.000000  celldm(6)=   0.000000

     crystal axes: (cart. coord. in units of alat)
               a(1) = (   1.000000   0.000000   0.000000 )  
               a(2) = (   0.000000   1.054474   0.000000 )  
               a(3) = (   0.000000   0.000000   1.004987 )  

     reciprocal axes: (cart. coord. in units 2 pi/alat)
               b(1) = (  1.000000  0.000000  0.000000 )  
               b(2) = (  0.000000  0.948340  0.000000 )  
               b(3) = (  0.000000  0.000000  0.995038 )  


     PseudoPot. # 1 for Fe read from file:
     /rds/homes/b/bxp912/pp/Fe.pbe-spn-kjpaw_psl.1.0.0.UPF
     MD5 check sum: 42f43b795421b414b0dc916aa790dbcb
     Pseudo is Projector augmented-wave + core cor, Zval = 16.0
     Generated using "atomic" code by A. Dal Corso v.6.3
     Shape of augmentation charge: PSQ
     Using radial grid of 1191 points,  6 beta functions with: 
                l(1) =   0
                l(2) =   0
                l(3) =   1
                l(4) =   1
                l(5) =   2
                l(6) =   2
     Q(r) pseudized with 0 coefficients 


     PseudoPot. # 2 for Fe read from file:
     /rds/homes/b/bxp912/pp/Fe.pbe-spn-kjpaw_psl.1.0.0.UPF
     MD5 check sum: 42f43b795421b414b0dc916aa790dbcb
     Pseudo is Projector augmented-wave + core cor, Zval = 16.0
     Generated using "atomic" code by A. Dal Corso v.6.3
     Shape of augmentation charge: PSQ
     Using radial grid of 1191 points,  6 beta functions with: 
                l(1) =   0
                l(2) =   0
                l(3) =   1
                l(4) =   1
                l(5) =   2
                l(6) =   2
     Q(r) pseudized with 0 coefficients 


     PseudoPot. # 3 for Fe read from file:
     /rds/homes/b/bxp912/pp/Fe.pbe-spn-kjpaw_psl.1.0.0.UPF
     MD5 check sum: 42f43b795421b414b0dc916aa790dbcb
     Pseudo is Projector augmented-wave + core cor, Zval = 16.0
     Generated using "atomic" code by A. Dal Corso v.6.3
     Shape of augmentation charge: PSQ
     Using radial grid of 1191 points,  6 beta functions with: 
                l(1) =   0
                l(2) =   0
                l(3) =   1
                l(4) =   1
                l(5) =   2
                l(6) =   2
     Q(r) pseudized with 0 coefficients 


     PseudoPot. # 4 for Fe read from file:
     /rds/homes/b/bxp912/pp/Fe.pbe-spn-kjpaw_psl.1.0.0.UPF
     MD5 check sum: 42f43b795421b414b0dc916aa790dbcb
     Pseudo is Projector augmented-wave + core cor, Zval = 16.0
     Generated using "atomic" code by A. Dal Corso v.6.3
     Shape of augmentation charge: PSQ
     Using radial grid of 1191 points,  6 beta functions with: 
                l(1) =   0
                l(2) =   0
                l(3) =   1
                l(4) =   1
                l(5) =   2
                l(6) =   2
     Q(r) pseudized with 0 coefficients 


     atomic species   valence    mass     pseudopotential
        Fe1           16.00    55.84500     Fe( 1.00)
        Fe2           16.00    55.84500     Fe( 1.00)
        Fe3           16.00    55.84500     Fe( 1.00)
        Fe4           16.00    55.84500     Fe( 1.00)

     Starting magnetic structure 
     atomic species   magnetization
        Fe1          0.100
        Fe2         -0.100
        Fe3          0.100
        Fe4         -0.100

      8 Sym. Ops., with inversion, found



   Cartesian axes

     site n.     atom                  positions (alat units)
         1           Fe1 tau(   1) = (   0.0000000   0.0000000   0.0000000  )
         2           Fe2 tau(   2) = (   0.2499968   0.2636211   0.0000000  )
         3           Fe3 tau(   3) = (   0.2499981   0.0000000   0.2512447  )
         4           Fe4 tau(   4) = (   0.0000000   0.2636197   0.2512508  )
         5           Fe1 tau(   5) = (   0.0000000   0.0000000   0.5024935  )
         6           Fe2 tau(   6) = (   0.2499996   0.2636239   0.5024935  )
         7           Fe3 tau(   7) = (   0.2499981   0.0000000   0.7537412  )
         8           Fe4 tau(   8) = (   0.0000000   0.2636197   0.7537352  )
         9           Fe1 tau(   9) = (   0.0000000   0.5272369   0.0000000  )
        10           Fe2 tau(  10) = (   0.2499968   0.7908529   0.0000000  )
        11           Fe3 tau(  11) = (   0.2500004   0.5272369   0.2512487  )
        12           Fe4 tau(  12) = (   0.0000000   0.7908543   0.2512508  )
        13           Fe1 tau(  13) = (   0.0000000   0.5272369   0.5024935  )
        14           Fe2 tau(  14) = (   0.2499996   0.7908501   0.5024935  )
        15           Fe3 tau(  15) = (   0.2500004   0.5272369   0.7537382  )
        16           Fe4 tau(  16) = (   0.0000000   0.7908543   0.7537352  )
        17           Fe1 tau(  17) = (   0.4999998   0.0000000   0.0000000  )
        18           Fe2 tau(  18) = (   0.7500027   0.2636211   0.0000000  )
        19           Fe3 tau(  19) = (   0.7500015   0.0000000   0.2512447  )
        20           Fe4 tau(  20) = (   0.4999998   0.2636187   0.2512487  )
        21           Fe1 tau(  21) = (   0.4999998   0.0000000   0.5024935  )
        22           Fe2 tau(  22) = (   0.7499998   0.2636239   0.5024935  )
        23           Fe3 tau(  23) = (   0.7500015   0.0000000   0.7537412  )
        24           Fe4 tau(  24) = (   0.4999998   0.2636187   0.7537372  )
        25           Fe1 tau(  25) = (   0.4999998   0.5272369   0.0000000  )
        26           Fe2 tau(  26) = (   0.7500027   0.7908529   0.0000000  )
        27           Fe3 tau(  27) = (   0.7499992   0.5272369   0.2512487  )
        28           Fe4 tau(  28) = (   0.4999998   0.7908553   0.2512487  )
        29           Fe1 tau(  29) = (   0.4999998   0.5272369   0.5024935  )
        30           Fe2 tau(  30) = (   0.7499998   0.7908501   0.5024935  )
        31           Fe3 tau(  31) = (   0.7499992   0.5272369   0.7537382  )
        32           Fe4 tau(  32) = (   0.4999998   0.7908553   0.7537372  )

     number of k points=   125  Marzari-Vanderbilt smearing, width (Ry)=  0.0400

     Number of k-points >= 100: set verbosity='high' to print them.

     Dense  grid:   345615 G-vectors     FFT dimensions: (  90,  96,  90)

     Smooth grid:   185589 G-vectors     FFT dimensions: (  72,  75,  72)

     Estimated max dynamical RAM per process >     814.66 MB

     Estimated total dynamical RAM >      31.82 GB
     Generating pointlists ...
     new r_m :   0.1462 (alat units)  1.8916 (a.u.) for type    1
     new r_m :   0.1462 (alat units)  1.8916 (a.u.) for type    2
     new r_m :   0.1462 (alat units)  1.8916 (a.u.) for type    3
     new r_m :   0.1462 (alat units)  1.8916 (a.u.) for type    4

     Check: negative/imaginary core charge=   -0.000006    0.000000

     Initial potential from superposition of free atoms

     starting charge  511.98600, renormalised to  512.00000
     Starting wfcs are  320 randomized atomic wfcs
     Checking if some PAW data can be deallocated... 

     total cpu time spent up to now is       92.5 secs

     Self-consistent Calculation

     iteration #  1     ecut=    71.00 Ry     beta= 0.10
     Davidson diagonalization with overlap
     ethr =  1.00E-02,  avg # of iterations =  3.5

     Threshold (ethr) on eigenvalues was too large:
     Diagonalizing with lowered threshold

     Davidson diagonalization with overlap
     ethr =  3.15E-04,  avg # of iterations =  3.9

     total cpu time spent up to now is     1038.7 secs

     total energy              =  -10536.43280574 Ry
     Harris-Foulkes estimate   =  -10536.77151894 Ry
     estimated scf accuracy    <       1.86351691 Ry

     total magnetization       =     0.24 Bohr mag/cell
     absolute magnetization    =    44.38 Bohr mag/cell

     iteration #  2     ecut=    71.00 Ry     beta= 0.10
     Davidson diagonalization with overlap
     ethr =  3.64E-04,  avg # of iterations =  1.0

     total cpu time spent up to now is     1265.7 secs

     total energy              =  -10536.21654359 Ry
     Harris-Foulkes estimate   =  -10536.47816849 Ry
     estimated scf accuracy    <       1.10610533 Ry

     total magnetization       =    -0.12 Bohr mag/cell
     absolute magnetization    =    45.11 Bohr mag/cell

     iteration #  3     ecut=    71.00 Ry     beta= 0.10
     Davidson diagonalization with overlap
     ethr =  2.16E-04,  avg # of iterations =  2.3

     total cpu time spent up to now is     1582.7 secs

     total energy              =  -10536.08255750 Ry
     Harris-Foulkes estimate   =  -10536.35453417 Ry
     estimated scf accuracy    <       2.69167001 Ry

     total magnetization       =     0.24 Bohr mag/cell
     absolute magnetization    =    45.49 Bohr mag/cell

     iteration #  4     ecut=    71.00 Ry     beta= 0.10
     Davidson diagonalization with overlap
     ethr =  2.16E-04,  avg # of iterations =  2.4

     total cpu time spent up to now is     1911.0 secs

     total energy              =  -10536.18373445 Ry
     Harris-Foulkes estimate   =  -10536.21524397 Ry
     estimated scf accuracy    <       0.52065835 Ry

     total magnetization       =     0.36 Bohr mag/cell
     absolute magnetization    =    46.52 Bohr mag/cell

     iteration #  5     ecut=    71.00 Ry     beta= 0.10
     Davidson diagonalization with overlap
     ethr =  1.02E-04,  avg # of iterations =  1.6

     total cpu time spent up to now is     2175.9 secs

     total energy              =  -10536.19451204 Ry
     Harris-Foulkes estimate   =  -10536.20328885 Ry
     estimated scf accuracy    <       0.08335891 Ry

     total magnetization       =     0.02 Bohr mag/cell
     absolute magnetization    =    46.66 Bohr mag/cell

     iteration #  6     ecut=    71.00 Ry     beta= 0.10
     Davidson diagonalization with overlap
     ethr =  1.63E-05,  avg # of iterations =  3.2

     total cpu time spent up to now is     2553.9 secs

     total energy              =  -10536.18573422 Ry
     Harris-Foulkes estimate   =  -10536.19794076 Ry
     estimated scf accuracy    <       0.06812134 Ry

     total magnetization       =    -0.11 Bohr mag/cell
     absolute magnetization    =    46.62 Bohr mag/cell

     iteration #  7     ecut=    71.00 Ry     beta= 0.10
     Davidson diagonalization with overlap
     ethr =  1.33E-05,  avg # of iterations =  3.8

     total cpu time spent up to now is     3134.4 secs

     total energy              =  -10536.20155932 Ry
     Harris-Foulkes estimate   =  -10536.20676589 Ry
     estimated scf accuracy    <       0.09070423 Ry

     total magnetization       =     0.05 Bohr mag/cell
     absolute magnetization    =    46.80 Bohr mag/cell

     iteration #  8     ecut=    71.00 Ry     beta= 0.10
     Davidson diagonalization with overlap
     ethr =  1.33E-05,  avg # of iterations =  2.0

     total cpu time spent up to now is     3439.6 secs

     total energy              =  -10536.20416095 Ry
     Harris-Foulkes estimate   =  -10536.20556621 Ry
     estimated scf accuracy    <       0.06270657 Ry

     total magnetization       =     0.05 Bohr mag/cell
     absolute magnetization    =    47.10 Bohr mag/cell

     iteration #  9     ecut=    71.00 Ry     beta= 0.10
     Davidson diagonalization with overlap
     ethr =  1.22E-05,  avg # of iterations =  1.0

     total cpu time spent up to now is     3682.7 secs

     total energy              =  -10536.21333330 Ry
     Harris-Foulkes estimate   =  -10536.20521788 Ry
     estimated scf accuracy    <       0.03810739 Ry

     total magnetization       =     0.01 Bohr mag/cell
     absolute magnetization    =    47.19 Bohr mag/cell

     iteration # 10     ecut=    71.00 Ry     beta= 0.10
     Davidson diagonalization with overlap
     ethr =  7.44E-06,  avg # of iterations =  2.4

     total cpu time spent up to now is     4016.7 secs

     total energy              =  -10536.23682100 Ry
     Harris-Foulkes estimate   =  -10536.21544828 Ry
     estimated scf accuracy    <       0.03205618 Ry

     total magnetization       =    -0.08 Bohr mag/cell
     absolute magnetization    =    47.48 Bohr mag/cell

     iteration # 11     ecut=    71.00 Ry     beta= 0.10
     Davidson diagonalization with overlap
     ethr =  6.26E-06,  avg # of iterations =  3.8

     total cpu time spent up to now is     4582.1 secs

     total energy              =  -10536.25078672 Ry
     Harris-Foulkes estimate   =  -10536.24847856 Ry
     estimated scf accuracy    <       0.03011563 Ry

     total magnetization       =    -0.12 Bohr mag/cell
     absolute magnetization    =    48.30 Bohr mag/cell

     iteration # 12     ecut=    71.00 Ry     beta= 0.10
     Davidson diagonalization with overlap
     ethr =  5.88E-06,  avg # of iterations =  1.0

     total cpu time spent up to now is     4815.5 secs

     total energy              =  -10536.25146799 Ry
     Harris-Foulkes estimate   =  -10536.25186136 Ry
     estimated scf accuracy    <       0.01828280 Ry

     total magnetization       =    -0.06 Bohr mag/cell
     absolute magnetization    =    48.50 Bohr mag/cell

     iteration # 13     ecut=    71.00 Ry     beta= 0.10
     Davidson diagonalization with overlap
     ethr =  3.57E-06,  avg # of iterations =  2.2

     total cpu time spent up to now is     5131.2 secs

     total energy              =  -10536.25259814 Ry
     Harris-Foulkes estimate   =  -10536.25257042 Ry
     estimated scf accuracy    <       0.00270625 Ry

     total magnetization       =    -0.01 Bohr mag/cell
     absolute magnetization    =    48.71 Bohr mag/cell

     iteration # 14     ecut=    71.00 Ry     beta= 0.10
     Davidson diagonalization with overlap
     ethr =  5.29E-07,  avg # of iterations =  3.0

     total cpu time spent up to now is     5515.0 secs

     total energy              =  -10536.25282069 Ry
     Harris-Foulkes estimate   =  -10536.25274208 Ry
     estimated scf accuracy    <       0.00122229 Ry

     total magnetization       =    -0.01 Bohr mag/cell
     absolute magnetization    =    48.76 Bohr mag/cell

     iteration # 15     ecut=    71.00 Ry     beta= 0.10
     Davidson diagonalization with overlap
     ethr =  2.39E-07,  avg # of iterations =  1.1

     total cpu time spent up to now is     5755.9 secs

     total energy              =  -10536.25300977 Ry
     Harris-Foulkes estimate   =  -10536.25284946 Ry
     estimated scf accuracy    <       0.00090247 Ry

     total magnetization       =    -0.01 Bohr mag/cell
     absolute magnetization    =    48.84 Bohr mag/cell

     iteration # 16     ecut=    71.00 Ry     beta= 0.10
     Davidson diagonalization with overlap
     ethr =  1.76E-07,  avg # of iterations =  2.0

     total cpu time spent up to now is     6053.5 secs

     total energy              =  -10536.25311322 Ry
     Harris-Foulkes estimate   =  -10536.25307959 Ry
     estimated scf accuracy    <       0.00077988 Ry

     total magnetization       =     0.00 Bohr mag/cell
     absolute magnetization    =    48.97 Bohr mag/cell

     iteration # 17     ecut=    71.00 Ry     beta= 0.10
     Davidson diagonalization with overlap
     ethr =  1.52E-07,  avg # of iterations =  1.2

     total cpu time spent up to now is     6300.7 secs

     total energy              =  -10536.25319836 Ry
     Harris-Foulkes estimate   =  -10536.25315198 Ry
     estimated scf accuracy    <       0.00064468 Ry

     total magnetization       =    -0.02 Bohr mag/cell
     absolute magnetization    =    49.02 Bohr mag/cell

     iteration # 18     ecut=    71.00 Ry     beta= 0.10
     Davidson diagonalization with overlap
     ethr =  1.26E-07,  avg # of iterations =  1.4

     total cpu time spent up to now is     6564.9 secs

     total energy              =  -10536.25330316 Ry
     Harris-Foulkes estimate   =  -10536.25322262 Ry
     estimated scf accuracy    <       0.00046246 Ry

     total magnetization       =    -0.01 Bohr mag/cell
     absolute magnetization    =    49.07 Bohr mag/cell

     iteration # 19     ecut=    71.00 Ry     beta= 0.10
     Davidson diagonalization with overlap
     ethr =  9.03E-08,  avg # of iterations =  1.4

     total cpu time spent up to now is     6816.2 secs

     total energy              =  -10536.25341552 Ry
     Harris-Foulkes estimate   =  -10536.25331920 Ry
     estimated scf accuracy    <       0.00041067 Ry

     total magnetization       =    -0.00 Bohr mag/cell
     absolute magnetization    =    49.12 Bohr mag/cell

     iteration # 20     ecut=    71.00 Ry     beta= 0.10
     Davidson diagonalization with overlap
     ethr =  8.02E-08,  avg # of iterations =  1.9

     total cpu time spent up to now is     7106.4 secs

     total energy              =  -10536.25357505 Ry
     Harris-Foulkes estimate   =  -10536.25343408 Ry
     estimated scf accuracy    <       0.00036691 Ry

     total magnetization       =    -0.01 Bohr mag/cell
     absolute magnetization    =    49.19 Bohr mag/cell

     iteration # 21     ecut=    71.00 Ry     beta= 0.10
     Davidson diagonalization with overlap
     ethr =  7.17E-08,  avg # of iterations =  3.0

     total cpu time spent up to now is     7508.4 secs

     total energy              =  -10536.25362148 Ry
     Harris-Foulkes estimate   =  -10536.25364482 Ry
     estimated scf accuracy    <       0.00021981 Ry

     total magnetization       =    -0.01 Bohr mag/cell
     absolute magnetization    =    49.40 Bohr mag/cell

     iteration # 22     ecut=    71.00 Ry     beta= 0.10
     Davidson diagonalization with overlap
     ethr =  4.29E-08,  avg # of iterations =  1.0

     total cpu time spent up to now is     7739.6 secs

     total energy              =  -10536.25370300 Ry
     Harris-Foulkes estimate   =  -10536.25363389 Ry
     estimated scf accuracy    <       0.00018891 Ry

     total magnetization       =    -0.01 Bohr mag/cell
     absolute magnetization    =    49.42 Bohr mag/cell

     iteration # 23     ecut=    71.00 Ry     beta= 0.10
     Davidson diagonalization with overlap
     ethr =  3.69E-08,  avg # of iterations =  2.0

     total cpu time spent up to now is     8040.3 secs

     total energy              =  -10536.25374513 Ry
     Harris-Foulkes estimate   =  -10536.25372556 Ry
     estimated scf accuracy    <       0.00009485 Ry

     total magnetization       =    -0.01 Bohr mag/cell
     absolute magnetization    =    49.52 Bohr mag/cell

     iteration # 24     ecut=    71.00 Ry     beta= 0.10
     Davidson diagonalization with overlap
     ethr =  1.85E-08,  avg # of iterations =  3.0

     total cpu time spent up to now is     8425.3 secs

     total energy              =  -10536.25375685 Ry
     Harris-Foulkes estimate   =  -10536.25375560 Ry
     estimated scf accuracy    <       0.00012695 Ry

     total magnetization       =    -0.01 Bohr mag/cell
     absolute magnetization    =    49.59 Bohr mag/cell

     iteration # 25     ecut=    71.00 Ry     beta= 0.10
     Davidson diagonalization with overlap
     ethr =  1.85E-08,  avg # of iterations =  3.0

     total cpu time spent up to now is     8822.5 secs

     total energy              =  -10536.25377639 Ry
     Harris-Foulkes estimate   =  -10536.25377799 Ry
     estimated scf accuracy    <       0.00005284 Ry

     total magnetization       =    -0.00 Bohr mag/cell
     absolute magnetization    =    49.69 Bohr mag/cell

     iteration # 26     ecut=    71.00 Ry     beta= 0.10
     Davidson diagonalization with overlap
     ethr =  1.03E-08,  avg # of iterations =  1.4

     total cpu time spent up to now is     9087.9 secs

     total energy              =  -10536.25378000 Ry
     Harris-Foulkes estimate   =  -10536.25377992 Ry
     estimated scf accuracy    <       0.00005690 Ry

     total magnetization       =    -0.01 Bohr mag/cell
     absolute magnetization    =    49.70 Bohr mag/cell

     iteration # 27     ecut=    71.00 Ry     beta= 0.10
     Davidson diagonalization with overlap
     ethr =  1.03E-08,  avg # of iterations =  1.0

     total cpu time spent up to now is     9317.4 secs

     total energy              =  -10536.25379609 Ry
     Harris-Foulkes estimate   =  -10536.25378362 Ry
     estimated scf accuracy    <       0.00002721 Ry

     total magnetization       =    -0.00 Bohr mag/cell
     absolute magnetization    =    49.75 Bohr mag/cell

     iteration # 28     ecut=    71.00 Ry     beta= 0.10
     Davidson diagonalization with overlap
     ethr =  5.32E-09,  avg # of iterations =  3.0

     total cpu time spent up to now is     9707.4 secs

     total energy              =  -10536.25380302 Ry
     Harris-Foulkes estimate   =  -10536.25380032 Ry
     estimated scf accuracy    <       0.00002438 Ry

     total magnetization       =    -0.00 Bohr mag/cell
     absolute magnetization    =    49.79 Bohr mag/cell

     iteration # 29     ecut=    71.00 Ry     beta= 0.10
     Davidson diagonalization with overlap
     ethr =  4.76E-09,  avg # of iterations =  2.2

     total cpu time spent up to now is    10045.0 secs

     total energy              =  -10536.25380791 Ry
     Harris-Foulkes estimate   =  -10536.25380624 Ry
     estimated scf accuracy    <       0.00000936 Ry

     total magnetization       =    -0.00 Bohr mag/cell
     absolute magnetization    =    49.83 Bohr mag/cell

     iteration # 30     ecut=    71.00 Ry     beta= 0.10
     Davidson diagonalization with overlap
     ethr =  1.83E-09,  avg # of iterations =  1.8

     total cpu time spent up to now is    10326.9 secs

     total energy              =  -10536.25380960 Ry
     Harris-Foulkes estimate   =  -10536.25380815 Ry
     estimated scf accuracy    <       0.00000704 Ry

     total magnetization       =    -0.00 Bohr mag/cell
     absolute magnetization    =    49.83 Bohr mag/cell

     iteration # 31     ecut=    71.00 Ry     beta= 0.10
     Davidson diagonalization with overlap
     ethr =  1.38E-09,  avg # of iterations =  2.1

     total cpu time spent up to now is    10632.2 secs

     total energy              =  -10536.25381029 Ry
     Harris-Foulkes estimate   =  -10536.25380992 Ry
     estimated scf accuracy    <       0.00000734 Ry

     total magnetization       =    -0.00 Bohr mag/cell
     absolute magnetization    =    49.85 Bohr mag/cell

     iteration # 32     ecut=    71.00 Ry     beta= 0.10
     Davidson diagonalization with overlap
     ethr =  1.38E-09,  avg # of iterations =  1.5

     total cpu time spent up to now is    10906.9 secs

     total energy              =  -10536.25381163 Ry
     Harris-Foulkes estimate   =  -10536.25381071 Ry
     estimated scf accuracy    <       0.00000777 Ry

     total magnetization       =    -0.00 Bohr mag/cell
     absolute magnetization    =    49.85 Bohr mag/cell

     iteration # 33     ecut=    71.00 Ry     beta= 0.10
     Davidson diagonalization with overlap
     ethr =  1.38E-09,  avg # of iterations =  1.7

     total cpu time spent up to now is    11181.6 secs

     total energy              =  -10536.25381383 Ry
     Harris-Foulkes estimate   =  -10536.25381217 Ry
     estimated scf accuracy    <       0.00000646 Ry

     total magnetization       =    -0.00 Bohr mag/cell
     absolute magnetization    =    49.86 Bohr mag/cell

     iteration # 34     ecut=    71.00 Ry     beta= 0.10
     Davidson diagonalization with overlap
     ethr =  1.26E-09,  avg # of iterations =  2.9

     total cpu time spent up to now is    11561.1 secs

     total energy              =  -10536.25381488 Ry
     Harris-Foulkes estimate   =  -10536.25381489 Ry
     estimated scf accuracy    <       0.00000262 Ry

     total magnetization       =    -0.00 Bohr mag/cell
     absolute magnetization    =    49.88 Bohr mag/cell

     iteration # 35     ecut=    71.00 Ry     beta= 0.10
     Davidson diagonalization with overlap
     ethr =  5.11E-10,  avg # of iterations =  3.1
 
     Magnetic moment per site:
     atom:    1    charge:   14.4005    magn:    1.5021    constr:    0.0000
     atom:    2    charge:   14.4008    magn:   -1.5019    constr:    0.0000
     atom:    3    charge:   14.4001    magn:    1.5047    constr:    0.0000
     atom:    4    charge:   14.4005    magn:   -1.5062    constr:    0.0000
     atom:    5    charge:   14.4003    magn:    1.5030    constr:    0.0000
     atom:    6    charge:   14.4008    magn:   -1.5013    constr:    0.0000
     atom:    7    charge:   14.4001    magn:    1.5047    constr:    0.0000
     atom:    8    charge:   14.4005    magn:   -1.5062    constr:    0.0000
     atom:    9    charge:   14.4003    magn:    1.5028    constr:    0.0000
     atom:   10    charge:   14.4008    magn:   -1.5019    constr:    0.0000
     atom:   11    charge:   14.4001    magn:    1.5043    constr:    0.0000
     atom:   12    charge:   14.4005    magn:   -1.5062    constr:    0.0000
     atom:   13    charge:   14.4004    magn:    1.5034    constr:    0.0000
     atom:   14    charge:   14.4008    magn:   -1.5013    constr:    0.0000
     atom:   15    charge:   14.4001    magn:    1.5043    constr:    0.0000
     atom:   16    charge:   14.4005    magn:   -1.5062    constr:    0.0000
     atom:   17    charge:   14.4006    magn:    1.5032    constr:    0.0000
     atom:   18    charge:   14.4008    magn:   -1.5019    constr:    0.0000
     atom:   19    charge:   14.4001    magn:    1.5047    constr:    0.0000
     atom:   20    charge:   14.4005    magn:   -1.5054    constr:    0.0000
     atom:   21    charge:   14.4002    magn:    1.5037    constr:    0.0000
     atom:   22    charge:   14.4008    magn:   -1.5013    constr:    0.0000
     atom:   23    charge:   14.4001    magn:    1.5047    constr:    0.0000
     atom:   24    charge:   14.4005    magn:   -1.5054    constr:    0.0000
     atom:   25    charge:   14.4003    magn:    1.5022    constr:    0.0000
     atom:   26    charge:   14.4008    magn:   -1.5019    constr:    0.0000
     atom:   27    charge:   14.4001    magn:    1.5043    constr:    0.0000
     atom:   28    charge:   14.4005    magn:   -1.5054    constr:    0.0000
     atom:   29    charge:   14.4004    magn:    1.5022    constr:    0.0000
     atom:   30    charge:   14.4008    magn:   -1.5013    constr:    0.0000
     atom:   31    charge:   14.4001    magn:    1.5043    constr:    0.0000
     atom:   32    charge:   14.4005    magn:   -1.5054    constr:    0.0000

     total cpu time spent up to now is    12015.1 secs

     End of self-consistent calculation

     Number of k-points >= 100: set verbosity='high' to print the bands.

     the Fermi energy is    20.0037 ev

!    total energy              =  -10536.25381600 Ry
     Harris-Foulkes estimate   =  -10536.25381563 Ry
     estimated scf accuracy    <       0.00000069 Ry

     total all-electron energy =    -81457.742874 Ry

     The total energy is the sum of the following terms:

     one-electron contribution =   -3307.18290511 Ry
     hartree contribution      =    2001.76347495 Ry
     xc contribution           =    -886.84146828 Ry
     ewald contribution        =   -5694.44495609 Ry
     one-center paw contrib.   =   -2649.55950590 Ry
     smearing contrib. (-TS)   =       0.01154442 Ry

     total magnetization       =    -0.00 Bohr mag/cell
     absolute magnetization    =    49.91 Bohr mag/cell

     convergence has been achieved in  35 iterations

     Forces acting on atoms (cartesian axes, Ry/au):

     atom    1 type  1   force =     0.00000000    0.00000000    0.00000000
     atom    2 type  2   force =     0.00004602   -0.00000604    0.00000000
     atom    3 type  3   force =     0.00007795    0.00000000    0.00008809
     atom    4 type  4   force =     0.00000000   -0.00004742   -0.00005681
     atom    5 type  1   force =     0.00000000    0.00000000    0.00000000
     atom    6 type  2   force =     0.00003328   -0.00009243    0.00000000
     atom    7 type  3   force =     0.00007795    0.00000000   -0.00008809
     atom    8 type  4   force =     0.00000000   -0.00004742    0.00005681
     atom    9 type  1   force =     0.00000000    0.00000000    0.00000000
     atom   10 type  2   force =     0.00004602    0.00000604    0.00000000
     atom   11 type  3   force =     0.00001602    0.00000000    0.00001706
     atom   12 type  4   force =     0.00000000    0.00004742   -0.00005681
     atom   13 type  1   force =     0.00000000    0.00000000    0.00000000
     atom   14 type  2   force =     0.00003328    0.00009243    0.00000000
     atom   15 type  3   force =     0.00001602   -0.00000000   -0.00001706
     atom   16 type  4   force =     0.00000000    0.00004742    0.00005681
     atom   17 type  1   force =     0.00000000    0.00000000    0.00000000
     atom   18 type  2   force =    -0.00004602   -0.00000604    0.00000000
     atom   19 type  3   force =    -0.00007795    0.00000000    0.00008809
     atom   20 type  4   force =     0.00000000    0.00004062   -0.00002142
     atom   21 type  1   force =     0.00000000    0.00000000    0.00000000
     atom   22 type  2   force =    -0.00003328   -0.00009243    0.00000000
     atom   23 type  3   force =    -0.00007795    0.00000000   -0.00008809
     atom   24 type  4   force =     0.00000000    0.00004062    0.00002142
     atom   25 type  1   force =     0.00000000    0.00000000    0.00000000
     atom   26 type  2   force =    -0.00004602    0.00000604    0.00000000
     atom   27 type  3   force =    -0.00001602   -0.00000000    0.00001706
     atom   28 type  4   force =     0.00000000   -0.00004062   -0.00002142
     atom   29 type  1   force =     0.00000000    0.00000000    0.00000000
     atom   30 type  2   force =    -0.00003328    0.00009243    0.00000000
     atom   31 type  3   force =    -0.00001602    0.00000000   -0.00001706
     atom   32 type  4   force =     0.00000000   -0.00004062    0.00002142

     Total force =     0.000368     Total SCF correction =     0.003553
     SCF correction compared to forces is large: reduce conv_thr to get better values


     Computing stress (Cartesian axis) and pressure

          total   stress  (Ry/bohr**3)                   (kbar)     P=  -12.86
  -0.00008602   0.00000000   0.00000000        -12.65      0.00      0.00
   0.00000000  -0.00004802   0.00000000          0.00     -7.06      0.00
   0.00000000   0.00000000  -0.00012822          0.00      0.00    -18.86


     Writing output data file iltdQWYTaBtXGitD.save/
-------------------------------------------------------
Primary job  terminated normally, but 1 process returned
a non-zero exit code.. Per user-direction, the job has been aborted.
-------------------------------------------------------
--------------------------------------------------------------------------
mpirun detected that one or more processes exited with non-zero status, thus causing
the job to be terminated. The first process to do so was:

  Process name: [[21219,1],0]
  Exit code:    38
--------------------------------------------------------------------------
