--------------------------------------------------------------------------
WARNING: No preset parameters were found for the device that Open MPI
detected:

  Local host:            bear-pg0206u13b
  Device name:           mlx5_0
  Device vendor ID:      0x02c9
  Device vendor part ID: 4123

Default device parameters will be used, which may result in lower
performance.  You can edit any of the files specified by the
btl_openib_device_param_files MCA parameter to set values for your
device.

NOTE: You can turn off this warning by setting the MCA parameter
      btl_openib_warn_no_device_params_found to 0.
--------------------------------------------------------------------------
--------------------------------------------------------------------------
WARNING: There was an error initializing an OpenFabrics device.

  Local host:   bear-pg0206u13b
  Local device: mlx5_0
--------------------------------------------------------------------------

     Program PWSCF v.6.3 starts on 13Oct2020 at 23:21:57 

     This program is part of the open-source Quantum ESPRESSO suite
     for quantum simulation of materials; please cite
         "P. Giannozzi et al., J. Phys.:Condens. Matter 21 395502 (2009);
         "P. Giannozzi et al., J. Phys.:Condens. Matter 29 465901 (2017);
          URL http://www.quantum-espresso.org", 
     in publications or presentations arising from this work. More details at
     http://www.quantum-espresso.org/quote

     Parallel version (MPI & OpenMP), running on      40 processor cores
     Number of MPI processes:                40
     Threads/MPI process:                     1

     MPI processes distributed on     1 nodes
     R & G space division:  proc/nbgrp/npool/nimage =      40
     Reading input from wd/ec/ec_4_007.in
Warning: card &IONS ignored
Warning: card ION_DYNAMICS = 'BFGS', ignored
Warning: card / ignored
Warning: card &CELL ignored
Warning: card CELL_DYNAMICS = 'BFGS', ignored
Warning: card CELL_FACTOR = 2.0, ignored
Warning: card PRESS = 0.0, ignored
Warning: card / ignored

     Current dimensions of program PWSCF are:
     Max number of different atomic species (ntypx) = 10
     Max number of k-points (npk) =  40000
     Max angular momentum in pseudopotentials (lmaxx) =  3
               file Fe.pbe-spn-kjpaw_psl.1.0.0.UPF: wavefunction(s)  3P 3D renormalized
               file Fe.pbe-spn-kjpaw_psl.1.0.0.UPF: wavefunction(s)  3P 3D renormalized
               file Fe.pbe-spn-kjpaw_psl.1.0.0.UPF: wavefunction(s)  3P 3D renormalized
               file Fe.pbe-spn-kjpaw_psl.1.0.0.UPF: wavefunction(s)  3P 3D renormalized

     Subspace diagonalization in iterative solution of the eigenvalue problem:
     a serial algorithm will be used

     Found symmetry operation: I + (  0.0000  0.0000 -0.5000)
     This is a supercell, fractional translations are disabled
 
     Parallelization info
     --------------------
     sticks:   dense  smooth     PW     G-vecs:    dense   smooth      PW
     Min         150      99     27                 8594     4611     665
     Max         151     100     28                 8600     4617     668
     Sum        6035    3993   1103               343893   184581   26653
 


     bravais-lattice index     =            0
     lattice parameter (alat)  =      12.9382  a.u.
     unit-cell volume          =    2283.7593 (a.u.)^3
     number of atoms/cell      =           32
     number of atomic types    =            4
     number of electrons       =       512.00
     number of Kohn-Sham states=          307
     kinetic-energy cutoff     =      71.0000  Ry
     charge density cutoff     =     430.0000  Ry
     convergence threshold     =      1.0E-06
     mixing beta               =       0.1000
     number of iterations used =           10  plain     mixing
     Exchange-correlation      = SLA PW PBX PBC ( 1  4  3  4 0 0)

     celldm(1)=  12.938187  celldm(2)=   0.000000  celldm(3)=   0.000000
     celldm(4)=   0.000000  celldm(5)=   0.000000  celldm(6)=   0.000000

     crystal axes: (cart. coord. in units of alat)
               a(1) = (   1.000033   0.000000   0.000000 )  
               a(2) = (   0.000000   1.054509   0.010000 )  
               a(3) = (   0.000000   0.010545   1.000020 )  

     reciprocal axes: (cart. coord. in units 2 pi/alat)
               b(1) = (  0.999967  0.000000  0.000000 )  
               b(2) = (  0.000000  0.948404 -0.010001 )  
               b(3) = (  0.000000 -0.009484  1.000080 )  


     PseudoPot. # 1 for Fe read from file:
     /rds/homes/b/bxp912/pp/Fe.pbe-spn-kjpaw_psl.1.0.0.UPF
     MD5 check sum: 42f43b795421b414b0dc916aa790dbcb
     Pseudo is Projector augmented-wave + core cor, Zval = 16.0
     Generated using "atomic" code by A. Dal Corso v.6.3
     Shape of augmentation charge: PSQ
     Using radial grid of 1191 points,  6 beta functions with: 
                l(1) =   0
                l(2) =   0
                l(3) =   1
                l(4) =   1
                l(5) =   2
                l(6) =   2
     Q(r) pseudized with 0 coefficients 


     PseudoPot. # 2 for Fe read from file:
     /rds/homes/b/bxp912/pp/Fe.pbe-spn-kjpaw_psl.1.0.0.UPF
     MD5 check sum: 42f43b795421b414b0dc916aa790dbcb
     Pseudo is Projector augmented-wave + core cor, Zval = 16.0
     Generated using "atomic" code by A. Dal Corso v.6.3
     Shape of augmentation charge: PSQ
     Using radial grid of 1191 points,  6 beta functions with: 
                l(1) =   0
                l(2) =   0
                l(3) =   1
                l(4) =   1
                l(5) =   2
                l(6) =   2
     Q(r) pseudized with 0 coefficients 


     PseudoPot. # 3 for Fe read from file:
     /rds/homes/b/bxp912/pp/Fe.pbe-spn-kjpaw_psl.1.0.0.UPF
     MD5 check sum: 42f43b795421b414b0dc916aa790dbcb
     Pseudo is Projector augmented-wave + core cor, Zval = 16.0
     Generated using "atomic" code by A. Dal Corso v.6.3
     Shape of augmentation charge: PSQ
     Using radial grid of 1191 points,  6 beta functions with: 
                l(1) =   0
                l(2) =   0
                l(3) =   1
                l(4) =   1
                l(5) =   2
                l(6) =   2
     Q(r) pseudized with 0 coefficients 


     PseudoPot. # 4 for Fe read from file:
     /rds/homes/b/bxp912/pp/Fe.pbe-spn-kjpaw_psl.1.0.0.UPF
     MD5 check sum: 42f43b795421b414b0dc916aa790dbcb
     Pseudo is Projector augmented-wave + core cor, Zval = 16.0
     Generated using "atomic" code by A. Dal Corso v.6.3
     Shape of augmentation charge: PSQ
     Using radial grid of 1191 points,  6 beta functions with: 
                l(1) =   0
                l(2) =   0
                l(3) =   1
                l(4) =   1
                l(5) =   2
                l(6) =   2
     Q(r) pseudized with 0 coefficients 


     atomic species   valence    mass     pseudopotential
        Fe1           16.00    55.84500     Fe( 1.00)
        Fe2           16.00    55.84500     Fe( 1.00)
        Fe3           16.00    55.84500     Fe( 1.00)
        Fe4           16.00    55.84500     Fe( 1.00)

     Starting magnetic structure 
     atomic species   magnetization
        Fe1          0.100
        Fe2         -0.100
        Fe3          0.100
        Fe4         -0.100

      4 Sym. Ops., with inversion, found



   Cartesian axes

     site n.     atom                  positions (alat units)
         1           Fe1 tau(   1) = (   0.0000000   0.0000000   0.0000000  )
         2           Fe2 tau(   2) = (   0.2500052   0.2636299   0.0025001  )
         3           Fe3 tau(   3) = (   0.2500065   0.0026363   0.2500031  )
         4           Fe4 tau(   4) = (   0.0000000   0.2662648   0.2525091  )
         5           Fe1 tau(   5) = (   0.0000000   0.0052725   0.5000102  )
         6           Fe2 tau(   6) = (   0.2500080   0.2689052   0.5025103  )
         7           Fe3 tau(   7) = (   0.2500065   0.0079088   0.7500162  )
         8           Fe4 tau(   8) = (   0.0000000   0.2715372   0.7525103  )
         9           Fe1 tau(   9) = (   0.0000000   0.5272545   0.0050001  )
        10           Fe2 tau(  10) = (   0.2500052   0.7908793   0.0075001  )
        11           Fe3 tau(  11) = (   0.2500087   0.5298908   0.2550072  )
        12           Fe4 tau(  12) = (   0.0000000   0.7935170   0.2575092  )
        13           Fe1 tau(  13) = (   0.0000000   0.5325271   0.5050103  )
        14           Fe2 tau(  14) = (   0.2500080   0.7961490   0.5075103  )
        15           Fe3 tau(  15) = (   0.2500087   0.5351633   0.7550133  )
        16           Fe4 tau(  16) = (   0.0000000   0.7987894   0.7575104  )
        17           Fe1 tau(  17) = (   0.5000165   0.0000000   0.0000000  )
        18           Fe2 tau(  18) = (   0.7500277   0.2636299   0.0025001  )
        19           Fe3 tau(  19) = (   0.7500265   0.0026363   0.2500031  )
        20           Fe4 tau(  20) = (   0.5000165   0.2662638   0.2525071  )
        21           Fe1 tau(  21) = (   0.5000165   0.0052725   0.5000102  )
        22           Fe2 tau(  22) = (   0.7500249   0.2689052   0.5025103  )
        23           Fe3 tau(  23) = (   0.7500265   0.0079088   0.7500162  )
        24           Fe4 tau(  24) = (   0.5000165   0.2715362   0.7525123  )
        25           Fe1 tau(  25) = (   0.5000165   0.5272545   0.0050001  )
        26           Fe2 tau(  26) = (   0.7500277   0.7908793   0.0075001  )
        27           Fe3 tau(  27) = (   0.7500243   0.5298908   0.2550072  )
        28           Fe4 tau(  28) = (   0.5000165   0.7935180   0.2575072  )
        29           Fe1 tau(  29) = (   0.5000165   0.5325271   0.5050103  )
        30           Fe2 tau(  30) = (   0.7500249   0.7961490   0.5075103  )
        31           Fe3 tau(  31) = (   0.7500243   0.5351633   0.7550133  )
        32           Fe4 tau(  32) = (   0.5000165   0.7987905   0.7575124  )

     number of k points=   205  Marzari-Vanderbilt smearing, width (Ry)=  0.0400

     Number of k-points >= 100: set verbosity='high' to print them.

     Dense  grid:   343893 G-vectors     FFT dimensions: (  90,  96,  90)

     Smooth grid:   184581 G-vectors     FFT dimensions: (  72,  75,  72)

     Estimated max dynamical RAM per process >       1.21 GB

     Estimated total dynamical RAM >      48.54 GB
     Generating pointlists ...
     new r_m :   0.1458 (alat units)  1.8870 (a.u.) for type    1
     new r_m :   0.1458 (alat units)  1.8870 (a.u.) for type    2
     new r_m :   0.1458 (alat units)  1.8870 (a.u.) for type    3
     new r_m :   0.1458 (alat units)  1.8870 (a.u.) for type    4

     Check: negative/imaginary core charge=   -0.000006    0.000000

     Initial potential from superposition of free atoms

     starting charge  511.98600, renormalised to  512.00000
     Starting wfcs are  320 randomized atomic wfcs
     Checking if some PAW data can be deallocated... 

     total cpu time spent up to now is      138.2 secs

     Self-consistent Calculation

     iteration #  1     ecut=    71.00 Ry     beta= 0.10
     Davidson diagonalization with overlap
     ethr =  1.00E-02,  avg # of iterations =  3.7

     Threshold (ethr) on eigenvalues was too large:
     Diagonalizing with lowered threshold

     Davidson diagonalization with overlap
     ethr =  3.47E-04,  avg # of iterations =  4.0

     total cpu time spent up to now is     1762.0 secs

     total energy              =  -10536.52909696 Ry
     Harris-Foulkes estimate   =  -10536.92957333 Ry
     estimated scf accuracy    <       2.04702488 Ry

     total magnetization       =     0.15 Bohr mag/cell
     absolute magnetization    =    44.36 Bohr mag/cell

     iteration #  2     ecut=    71.00 Ry     beta= 0.10
     Davidson diagonalization with overlap
     ethr =  4.00E-04,  avg # of iterations =  1.0

     total cpu time spent up to now is     2135.7 secs

     total energy              =  -10536.26086214 Ry
     Harris-Foulkes estimate   =  -10536.57846329 Ry
     estimated scf accuracy    <       1.20999968 Ry

     total magnetization       =    -0.19 Bohr mag/cell
     absolute magnetization    =    45.02 Bohr mag/cell

     iteration #  3     ecut=    71.00 Ry     beta= 0.10
     Davidson diagonalization with overlap
     ethr =  2.36E-04,  avg # of iterations =  2.3

     total cpu time spent up to now is     2669.4 secs

     total energy              =  -10536.08122454 Ry
     Harris-Foulkes estimate   =  -10536.40493089 Ry
     estimated scf accuracy    <       2.69749712 Ry

     total magnetization       =     0.26 Bohr mag/cell
     absolute magnetization    =    45.41 Bohr mag/cell

     iteration #  4     ecut=    71.00 Ry     beta= 0.10
     Davidson diagonalization with overlap
     ethr =  2.36E-04,  avg # of iterations =  2.4

     total cpu time spent up to now is     3211.9 secs

     total energy              =  -10536.18197098 Ry
     Harris-Foulkes estimate   =  -10536.22615206 Ry
     estimated scf accuracy    <       0.66189183 Ry

     total magnetization       =     0.30 Bohr mag/cell
     absolute magnetization    =    46.34 Bohr mag/cell

     iteration #  5     ecut=    71.00 Ry     beta= 0.10
     Davidson diagonalization with overlap
     ethr =  1.29E-04,  avg # of iterations =  1.2

     total cpu time spent up to now is     3625.4 secs

     total energy              =  -10536.19343217 Ry
     Harris-Foulkes estimate   =  -10536.20513603 Ry
     estimated scf accuracy    <       0.08843786 Ry

     total magnetization       =     0.00 Bohr mag/cell
     absolute magnetization    =    46.49 Bohr mag/cell

     iteration #  6     ecut=    71.00 Ry     beta= 0.10
     Davidson diagonalization with overlap
     c_bands:  1 eigenvalues not converged
     ethr =  1.73E-05,  avg # of iterations =  3.5

     total cpu time spent up to now is     4287.3 secs

     total energy              =  -10536.16779569 Ry
     Harris-Foulkes estimate   =  -10536.19656957 Ry
     estimated scf accuracy    <       0.06966577 Ry

     total magnetization       =    -0.12 Bohr mag/cell
     absolute magnetization    =    46.45 Bohr mag/cell

     iteration #  7     ecut=    71.00 Ry     beta= 0.10
     Davidson diagonalization with overlap
     ethr =  1.36E-05,  avg # of iterations =  3.9

     total cpu time spent up to now is     5267.9 secs

     total energy              =  -10536.18485435 Ry
     Harris-Foulkes estimate   =  -10536.19407776 Ry
     estimated scf accuracy    <       0.08988770 Ry

     total magnetization       =     0.04 Bohr mag/cell
     absolute magnetization    =    46.56 Bohr mag/cell

     iteration #  8     ecut=    71.00 Ry     beta= 0.10
     Davidson diagonalization with overlap
     ethr =  1.36E-05,  avg # of iterations =  2.0

     total cpu time spent up to now is     5778.5 secs

     total energy              =  -10536.18739195 Ry
     Harris-Foulkes estimate   =  -10536.18824380 Ry
     estimated scf accuracy    <       0.06071033 Ry

     total magnetization       =     0.01 Bohr mag/cell
     absolute magnetization    =    46.82 Bohr mag/cell

     iteration #  9     ecut=    71.00 Ry     beta= 0.10
     Davidson diagonalization with overlap
     ethr =  1.19E-05,  avg # of iterations =  1.0

     total cpu time spent up to now is     6162.7 secs

     total energy              =  -10536.19785576 Ry
     Harris-Foulkes estimate   =  -10536.18804674 Ry
     estimated scf accuracy    <       0.04859915 Ry

     total magnetization       =    -0.01 Bohr mag/cell
     absolute magnetization    =    46.88 Bohr mag/cell

     iteration # 10     ecut=    71.00 Ry     beta= 0.10
     Davidson diagonalization with overlap
     ethr =  9.49E-06,  avg # of iterations =  3.0

     total cpu time spent up to now is     6860.5 secs

     total energy              =  -10536.22548814 Ry
     Harris-Foulkes estimate   =  -10536.20341545 Ry
     estimated scf accuracy    <       0.03558106 Ry

     total magnetization       =    -0.11 Bohr mag/cell
     absolute magnetization    =    47.30 Bohr mag/cell

     iteration # 11     ecut=    71.00 Ry     beta= 0.10
     Davidson diagonalization with overlap
     ethr =  6.95E-06,  avg # of iterations =  2.8

     total cpu time spent up to now is     7601.2 secs

     total energy              =  -10536.23975852 Ry
     Harris-Foulkes estimate   =  -10536.23456349 Ry
     estimated scf accuracy    <       0.02853889 Ry

     total magnetization       =    -0.10 Bohr mag/cell
     absolute magnetization    =    47.92 Bohr mag/cell

     iteration # 12     ecut=    71.00 Ry     beta= 0.10
     Davidson diagonalization with overlap
     ethr =  5.57E-06,  avg # of iterations =  2.4

     total cpu time spent up to now is     8212.2 secs

     total energy              =  -10536.24348242 Ry
     Harris-Foulkes estimate   =  -10536.24325969 Ry
     estimated scf accuracy    <       0.00632249 Ry

     total magnetization       =    -0.01 Bohr mag/cell
     absolute magnetization    =    48.31 Bohr mag/cell

     iteration # 13     ecut=    71.00 Ry     beta= 0.10
     Davidson diagonalization with overlap
     ethr =  1.23E-06,  avg # of iterations =  3.0

     total cpu time spent up to now is     8835.2 secs

     total energy              =  -10536.24377287 Ry
     Harris-Foulkes estimate   =  -10536.24392818 Ry
     estimated scf accuracy    <       0.00238038 Ry

     total magnetization       =    -0.01 Bohr mag/cell
     absolute magnetization    =    48.42 Bohr mag/cell

     iteration # 14     ecut=    71.00 Ry     beta= 0.10
     Davidson diagonalization with overlap
     ethr =  4.65E-07,  avg # of iterations =  1.5

     total cpu time spent up to now is     9280.3 secs

     total energy              =  -10536.24381689 Ry
     Harris-Foulkes estimate   =  -10536.24385013 Ry
     estimated scf accuracy    <       0.00130970 Ry

     total magnetization       =    -0.02 Bohr mag/cell
     absolute magnetization    =    48.46 Bohr mag/cell

     iteration # 15     ecut=    71.00 Ry     beta= 0.10
     Davidson diagonalization with overlap
     ethr =  2.56E-07,  avg # of iterations =  2.2

     total cpu time spent up to now is     9802.1 secs

     total energy              =  -10536.24404312 Ry
     Harris-Foulkes estimate   =  -10536.24388616 Ry
     estimated scf accuracy    <       0.00087464 Ry

     total magnetization       =    -0.01 Bohr mag/cell
     absolute magnetization    =    48.54 Bohr mag/cell

     iteration # 16     ecut=    71.00 Ry     beta= 0.10
     Davidson diagonalization with overlap
     ethr =  1.71E-07,  avg # of iterations =  1.4

     total cpu time spent up to now is    10235.7 secs

     total energy              =  -10536.24409799 Ry
     Harris-Foulkes estimate   =  -10536.24409061 Ry
     estimated scf accuracy    <       0.00079832 Ry

     total magnetization       =    -0.00 Bohr mag/cell
     absolute magnetization    =    48.62 Bohr mag/cell

     iteration # 17     ecut=    71.00 Ry     beta= 0.10
     Davidson diagonalization with overlap
     ethr =  1.56E-07,  avg # of iterations =  1.1

     total cpu time spent up to now is    10633.2 secs

     total energy              =  -10536.24424171 Ry
     Harris-Foulkes estimate   =  -10536.24414032 Ry
     estimated scf accuracy    <       0.00069566 Ry

     total magnetization       =    -0.03 Bohr mag/cell
     absolute magnetization    =    48.66 Bohr mag/cell

     iteration # 18     ecut=    71.00 Ry     beta= 0.10
     Davidson diagonalization with overlap
     ethr =  1.36E-07,  avg # of iterations =  2.0

     total cpu time spent up to now is    11162.0 secs

     total energy              =  -10536.24440460 Ry
     Harris-Foulkes estimate   =  -10536.24430681 Ry
     estimated scf accuracy    <       0.00064834 Ry

     total magnetization       =    -0.01 Bohr mag/cell
     absolute magnetization    =    48.77 Bohr mag/cell

     iteration # 19     ecut=    71.00 Ry     beta= 0.10
     Davidson diagonalization with overlap
     ethr =  1.27E-07,  avg # of iterations =  1.2

     total cpu time spent up to now is    11565.3 secs

     total energy              =  -10536.24451123 Ry
     Harris-Foulkes estimate   =  -10536.24443984 Ry
     estimated scf accuracy    <       0.00032242 Ry

     total magnetization       =    -0.01 Bohr mag/cell
     absolute magnetization    =    48.84 Bohr mag/cell

     iteration # 20     ecut=    71.00 Ry     beta= 0.10
     Davidson diagonalization with overlap
     ethr =  6.30E-08,  avg # of iterations =  2.4

     total cpu time spent up to now is    12104.4 secs

     total energy              =  -10536.24458141 Ry
     Harris-Foulkes estimate   =  -10536.24452605 Ry
     estimated scf accuracy    <       0.00027927 Ry

     total magnetization       =    -0.01 Bohr mag/cell
     absolute magnetization    =    48.91 Bohr mag/cell

     iteration # 21     ecut=    71.00 Ry     beta= 0.10
     Davidson diagonalization with overlap
     ethr =  5.45E-08,  avg # of iterations =  1.3

     total cpu time spent up to now is    12535.3 secs

     total energy              =  -10536.24468198 Ry
     Harris-Foulkes estimate   =  -10536.24459298 Ry
     estimated scf accuracy    <       0.00021720 Ry

     total magnetization       =    -0.01 Bohr mag/cell
     absolute magnetization    =    48.96 Bohr mag/cell

     iteration # 22     ecut=    71.00 Ry     beta= 0.10
     Davidson diagonalization with overlap
     ethr =  4.24E-08,  avg # of iterations =  3.2

     total cpu time spent up to now is    13196.5 secs

     total energy              =  -10536.24475146 Ry
     Harris-Foulkes estimate   =  -10536.24472563 Ry
     estimated scf accuracy    <       0.00016908 Ry

     total magnetization       =    -0.01 Bohr mag/cell
     absolute magnetization    =    49.11 Bohr mag/cell

     iteration # 23     ecut=    71.00 Ry     beta= 0.10
     Davidson diagonalization with overlap
     ethr =  3.30E-08,  avg # of iterations =  1.0

     total cpu time spent up to now is    13591.1 secs

     total energy              =  -10536.24476683 Ry
     Harris-Foulkes estimate   =  -10536.24476220 Ry
     estimated scf accuracy    <       0.00008930 Ry

     total magnetization       =    -0.01 Bohr mag/cell
     absolute magnetization    =    49.18 Bohr mag/cell

     iteration # 24     ecut=    71.00 Ry     beta= 0.10
     Davidson diagonalization with overlap
     ethr =  1.74E-08,  avg # of iterations =  2.5

     total cpu time spent up to now is    14137.8 secs

     total energy              =  -10536.24477824 Ry
     Harris-Foulkes estimate   =  -10536.24477341 Ry
     estimated scf accuracy    <       0.00013386 Ry

     total magnetization       =    -0.01 Bohr mag/cell
     absolute magnetization    =    49.21 Bohr mag/cell

     iteration # 25     ecut=    71.00 Ry     beta= 0.10
     Davidson diagonalization with overlap
     ethr =  1.74E-08,  avg # of iterations =  1.0

     total cpu time spent up to now is    14528.2 secs

     total energy              =  -10536.24478913 Ry
     Harris-Foulkes estimate   =  -10536.24478407 Ry
     estimated scf accuracy    <       0.00009626 Ry

     total magnetization       =    -0.01 Bohr mag/cell
     absolute magnetization    =    49.24 Bohr mag/cell

     iteration # 26     ecut=    71.00 Ry     beta= 0.10
     Davidson diagonalization with overlap
     ethr =  1.74E-08,  avg # of iterations =  1.7

     total cpu time spent up to now is    14980.9 secs

     total energy              =  -10536.24480267 Ry
     Harris-Foulkes estimate   =  -10536.24479709 Ry
     estimated scf accuracy    <       0.00005860 Ry

     total magnetization       =    -0.01 Bohr mag/cell
     absolute magnetization    =    49.30 Bohr mag/cell

     iteration # 27     ecut=    71.00 Ry     beta= 0.10
     Davidson diagonalization with overlap
     ethr =  1.14E-08,  avg # of iterations =  3.1

     total cpu time spent up to now is    15643.5 secs

     total energy              =  -10536.24481738 Ry
     Harris-Foulkes estimate   =  -10536.24481390 Ry
     estimated scf accuracy    <       0.00003680 Ry

     total magnetization       =    -0.01 Bohr mag/cell
     absolute magnetization    =    49.39 Bohr mag/cell

     iteration # 28     ecut=    71.00 Ry     beta= 0.10
     Davidson diagonalization with overlap
     ethr =  7.19E-09,  avg # of iterations =  1.1

     total cpu time spent up to now is    16033.9 secs

     total energy              =  -10536.24482337 Ry
     Harris-Foulkes estimate   =  -10536.24481946 Ry
     estimated scf accuracy    <       0.00002159 Ry

     total magnetization       =    -0.00 Bohr mag/cell
     absolute magnetization    =    49.42 Bohr mag/cell

     iteration # 29     ecut=    71.00 Ry     beta= 0.10
     Davidson diagonalization with overlap
     ethr =  4.22E-09,  avg # of iterations =  1.5

     total cpu time spent up to now is    16477.7 secs

     total energy              =  -10536.24482948 Ry
     Harris-Foulkes estimate   =  -10536.24482435 Ry
     estimated scf accuracy    <       0.00001748 Ry

     total magnetization       =    -0.01 Bohr mag/cell
     absolute magnetization    =    49.44 Bohr mag/cell

     iteration # 30     ecut=    71.00 Ry     beta= 0.10
     Davidson diagonalization with overlap
     ethr =  3.41E-09,  avg # of iterations =  2.8

     total cpu time spent up to now is    17093.0 secs

     total energy              =  -10536.24483285 Ry
     Harris-Foulkes estimate   =  -10536.24483171 Ry
     estimated scf accuracy    <       0.00001054 Ry

     total magnetization       =    -0.00 Bohr mag/cell
     absolute magnetization    =    49.47 Bohr mag/cell

     iteration # 31     ecut=    71.00 Ry     beta= 0.10
     Davidson diagonalization with overlap
     ethr =  2.06E-09,  avg # of iterations =  1.2

     total cpu time spent up to now is    17496.1 secs

     total energy              =  -10536.24483452 Ry
     Harris-Foulkes estimate   =  -10536.24483326 Ry
     estimated scf accuracy    <       0.00000585 Ry

     total magnetization       =    -0.00 Bohr mag/cell
     absolute magnetization    =    49.48 Bohr mag/cell

     iteration # 32     ecut=    71.00 Ry     beta= 0.10
     Davidson diagonalization with overlap
     ethr =  1.14E-09,  avg # of iterations =  2.7

     total cpu time spent up to now is    18096.5 secs

     total energy              =  -10536.24483731 Ry
     Harris-Foulkes estimate   =  -10536.24483516 Ry
     estimated scf accuracy    <       0.00000485 Ry

     total magnetization       =    -0.00 Bohr mag/cell
     absolute magnetization    =    49.50 Bohr mag/cell

     iteration # 33     ecut=    71.00 Ry     beta= 0.10
     Davidson diagonalization with overlap
     ethr =  9.47E-10,  avg # of iterations =  3.2

     total cpu time spent up to now is    18842.2 secs

     total energy              =  -10536.24483866 Ry
     Harris-Foulkes estimate   =  -10536.24483917 Ry
     estimated scf accuracy    <       0.00000291 Ry

     total magnetization       =    -0.00 Bohr mag/cell
     absolute magnetization    =    49.53 Bohr mag/cell

     iteration # 34     ecut=    71.00 Ry     beta= 0.10
     Davidson diagonalization with overlap
     ethr =  5.69E-10,  avg # of iterations =  1.0

     total cpu time spent up to now is    19221.4 secs

     total energy              =  -10536.24483936 Ry
     Harris-Foulkes estimate   =  -10536.24483886 Ry
     estimated scf accuracy    <       0.00000161 Ry

     total magnetization       =    -0.00 Bohr mag/cell
     absolute magnetization    =    49.53 Bohr mag/cell

     iteration # 35     ecut=    71.00 Ry     beta= 0.10
     Davidson diagonalization with overlap
     ethr =  3.14E-10,  avg # of iterations =  1.0

     total cpu time spent up to now is    19602.4 secs

     total energy              =  -10536.24483965 Ry
     Harris-Foulkes estimate   =  -10536.24483948 Ry
     estimated scf accuracy    <       0.00000101 Ry

     total magnetization       =    -0.00 Bohr mag/cell
     absolute magnetization    =    49.53 Bohr mag/cell

     iteration # 36     ecut=    71.00 Ry     beta= 0.10
     Davidson diagonalization with overlap
     ethr =  1.97E-10,  avg # of iterations =  1.5
 
     Magnetic moment per site:
     atom:    1    charge:   14.3923    magn:    1.4903    constr:    0.0000
     atom:    2    charge:   14.3926    magn:   -1.4901    constr:    0.0000
     atom:    3    charge:   14.3918    magn:    1.4932    constr:    0.0000
     atom:    4    charge:   14.3920    magn:   -1.4956    constr:    0.0000
     atom:    5    charge:   14.3924    magn:    1.4909    constr:    0.0000
     atom:    6    charge:   14.3925    magn:   -1.4896    constr:    0.0000
     atom:    7    charge:   14.3918    magn:    1.4932    constr:    0.0000
     atom:    8    charge:   14.3923    magn:   -1.4934    constr:    0.0000
     atom:    9    charge:   14.3921    magn:    1.4913    constr:    0.0000
     atom:   10    charge:   14.3926    magn:   -1.4901    constr:    0.0000
     atom:   11    charge:   14.3919    magn:    1.4924    constr:    0.0000
     atom:   12    charge:   14.3923    magn:   -1.4934    constr:    0.0000
     atom:   13    charge:   14.3919    magn:    1.4920    constr:    0.0000
     atom:   14    charge:   14.3925    magn:   -1.4896    constr:    0.0000
     atom:   15    charge:   14.3919    magn:    1.4924    constr:    0.0000
     atom:   16    charge:   14.3920    magn:   -1.4956    constr:    0.0000
     atom:   17    charge:   14.3925    magn:    1.4912    constr:    0.0000
     atom:   18    charge:   14.3926    magn:   -1.4901    constr:    0.0000
     atom:   19    charge:   14.3918    magn:    1.4932    constr:    0.0000
     atom:   20    charge:   14.3923    magn:   -1.4937    constr:    0.0000
     atom:   21    charge:   14.3924    magn:    1.4916    constr:    0.0000
     atom:   22    charge:   14.3925    magn:   -1.4896    constr:    0.0000
     atom:   23    charge:   14.3918    magn:    1.4932    constr:    0.0000
     atom:   24    charge:   14.3923    magn:   -1.4944    constr:    0.0000
     atom:   25    charge:   14.3923    magn:    1.4907    constr:    0.0000
     atom:   26    charge:   14.3926    magn:   -1.4901    constr:    0.0000
     atom:   27    charge:   14.3919    magn:    1.4924    constr:    0.0000
     atom:   28    charge:   14.3923    magn:   -1.4944    constr:    0.0000
     atom:   29    charge:   14.3921    magn:    1.4907    constr:    0.0000
     atom:   30    charge:   14.3925    magn:   -1.4896    constr:    0.0000
     atom:   31    charge:   14.3919    magn:    1.4924    constr:    0.0000
     atom:   32    charge:   14.3923    magn:   -1.4937    constr:    0.0000

     total cpu time spent up to now is    20052.5 secs

     End of self-consistent calculation

     Number of k-points >= 100: set verbosity='high' to print the bands.

     the Fermi energy is    20.1194 ev

!    total energy              =  -10536.24483975 Ry
     Harris-Foulkes estimate   =  -10536.24483972 Ry
     estimated scf accuracy    <       0.00000085 Ry

     total all-electron energy =    -81457.733898 Ry

     The total energy is the sum of the following terms:

     one-electron contribution =   -3292.81106403 Ry
     hartree contribution      =    1996.74714677 Ry
     xc contribution           =    -886.96629483 Ry
     ewald contribution        =   -5703.66866842 Ry
     one-center paw contrib.   =   -2649.56014490 Ry
     smearing contrib. (-TS)   =       0.01418565 Ry

     total magnetization       =    -0.00 Bohr mag/cell
     absolute magnetization    =    49.54 Bohr mag/cell

     convergence has been achieved in  36 iterations

     Forces acting on atoms (cartesian axes, Ry/au):

     atom    1 type  1   force =     0.00000000    0.00000000    0.00000000
     atom    2 type  2   force =     0.00005079    0.00001931    0.00001691
     atom    3 type  3   force =     0.00015151    0.00001476    0.00011275
     atom    4 type  4   force =     0.00000000   -0.00008335   -0.00015119
     atom    5 type  1   force =     0.00000000    0.00000000    0.00000000
     atom    6 type  2   force =     0.00003942   -0.00013834   -0.00009959
     atom    7 type  3   force =     0.00015151   -0.00001476   -0.00011275
     atom    8 type  4   force =     0.00000000   -0.00012979    0.00014222
     atom    9 type  1   force =     0.00000000    0.00000000    0.00000000
     atom   10 type  2   force =     0.00005079   -0.00001931   -0.00001691
     atom   11 type  3   force =    -0.00002549   -0.00006024    0.00000961
     atom   12 type  4   force =     0.00000000    0.00012979   -0.00014222
     atom   13 type  1   force =     0.00000000    0.00000000    0.00000000
     atom   14 type  2   force =     0.00003942    0.00013834    0.00009959
     atom   15 type  3   force =    -0.00002549    0.00006024   -0.00000961
     atom   16 type  4   force =     0.00000000    0.00008335    0.00015119
     atom   17 type  1   force =     0.00000000    0.00000000    0.00000000
     atom   18 type  2   force =    -0.00005079    0.00001931    0.00001691
     atom   19 type  3   force =    -0.00015151    0.00001476    0.00011275
     atom   20 type  4   force =     0.00000000    0.00005551    0.00001887
     atom   21 type  1   force =     0.00000000    0.00000000    0.00000000
     atom   22 type  2   force =    -0.00003942   -0.00013834   -0.00009959
     atom   23 type  3   force =    -0.00015151   -0.00001476   -0.00011275
     atom   24 type  4   force =     0.00000000    0.00011402    0.00017436
     atom   25 type  1   force =     0.00000000    0.00000000    0.00000000
     atom   26 type  2   force =    -0.00005079   -0.00001931   -0.00001691
     atom   27 type  3   force =     0.00002549   -0.00006024    0.00000961
     atom   28 type  4   force =     0.00000000   -0.00011402   -0.00017436
     atom   29 type  1   force =     0.00000000    0.00000000    0.00000000
     atom   30 type  2   force =    -0.00003942    0.00013834    0.00009959
     atom   31 type  3   force =     0.00002549    0.00006024   -0.00000961
     atom   32 type  4   force =     0.00000000   -0.00005551   -0.00001887

     Total force =     0.000724     Total SCF correction =     0.004480
     SCF correction compared to forces is large: reduce conv_thr to get better values


     Computing stress (Cartesian axis) and pressure

          total   stress  (Ry/bohr**3)                   (kbar)     P=    1.66
   0.00000384   0.00000000   0.00000000          0.56      0.00      0.00
   0.00000000   0.00001538  -0.00025257          0.00      2.26    -37.16
   0.00000000  -0.00025257   0.00001458          0.00    -37.16      2.14


     Writing output data file dunBLyaLgJvJjLpg.save/
-------------------------------------------------------
Primary job  terminated normally, but 1 process returned
a non-zero exit code.. Per user-direction, the job has been aborted.
-------------------------------------------------------
--------------------------------------------------------------------------
mpirun detected that one or more processes exited with non-zero status, thus causing
the job to be terminated. The first process to do so was:

  Process name: [[20446,1],0]
  Exit code:    38
--------------------------------------------------------------------------
