--------------------------------------------------------------------------
WARNING: There was an error initializing an OpenFabrics device.

  Local host:   bear-pg0211u09a
  Local device: mlx5_0
--------------------------------------------------------------------------

     Program PWSCF v.6.3 starts on 10Oct2020 at 18:46:35 

     This program is part of the open-source Quantum ESPRESSO suite
     for quantum simulation of materials; please cite
         "P. Giannozzi et al., J. Phys.:Condens. Matter 21 395502 (2009);
         "P. Giannozzi et al., J. Phys.:Condens. Matter 29 465901 (2017);
          URL http://www.quantum-espresso.org", 
     in publications or presentations arising from this work. More details at
     http://www.quantum-espresso.org/quote

     Parallel version (MPI & OpenMP), running on      40 processor cores
     Number of MPI processes:                40
     Threads/MPI process:                     1

     MPI processes distributed on     1 nodes
     R & G space division:  proc/nbgrp/npool/nimage =      40
     Reading input from wd/ec/ec_2_005.in
Warning: card &IONS ignored
Warning: card ION_DYNAMICS = 'BFGS', ignored
Warning: card / ignored
Warning: card &CELL ignored
Warning: card CELL_DYNAMICS = 'BFGS', ignored
Warning: card CELL_FACTOR = 2.0, ignored
Warning: card PRESS = 0.0, ignored
Warning: card / ignored

     Current dimensions of program PWSCF are:
     Max number of different atomic species (ntypx) = 10
     Max number of k-points (npk) =  40000
     Max angular momentum in pseudopotentials (lmaxx) =  3
               file Fe.pbe-spn-kjpaw_psl.1.0.0.UPF: wavefunction(s)  3P 3D renormalized
               file Fe.pbe-spn-kjpaw_psl.1.0.0.UPF: wavefunction(s)  3P 3D renormalized
               file Fe.pbe-spn-kjpaw_psl.1.0.0.UPF: wavefunction(s)  3P 3D renormalized
               file Fe.pbe-spn-kjpaw_psl.1.0.0.UPF: wavefunction(s)  3P 3D renormalized

     Subspace diagonalization in iterative solution of the eigenvalue problem:
     a serial algorithm will be used

     Found symmetry operation: I + (  0.0000  0.0000 -0.5000)
     This is a supercell, fractional translations are disabled
 
     Parallelization info
     --------------------
     sticks:   dense  smooth     PW     G-vecs:    dense   smooth      PW
     Min         152     100     27                 8652     4646     669
     Max         153     101     28                 8655     4651     672
     Sum        6091    4017   1107               346155   185921   26839
 


     bravais-lattice index     =            0
     lattice parameter (alat)  =      12.9382  a.u.
     unit-cell volume          =    2298.9844 (a.u.)^3
     number of atoms/cell      =           32
     number of atomic types    =            4
     number of electrons       =       512.00
     number of Kohn-Sham states=          307
     kinetic-energy cutoff     =      71.0000  Ry
     charge density cutoff     =     430.0000  Ry
     convergence threshold     =      1.0E-06
     mixing beta               =       0.1000
     number of iterations used =           10  plain     mixing
     Exchange-correlation      = SLA PW PBX PBC ( 1  4  3  4 0 0)

     celldm(1)=  12.938187  celldm(2)=   0.000000  celldm(3)=   0.000000
     celldm(4)=   0.000000  celldm(5)=   0.000000  celldm(6)=   0.000000

     crystal axes: (cart. coord. in units of alat)
               a(1) = (   1.000000   0.000000   0.000000 )  
               a(2) = (   0.000000   1.061504   0.000000 )  
               a(3) = (   0.000000   0.000000   0.999987 )  

     reciprocal axes: (cart. coord. in units 2 pi/alat)
               b(1) = (  1.000000  0.000000  0.000000 )  
               b(2) = (  0.000000  0.942060  0.000000 )  
               b(3) = (  0.000000  0.000000  1.000013 )  


     PseudoPot. # 1 for Fe read from file:
     /rds/homes/b/bxp912/pp/Fe.pbe-spn-kjpaw_psl.1.0.0.UPF
     MD5 check sum: 42f43b795421b414b0dc916aa790dbcb
     Pseudo is Projector augmented-wave + core cor, Zval = 16.0
     Generated using "atomic" code by A. Dal Corso v.6.3
     Shape of augmentation charge: PSQ
     Using radial grid of 1191 points,  6 beta functions with: 
                l(1) =   0
                l(2) =   0
                l(3) =   1
                l(4) =   1
                l(5) =   2
                l(6) =   2
     Q(r) pseudized with 0 coefficients 


     PseudoPot. # 2 for Fe read from file:
     /rds/homes/b/bxp912/pp/Fe.pbe-spn-kjpaw_psl.1.0.0.UPF
     MD5 check sum: 42f43b795421b414b0dc916aa790dbcb
     Pseudo is Projector augmented-wave + core cor, Zval = 16.0
     Generated using "atomic" code by A. Dal Corso v.6.3
     Shape of augmentation charge: PSQ
     Using radial grid of 1191 points,  6 beta functions with: 
                l(1) =   0
                l(2) =   0
                l(3) =   1
                l(4) =   1
                l(5) =   2
                l(6) =   2
     Q(r) pseudized with 0 coefficients 


     PseudoPot. # 3 for Fe read from file:
     /rds/homes/b/bxp912/pp/Fe.pbe-spn-kjpaw_psl.1.0.0.UPF
     MD5 check sum: 42f43b795421b414b0dc916aa790dbcb
     Pseudo is Projector augmented-wave + core cor, Zval = 16.0
     Generated using "atomic" code by A. Dal Corso v.6.3
     Shape of augmentation charge: PSQ
     Using radial grid of 1191 points,  6 beta functions with: 
                l(1) =   0
                l(2) =   0
                l(3) =   1
                l(4) =   1
                l(5) =   2
                l(6) =   2
     Q(r) pseudized with 0 coefficients 


     PseudoPot. # 4 for Fe read from file:
     /rds/homes/b/bxp912/pp/Fe.pbe-spn-kjpaw_psl.1.0.0.UPF
     MD5 check sum: 42f43b795421b414b0dc916aa790dbcb
     Pseudo is Projector augmented-wave + core cor, Zval = 16.0
     Generated using "atomic" code by A. Dal Corso v.6.3
     Shape of augmentation charge: PSQ
     Using radial grid of 1191 points,  6 beta functions with: 
                l(1) =   0
                l(2) =   0
                l(3) =   1
                l(4) =   1
                l(5) =   2
                l(6) =   2
     Q(r) pseudized with 0 coefficients 


     atomic species   valence    mass     pseudopotential
        Fe1           16.00    55.84500     Fe( 1.00)
        Fe2           16.00    55.84500     Fe( 1.00)
        Fe3           16.00    55.84500     Fe( 1.00)
        Fe4           16.00    55.84500     Fe( 1.00)

     Starting magnetic structure 
     atomic species   magnetization
        Fe1          0.100
        Fe2         -0.100
        Fe3          0.100
        Fe4         -0.100

      8 Sym. Ops., with inversion, found



   Cartesian axes

     site n.     atom                  positions (alat units)
         1           Fe1 tau(   1) = (   0.0000000   0.0000000   0.0000000  )
         2           Fe2 tau(   2) = (   0.2499968   0.2653786   0.0000000  )
         3           Fe3 tau(   3) = (   0.2499981   0.0000000   0.2499947  )
         4           Fe4 tau(   4) = (   0.0000000   0.2653771   0.2500008  )
         5           Fe1 tau(   5) = (   0.0000000   0.0000000   0.4999935  )
         6           Fe2 tau(   6) = (   0.2499996   0.2653814   0.4999935  )
         7           Fe3 tau(   7) = (   0.2499981   0.0000000   0.7499912  )
         8           Fe4 tau(   8) = (   0.0000000   0.2653771   0.7499852  )
         9           Fe1 tau(   9) = (   0.0000000   0.5307519   0.0000000  )
        10           Fe2 tau(  10) = (   0.2499968   0.7961253   0.0000000  )
        11           Fe3 tau(  11) = (   0.2500004   0.5307519   0.2499987  )
        12           Fe4 tau(  12) = (   0.0000000   0.7961267   0.2500008  )
        13           Fe1 tau(  13) = (   0.0000000   0.5307519   0.4999935  )
        14           Fe2 tau(  14) = (   0.2499996   0.7961224   0.4999935  )
        15           Fe3 tau(  15) = (   0.2500004   0.5307519   0.7499882  )
        16           Fe4 tau(  16) = (   0.0000000   0.7961267   0.7499852  )
        17           Fe1 tau(  17) = (   0.4999998   0.0000000   0.0000000  )
        18           Fe2 tau(  18) = (   0.7500027   0.2653786   0.0000000  )
        19           Fe3 tau(  19) = (   0.7500015   0.0000000   0.2499947  )
        20           Fe4 tau(  20) = (   0.4999998   0.2653761   0.2499987  )
        21           Fe1 tau(  21) = (   0.4999998   0.0000000   0.4999935  )
        22           Fe2 tau(  22) = (   0.7499998   0.2653814   0.4999935  )
        23           Fe3 tau(  23) = (   0.7500015   0.0000000   0.7499912  )
        24           Fe4 tau(  24) = (   0.4999998   0.2653761   0.7499872  )
        25           Fe1 tau(  25) = (   0.4999998   0.5307519   0.0000000  )
        26           Fe2 tau(  26) = (   0.7500027   0.7961253   0.0000000  )
        27           Fe3 tau(  27) = (   0.7499992   0.5307519   0.2499987  )
        28           Fe4 tau(  28) = (   0.4999998   0.7961277   0.2499987  )
        29           Fe1 tau(  29) = (   0.4999998   0.5307519   0.4999935  )
        30           Fe2 tau(  30) = (   0.7499998   0.7961224   0.4999935  )
        31           Fe3 tau(  31) = (   0.7499992   0.5307519   0.7499882  )
        32           Fe4 tau(  32) = (   0.4999998   0.7961277   0.7499872  )

     number of k points=   125  Marzari-Vanderbilt smearing, width (Ry)=  0.0400

     Number of k-points >= 100: set verbosity='high' to print them.

     Dense  grid:   346155 G-vectors     FFT dimensions: (  90,  96,  90)

     Smooth grid:   185921 G-vectors     FFT dimensions: (  72,  75,  72)

     Estimated max dynamical RAM per process >     815.91 MB

     Estimated total dynamical RAM >      31.87 GB
     Generating pointlists ...
     new r_m :   0.1458 (alat units)  1.8869 (a.u.) for type    1
     new r_m :   0.1458 (alat units)  1.8869 (a.u.) for type    2
     new r_m :   0.1458 (alat units)  1.8869 (a.u.) for type    3
     new r_m :   0.1458 (alat units)  1.8869 (a.u.) for type    4

     Check: negative/imaginary core charge=   -0.000006    0.000000

     Initial potential from superposition of free atoms

     starting charge  511.98600, renormalised to  512.00000
     Starting wfcs are  320 randomized atomic wfcs
     Checking if some PAW data can be deallocated... 

     total cpu time spent up to now is       85.1 secs

     Self-consistent Calculation

     iteration #  1     ecut=    71.00 Ry     beta= 0.10
     Davidson diagonalization with overlap
     ethr =  1.00E-02,  avg # of iterations =  3.5

     Threshold (ethr) on eigenvalues was too large:
     Diagonalizing with lowered threshold

     Davidson diagonalization with overlap
     ethr =  3.12E-04,  avg # of iterations =  4.0

     total cpu time spent up to now is     1021.3 secs

     total energy              =  -10536.42711800 Ry
     Harris-Foulkes estimate   =  -10536.76319374 Ry
     estimated scf accuracy    <       1.84871477 Ry

     total magnetization       =     0.23 Bohr mag/cell
     absolute magnetization    =    44.74 Bohr mag/cell

     iteration #  2     ecut=    71.00 Ry     beta= 0.10
     Davidson diagonalization with overlap
     ethr =  3.61E-04,  avg # of iterations =  1.0

     total cpu time spent up to now is     1248.5 secs

     total energy              =  -10536.21388394 Ry
     Harris-Foulkes estimate   =  -10536.47231143 Ry
     estimated scf accuracy    <       1.09930235 Ry

     total magnetization       =    -0.11 Bohr mag/cell
     absolute magnetization    =    45.49 Bohr mag/cell

     iteration #  3     ecut=    71.00 Ry     beta= 0.10
     Davidson diagonalization with overlap
     ethr =  2.15E-04,  avg # of iterations =  2.3

     total cpu time spent up to now is     1564.0 secs

     total energy              =  -10536.07998751 Ry
     Harris-Foulkes estimate   =  -10536.35071916 Ry
     estimated scf accuracy    <       2.68861112 Ry

     total magnetization       =     0.22 Bohr mag/cell
     absolute magnetization    =    45.89 Bohr mag/cell

     iteration #  4     ecut=    71.00 Ry     beta= 0.10
     Davidson diagonalization with overlap
     ethr =  2.15E-04,  avg # of iterations =  2.5

     total cpu time spent up to now is     1890.1 secs

     total energy              =  -10536.18107392 Ry
     Harris-Foulkes estimate   =  -10536.21260221 Ry
     estimated scf accuracy    <       0.52412948 Ry

     total magnetization       =     0.34 Bohr mag/cell
     absolute magnetization    =    46.97 Bohr mag/cell

     iteration #  5     ecut=    71.00 Ry     beta= 0.10
     Davidson diagonalization with overlap
     ethr =  1.02E-04,  avg # of iterations =  1.3

     total cpu time spent up to now is     2140.7 secs

     total energy              =  -10536.19220734 Ry
     Harris-Foulkes estimate   =  -10536.20060028 Ry
     estimated scf accuracy    <       0.08481964 Ry

     total magnetization       =     0.02 Bohr mag/cell
     absolute magnetization    =    47.13 Bohr mag/cell

     iteration #  6     ecut=    71.00 Ry     beta= 0.10
     Davidson diagonalization with overlap
     ethr =  1.66E-05,  avg # of iterations =  3.3

     total cpu time spent up to now is     2515.7 secs

     total energy              =  -10536.18453981 Ry
     Harris-Foulkes estimate   =  -10536.19564517 Ry
     estimated scf accuracy    <       0.07116481 Ry

     total magnetization       =    -0.10 Bohr mag/cell
     absolute magnetization    =    47.11 Bohr mag/cell

     iteration #  7     ecut=    71.00 Ry     beta= 0.10
     Davidson diagonalization with overlap
     ethr =  1.39E-05,  avg # of iterations =  3.7

     total cpu time spent up to now is     3058.0 secs

     total energy              =  -10536.20228015 Ry
     Harris-Foulkes estimate   =  -10536.20349868 Ry
     estimated scf accuracy    <       0.10277331 Ry

     total magnetization       =     0.03 Bohr mag/cell
     absolute magnetization    =    47.34 Bohr mag/cell

     iteration #  8     ecut=    71.00 Ry     beta= 0.10
     Davidson diagonalization with overlap
     ethr =  1.39E-05,  avg # of iterations =  2.1

     total cpu time spent up to now is     3366.3 secs

     total energy              =  -10536.20303866 Ry
     Harris-Foulkes estimate   =  -10536.20660051 Ry
     estimated scf accuracy    <       0.07378718 Ry

     total magnetization       =     0.06 Bohr mag/cell
     absolute magnetization    =    47.62 Bohr mag/cell

     iteration #  9     ecut=    71.00 Ry     beta= 0.10
     Davidson diagonalization with overlap
     ethr =  1.39E-05,  avg # of iterations =  1.0

     total cpu time spent up to now is     3594.1 secs

     total energy              =  -10536.21411226 Ry
     Harris-Foulkes estimate   =  -10536.20453770 Ry
     estimated scf accuracy    <       0.03978356 Ry

     total magnetization       =     0.01 Bohr mag/cell
     absolute magnetization    =    47.79 Bohr mag/cell

     iteration # 10     ecut=    71.00 Ry     beta= 0.10
     Davidson diagonalization with overlap
     ethr =  7.77E-06,  avg # of iterations =  2.8

     total cpu time spent up to now is     3962.0 secs

     total energy              =  -10536.23882425 Ry
     Harris-Foulkes estimate   =  -10536.21721880 Ry
     estimated scf accuracy    <       0.03195031 Ry

     total magnetization       =    -0.08 Bohr mag/cell
     absolute magnetization    =    48.17 Bohr mag/cell

     iteration # 11     ecut=    71.00 Ry     beta= 0.10
     Davidson diagonalization with overlap
     ethr =  6.24E-06,  avg # of iterations =  3.5

     total cpu time spent up to now is     4473.2 secs

     total energy              =  -10536.25138102 Ry
     Harris-Foulkes estimate   =  -10536.24912938 Ry
     estimated scf accuracy    <       0.02890677 Ry

     total magnetization       =    -0.12 Bohr mag/cell
     absolute magnetization    =    49.05 Bohr mag/cell

     iteration # 12     ecut=    71.00 Ry     beta= 0.10
     Davidson diagonalization with overlap
     ethr =  5.65E-06,  avg # of iterations =  1.5

     total cpu time spent up to now is     4744.0 secs

     total energy              =  -10536.25283816 Ry
     Harris-Foulkes estimate   =  -10536.25306334 Ry
     estimated scf accuracy    <       0.00833276 Ry

     total magnetization       =    -0.03 Bohr mag/cell
     absolute magnetization    =    49.40 Bohr mag/cell

     iteration # 13     ecut=    71.00 Ry     beta= 0.10
     Davidson diagonalization with overlap
     ethr =  1.63E-06,  avg # of iterations =  3.1

     total cpu time spent up to now is     5149.0 secs

     total energy              =  -10536.25358930 Ry
     Harris-Foulkes estimate   =  -10536.25356080 Ry
     estimated scf accuracy    <       0.00215455 Ry

     total magnetization       =    -0.02 Bohr mag/cell
     absolute magnetization    =    49.56 Bohr mag/cell

     iteration # 14     ecut=    71.00 Ry     beta= 0.10
     Davidson diagonalization with overlap
     ethr =  4.21E-07,  avg # of iterations =  1.2

     total cpu time spent up to now is     5392.6 secs

     total energy              =  -10536.25367815 Ry
     Harris-Foulkes estimate   =  -10536.25362373 Ry
     estimated scf accuracy    <       0.00148865 Ry

     total magnetization       =    -0.01 Bohr mag/cell
     absolute magnetization    =    49.59 Bohr mag/cell

     iteration # 15     ecut=    71.00 Ry     beta= 0.10
     Davidson diagonalization with overlap
     ethr =  2.91E-07,  avg # of iterations =  1.2

     total cpu time spent up to now is     5633.0 secs

     total energy              =  -10536.25395513 Ry
     Harris-Foulkes estimate   =  -10536.25373883 Ry
     estimated scf accuracy    <       0.00103128 Ry

     total magnetization       =    -0.01 Bohr mag/cell
     absolute magnetization    =    49.69 Bohr mag/cell

     iteration # 16     ecut=    71.00 Ry     beta= 0.10
     Davidson diagonalization with overlap
     ethr =  2.01E-07,  avg # of iterations =  2.0

     total cpu time spent up to now is     5921.7 secs

     total energy              =  -10536.25399660 Ry
     Harris-Foulkes estimate   =  -10536.25403827 Ry
     estimated scf accuracy    <       0.00095146 Ry

     total magnetization       =     0.01 Bohr mag/cell
     absolute magnetization    =    49.83 Bohr mag/cell

     iteration # 17     ecut=    71.00 Ry     beta= 0.10
     Davidson diagonalization with overlap
     ethr =  1.86E-07,  avg # of iterations =  1.2

     total cpu time spent up to now is     6168.1 secs

     total energy              =  -10536.25419293 Ry
     Harris-Foulkes estimate   =  -10536.25405185 Ry
     estimated scf accuracy    <       0.00077092 Ry

     total magnetization       =    -0.03 Bohr mag/cell
     absolute magnetization    =    49.86 Bohr mag/cell

     iteration # 18     ecut=    71.00 Ry     beta= 0.10
     Davidson diagonalization with overlap
     ethr =  1.51E-07,  avg # of iterations =  1.2

     total cpu time spent up to now is     6413.3 secs

     total energy              =  -10536.25436961 Ry
     Harris-Foulkes estimate   =  -10536.25423050 Ry
     estimated scf accuracy    <       0.00048817 Ry

     total magnetization       =    -0.01 Bohr mag/cell
     absolute magnetization    =    49.96 Bohr mag/cell

     iteration # 19     ecut=    71.00 Ry     beta= 0.10
     Davidson diagonalization with overlap
     ethr =  9.53E-08,  avg # of iterations =  2.6

     total cpu time spent up to now is     6750.8 secs

     total energy              =  -10536.25450083 Ry
     Harris-Foulkes estimate   =  -10536.25440202 Ry
     estimated scf accuracy    <       0.00038480 Ry

     total magnetization       =    -0.00 Bohr mag/cell
     absolute magnetization    =    50.06 Bohr mag/cell

     iteration # 20     ecut=    71.00 Ry     beta= 0.10
     Davidson diagonalization with overlap
     ethr =  7.52E-08,  avg # of iterations =  2.2

     total cpu time spent up to now is     7058.8 secs

     total energy              =  -10536.25465293 Ry
     Harris-Foulkes estimate   =  -10536.25452567 Ry
     estimated scf accuracy    <       0.00039106 Ry

     total magnetization       =    -0.01 Bohr mag/cell
     absolute magnetization    =    50.16 Bohr mag/cell

     iteration # 21     ecut=    71.00 Ry     beta= 0.10
     Davidson diagonalization with overlap
     ethr =  7.52E-08,  avg # of iterations =  3.1

     total cpu time spent up to now is     7456.6 secs

     total energy              =  -10536.25475390 Ry
     Harris-Foulkes estimate   =  -10536.25473172 Ry
     estimated scf accuracy    <       0.00016185 Ry

     total magnetization       =    -0.01 Bohr mag/cell
     absolute magnetization    =    50.38 Bohr mag/cell

     iteration # 22     ecut=    71.00 Ry     beta= 0.10
     Davidson diagonalization with overlap
     ethr =  3.16E-08,  avg # of iterations =  1.3

     total cpu time spent up to now is     7706.6 secs

     total energy              =  -10536.25477588 Ry
     Harris-Foulkes estimate   =  -10536.25476325 Ry
     estimated scf accuracy    <       0.00011391 Ry

     total magnetization       =    -0.00 Bohr mag/cell
     absolute magnetization    =    50.44 Bohr mag/cell

     iteration # 23     ecut=    71.00 Ry     beta= 0.10
     Davidson diagonalization with overlap
     ethr =  2.22E-08,  avg # of iterations =  1.0

     total cpu time spent up to now is     7936.7 secs

     total energy              =  -10536.25479377 Ry
     Harris-Foulkes estimate   =  -10536.25477963 Ry
     estimated scf accuracy    <       0.00009548 Ry

     total magnetization       =    -0.00 Bohr mag/cell
     absolute magnetization    =    50.48 Bohr mag/cell

     iteration # 24     ecut=    71.00 Ry     beta= 0.10
     Davidson diagonalization with overlap
     ethr =  1.86E-08,  avg # of iterations =  2.0

     total cpu time spent up to now is     8235.7 secs

     total energy              =  -10536.25479840 Ry
     Harris-Foulkes estimate   =  -10536.25480008 Ry
     estimated scf accuracy    <       0.00008989 Ry

     total magnetization       =    -0.01 Bohr mag/cell
     absolute magnetization    =    50.53 Bohr mag/cell

     iteration # 25     ecut=    71.00 Ry     beta= 0.10
     Davidson diagonalization with overlap
     ethr =  1.76E-08,  avg # of iterations =  3.1

     total cpu time spent up to now is     8686.1 secs

     total energy              =  -10536.25482837 Ry
     Harris-Foulkes estimate   =  -10536.25482862 Ry
     estimated scf accuracy    <       0.00005096 Ry

     total magnetization       =    -0.00 Bohr mag/cell
     absolute magnetization    =    50.68 Bohr mag/cell

     iteration # 26     ecut=    71.00 Ry     beta= 0.10
     Davidson diagonalization with overlap
     ethr =  9.95E-09,  avg # of iterations =  1.0

     total cpu time spent up to now is     8916.3 secs

     total energy              =  -10536.25483348 Ry
     Harris-Foulkes estimate   =  -10536.25483268 Ry
     estimated scf accuracy    <       0.00006643 Ry

     total magnetization       =    -0.00 Bohr mag/cell
     absolute magnetization    =    50.69 Bohr mag/cell

     iteration # 27     ecut=    71.00 Ry     beta= 0.10
     Davidson diagonalization with overlap
     ethr =  9.95E-09,  avg # of iterations =  1.0

     total cpu time spent up to now is     9144.2 secs

     total energy              =  -10536.25483896 Ry
     Harris-Foulkes estimate   =  -10536.25483621 Ry
     estimated scf accuracy    <       0.00001479 Ry

     total magnetization       =    -0.00 Bohr mag/cell
     absolute magnetization    =    50.72 Bohr mag/cell

     iteration # 28     ecut=    71.00 Ry     beta= 0.10
     Davidson diagonalization with overlap
     ethr =  2.89E-09,  avg # of iterations =  2.1

     total cpu time spent up to now is     9449.9 secs

     total energy              =  -10536.25484331 Ry
     Harris-Foulkes estimate   =  -10536.25483960 Ry
     estimated scf accuracy    <       0.00001529 Ry

     total magnetization       =    -0.00 Bohr mag/cell
     absolute magnetization    =    50.74 Bohr mag/cell

     iteration # 29     ecut=    71.00 Ry     beta= 0.10
     Davidson diagonalization with overlap
     ethr =  2.89E-09,  avg # of iterations =  1.5

     total cpu time spent up to now is     9717.3 secs

     total energy              =  -10536.25484771 Ry
     Harris-Foulkes estimate   =  -10536.25484406 Ry
     estimated scf accuracy    <       0.00000987 Ry

     total magnetization       =    -0.00 Bohr mag/cell
     absolute magnetization    =    50.75 Bohr mag/cell

     iteration # 30     ecut=    71.00 Ry     beta= 0.10
     Davidson diagonalization with overlap
     ethr =  1.93E-09,  avg # of iterations =  2.7

     total cpu time spent up to now is    10106.9 secs

     total energy              =  -10536.25484908 Ry
     Harris-Foulkes estimate   =  -10536.25484878 Ry
     estimated scf accuracy    <       0.00000593 Ry

     total magnetization       =    -0.00 Bohr mag/cell
     absolute magnetization    =    50.77 Bohr mag/cell

     iteration # 31     ecut=    71.00 Ry     beta= 0.10
     Davidson diagonalization with overlap
     ethr =  1.16E-09,  avg # of iterations =  2.9

     total cpu time spent up to now is    10489.0 secs

     total energy              =  -10536.25485164 Ry
     Harris-Foulkes estimate   =  -10536.25485053 Ry
     estimated scf accuracy    <       0.00000529 Ry

     total magnetization       =    -0.00 Bohr mag/cell
     absolute magnetization    =    50.80 Bohr mag/cell

     iteration # 32     ecut=    71.00 Ry     beta= 0.10
     Davidson diagonalization with overlap
     ethr =  1.03E-09,  avg # of iterations =  2.3

     total cpu time spent up to now is    10808.6 secs

     total energy              =  -10536.25485222 Ry
     Harris-Foulkes estimate   =  -10536.25485223 Ry
     estimated scf accuracy    <       0.00000223 Ry

     total magnetization       =    -0.00 Bohr mag/cell
     absolute magnetization    =    50.82 Bohr mag/cell

     iteration # 33     ecut=    71.00 Ry     beta= 0.10
     Davidson diagonalization with overlap
     ethr =  4.36E-10,  avg # of iterations =  1.6

     total cpu time spent up to now is    11071.8 secs

     total energy              =  -10536.25485255 Ry
     Harris-Foulkes estimate   =  -10536.25485235 Ry
     estimated scf accuracy    <       0.00000180 Ry

     total magnetization       =    -0.00 Bohr mag/cell
     absolute magnetization    =    50.81 Bohr mag/cell

     iteration # 34     ecut=    71.00 Ry     beta= 0.10
     Davidson diagonalization with overlap
     ethr =  3.52E-10,  avg # of iterations =  1.0

     total cpu time spent up to now is    11299.9 secs

     total energy              =  -10536.25485320 Ry
     Harris-Foulkes estimate   =  -10536.25485260 Ry
     estimated scf accuracy    <       0.00000134 Ry

     total magnetization       =    -0.00 Bohr mag/cell
     absolute magnetization    =    50.81 Bohr mag/cell

     iteration # 35     ecut=    71.00 Ry     beta= 0.10
     Davidson diagonalization with overlap
     ethr =  2.61E-10,  avg # of iterations =  3.1
 
     Magnetic moment per site:
     atom:    1    charge:   14.3827    magn:    1.5287    constr:    0.0000
     atom:    2    charge:   14.3833    magn:   -1.5286    constr:    0.0000
     atom:    3    charge:   14.3824    magn:    1.5310    constr:    0.0000
     atom:    4    charge:   14.3829    magn:   -1.5324    constr:    0.0000
     atom:    5    charge:   14.3828    magn:    1.5294    constr:    0.0000
     atom:    6    charge:   14.3829    magn:   -1.5282    constr:    0.0000
     atom:    7    charge:   14.3824    magn:    1.5310    constr:    0.0000
     atom:    8    charge:   14.3829    magn:   -1.5324    constr:    0.0000
     atom:    9    charge:   14.3826    magn:    1.5295    constr:    0.0000
     atom:   10    charge:   14.3833    magn:   -1.5286    constr:    0.0000
     atom:   11    charge:   14.3825    magn:    1.5305    constr:    0.0000
     atom:   12    charge:   14.3829    magn:   -1.5324    constr:    0.0000
     atom:   13    charge:   14.3827    magn:    1.5300    constr:    0.0000
     atom:   14    charge:   14.3829    magn:   -1.5282    constr:    0.0000
     atom:   15    charge:   14.3825    magn:    1.5305    constr:    0.0000
     atom:   16    charge:   14.3829    magn:   -1.5324    constr:    0.0000
     atom:   17    charge:   14.3828    magn:    1.5298    constr:    0.0000
     atom:   18    charge:   14.3833    magn:   -1.5286    constr:    0.0000
     atom:   19    charge:   14.3824    magn:    1.5310    constr:    0.0000
     atom:   20    charge:   14.3833    magn:   -1.5314    constr:    0.0000
     atom:   21    charge:   14.3827    magn:    1.5301    constr:    0.0000
     atom:   22    charge:   14.3829    magn:   -1.5282    constr:    0.0000
     atom:   23    charge:   14.3824    magn:    1.5310    constr:    0.0000
     atom:   24    charge:   14.3833    magn:   -1.5314    constr:    0.0000
     atom:   25    charge:   14.3827    magn:    1.5290    constr:    0.0000
     atom:   26    charge:   14.3833    magn:   -1.5286    constr:    0.0000
     atom:   27    charge:   14.3825    magn:    1.5305    constr:    0.0000
     atom:   28    charge:   14.3833    magn:   -1.5314    constr:    0.0000
     atom:   29    charge:   14.3828    magn:    1.5290    constr:    0.0000
     atom:   30    charge:   14.3829    magn:   -1.5282    constr:    0.0000
     atom:   31    charge:   14.3825    magn:    1.5305    constr:    0.0000
     atom:   32    charge:   14.3833    magn:   -1.5314    constr:    0.0000

     total cpu time spent up to now is    11741.5 secs

     End of self-consistent calculation

     Number of k-points >= 100: set verbosity='high' to print the bands.

     the Fermi energy is    19.9648 ev

!    total energy              =  -10536.25485344 Ry
     Harris-Foulkes estimate   =  -10536.25485354 Ry
     estimated scf accuracy    <       0.00000099 Ry

     total all-electron energy =    -81457.743911 Ry

     The total energy is the sum of the following terms:

     one-electron contribution =   -3312.40158632 Ry
     hartree contribution      =    2003.72500891 Ry
     xc contribution           =    -886.87611535 Ry
     ewald contribution        =   -5691.16388036 Ry
     one-center paw contrib.   =   -2649.55672291 Ry
     smearing contrib. (-TS)   =       0.01844260 Ry

     total magnetization       =    -0.00 Bohr mag/cell
     absolute magnetization    =    50.82 Bohr mag/cell

     convergence has been achieved in  35 iterations

     Forces acting on atoms (cartesian axes, Ry/au):

     atom    1 type  1   force =     0.00000000    0.00000000    0.00000000
     atom    2 type  2   force =    -0.00001761   -0.00004603    0.00000000
     atom    3 type  3   force =    -0.00001828    0.00000000    0.00007873
     atom    4 type  4   force =     0.00000000   -0.00003979   -0.00002739
     atom    5 type  1   force =     0.00000000    0.00000000    0.00000000
     atom    6 type  2   force =    -0.00003673   -0.00008407    0.00000000
     atom    7 type  3   force =    -0.00001828   -0.00000000   -0.00007873
     atom    8 type  4   force =     0.00000000   -0.00003979    0.00002739
     atom    9 type  1   force =     0.00000000    0.00000000    0.00000000
     atom   10 type  2   force =    -0.00001761    0.00004603    0.00000000
     atom   11 type  3   force =    -0.00004744   -0.00000000    0.00002136
     atom   12 type  4   force =     0.00000000    0.00003979   -0.00002739
     atom   13 type  1   force =     0.00000000    0.00000000    0.00000000
     atom   14 type  2   force =    -0.00003673    0.00008407    0.00000000
     atom   15 type  3   force =    -0.00004744    0.00000000   -0.00002136
     atom   16 type  4   force =     0.00000000    0.00003979    0.00002739
     atom   17 type  1   force =     0.00000000    0.00000000    0.00000000
     atom   18 type  2   force =     0.00001761   -0.00004603    0.00000000
     atom   19 type  3   force =     0.00001828   -0.00000000    0.00007873
     atom   20 type  4   force =     0.00000000   -0.00001018    0.00000259
     atom   21 type  1   force =     0.00000000    0.00000000    0.00000000
     atom   22 type  2   force =     0.00003673   -0.00008407    0.00000000
     atom   23 type  3   force =     0.00001828    0.00000000   -0.00007873
     atom   24 type  4   force =     0.00000000   -0.00001018   -0.00000259
     atom   25 type  1   force =     0.00000000    0.00000000    0.00000000
     atom   26 type  2   force =     0.00001761    0.00004603    0.00000000
     atom   27 type  3   force =     0.00004744    0.00000000    0.00002136
     atom   28 type  4   force =     0.00000000    0.00001018    0.00000259
     atom   29 type  1   force =     0.00000000    0.00000000    0.00000000
     atom   30 type  2   force =     0.00003673    0.00008407    0.00000000
     atom   31 type  3   force =     0.00004744   -0.00000000   -0.00002136
     atom   32 type  4   force =     0.00000000    0.00001018   -0.00000259

     Total force =     0.000300     Total SCF correction =     0.005915
     SCF correction compared to forces is large: reduce conv_thr to get better values


     Computing stress (Cartesian axis) and pressure

          total   stress  (Ry/bohr**3)                   (kbar)     P=  -13.10
  -0.00006431   0.00000000   0.00000000         -9.46      0.00      0.00
   0.00000000  -0.00013852   0.00000000          0.00    -20.38      0.00
   0.00000000   0.00000000  -0.00006435          0.00      0.00     -9.47


     Writing output data file cgztvChrrxklsYVk.save/
-------------------------------------------------------
Primary job  terminated normally, but 1 process returned
a non-zero exit code.. Per user-direction, the job has been aborted.
-------------------------------------------------------
--------------------------------------------------------------------------
mpirun detected that one or more processes exited with non-zero status, thus causing
the job to be terminated. The first process to do so was:

  Process name: [[16779,1],0]
  Exit code:    38
--------------------------------------------------------------------------
