--------------------------------------------------------------------------
WARNING: There was an error initializing an OpenFabrics device.

  Local host:   bear-pg0211u36a
  Local device: mlx5_0
--------------------------------------------------------------------------

     Program PWSCF v.6.3 starts on 17Oct2020 at 20:46:37 

     This program is part of the open-source Quantum ESPRESSO suite
     for quantum simulation of materials; please cite
         "P. Giannozzi et al., J. Phys.:Condens. Matter 21 395502 (2009);
         "P. Giannozzi et al., J. Phys.:Condens. Matter 29 465901 (2017);
          URL http://www.quantum-espresso.org", 
     in publications or presentations arising from this work. More details at
     http://www.quantum-espresso.org/quote

     Parallel version (MPI & OpenMP), running on      40 processor cores
     Number of MPI processes:                40
     Threads/MPI process:                     1

     MPI processes distributed on     1 nodes
     R & G space division:  proc/nbgrp/npool/nimage =      40
     Reading input from wd/ec/ec_6_005.in
Warning: card &IONS ignored
Warning: card ION_DYNAMICS = 'BFGS', ignored
Warning: card / ignored
Warning: card &CELL ignored
Warning: card CELL_DYNAMICS = 'BFGS', ignored
Warning: card CELL_FACTOR = 2.0, ignored
Warning: card PRESS = 0.0, ignored
Warning: card / ignored

     Current dimensions of program PWSCF are:
     Max number of different atomic species (ntypx) = 10
     Max number of k-points (npk) =  40000
     Max angular momentum in pseudopotentials (lmaxx) =  3
               file Fe.pbe-spn-kjpaw_psl.1.0.0.UPF: wavefunction(s)  3P 3D renormalized
               file Fe.pbe-spn-kjpaw_psl.1.0.0.UPF: wavefunction(s)  3P 3D renormalized
               file Fe.pbe-spn-kjpaw_psl.1.0.0.UPF: wavefunction(s)  3P 3D renormalized
               file Fe.pbe-spn-kjpaw_psl.1.0.0.UPF: wavefunction(s)  3P 3D renormalized

     Subspace diagonalization in iterative solution of the eigenvalue problem:
     a serial algorithm will be used

     Found symmetry operation: I + (  0.0000  0.0000 -0.5000)
     This is a supercell, fractional translations are disabled
 
     Parallelization info
     --------------------
     sticks:   dense  smooth     PW     G-vecs:    dense   smooth      PW
     Min         151      99     27                 8595     4613     665
     Max         152     100     28                 8599     4618     668
     Sum        6041    3985   1105               343889   184597   26653
 


     bravais-lattice index     =            0
     lattice parameter (alat)  =      12.9382  a.u.
     unit-cell volume          =    2283.7593 (a.u.)^3
     number of atoms/cell      =           32
     number of atomic types    =            4
     number of electrons       =       512.00
     number of Kohn-Sham states=          307
     kinetic-energy cutoff     =      71.0000  Ry
     charge density cutoff     =     430.0000  Ry
     convergence threshold     =      1.0E-06
     mixing beta               =       0.1000
     number of iterations used =           10  plain     mixing
     Exchange-correlation      = SLA PW PBX PBC ( 1  4  3  4 0 0)

     celldm(1)=  12.938187  celldm(2)=   0.000000  celldm(3)=   0.000000
     celldm(4)=   0.000000  celldm(5)=   0.000000  celldm(6)=   0.000000

     crystal axes: (cart. coord. in units of alat)
               a(1) = (   1.000015   0.007030   0.000000 )  
               a(2) = (   0.006667   1.054489   0.000000 )  
               a(3) = (   0.000000   0.000000   1.000002 )  

     reciprocal axes: (cart. coord. in units 2 pi/alat)
               b(1) = (  1.000030 -0.006322  0.000000 )  
               b(2) = ( -0.006667  0.948368  0.000000 )  
               b(3) = (  0.000000  0.000000  0.999998 )  


     PseudoPot. # 1 for Fe read from file:
     /rds/homes/b/bxp912/pp/Fe.pbe-spn-kjpaw_psl.1.0.0.UPF
     MD5 check sum: 42f43b795421b414b0dc916aa790dbcb
     Pseudo is Projector augmented-wave + core cor, Zval = 16.0
     Generated using "atomic" code by A. Dal Corso v.6.3
     Shape of augmentation charge: PSQ
     Using radial grid of 1191 points,  6 beta functions with: 
                l(1) =   0
                l(2) =   0
                l(3) =   1
                l(4) =   1
                l(5) =   2
                l(6) =   2
     Q(r) pseudized with 0 coefficients 


     PseudoPot. # 2 for Fe read from file:
     /rds/homes/b/bxp912/pp/Fe.pbe-spn-kjpaw_psl.1.0.0.UPF
     MD5 check sum: 42f43b795421b414b0dc916aa790dbcb
     Pseudo is Projector augmented-wave + core cor, Zval = 16.0
     Generated using "atomic" code by A. Dal Corso v.6.3
     Shape of augmentation charge: PSQ
     Using radial grid of 1191 points,  6 beta functions with: 
                l(1) =   0
                l(2) =   0
                l(3) =   1
                l(4) =   1
                l(5) =   2
                l(6) =   2
     Q(r) pseudized with 0 coefficients 


     PseudoPot. # 3 for Fe read from file:
     /rds/homes/b/bxp912/pp/Fe.pbe-spn-kjpaw_psl.1.0.0.UPF
     MD5 check sum: 42f43b795421b414b0dc916aa790dbcb
     Pseudo is Projector augmented-wave + core cor, Zval = 16.0
     Generated using "atomic" code by A. Dal Corso v.6.3
     Shape of augmentation charge: PSQ
     Using radial grid of 1191 points,  6 beta functions with: 
                l(1) =   0
                l(2) =   0
                l(3) =   1
                l(4) =   1
                l(5) =   2
                l(6) =   2
     Q(r) pseudized with 0 coefficients 


     PseudoPot. # 4 for Fe read from file:
     /rds/homes/b/bxp912/pp/Fe.pbe-spn-kjpaw_psl.1.0.0.UPF
     MD5 check sum: 42f43b795421b414b0dc916aa790dbcb
     Pseudo is Projector augmented-wave + core cor, Zval = 16.0
     Generated using "atomic" code by A. Dal Corso v.6.3
     Shape of augmentation charge: PSQ
     Using radial grid of 1191 points,  6 beta functions with: 
                l(1) =   0
                l(2) =   0
                l(3) =   1
                l(4) =   1
                l(5) =   2
                l(6) =   2
     Q(r) pseudized with 0 coefficients 


     atomic species   valence    mass     pseudopotential
        Fe1           16.00    55.84500     Fe( 1.00)
        Fe2           16.00    55.84500     Fe( 1.00)
        Fe3           16.00    55.84500     Fe( 1.00)
        Fe4           16.00    55.84500     Fe( 1.00)

     Starting magnetic structure 
     atomic species   magnetization
        Fe1          0.100
        Fe2         -0.100
        Fe3          0.100
        Fe4         -0.100

      4 Sym. Ops., with inversion, found



   Cartesian axes

     site n.     atom                  positions (alat units)
         1           Fe1 tau(   1) = (   0.0000000   0.0000000   0.0000000  )
         2           Fe2 tau(   2) = (   0.2516673   0.2653824   0.0000000  )
         3           Fe3 tau(   3) = (   0.2500019   0.0017575   0.2499984  )
         4           Fe4 tau(   4) = (   0.0016667   0.2636236   0.2500045  )
         5           Fe1 tau(   5) = (   0.0000000   0.0000000   0.5000009  )
         6           Fe2 tau(   6) = (   0.2516701   0.2653853   0.5000009  )
         7           Fe3 tau(   7) = (   0.2500019   0.0017575   0.7500023  )
         8           Fe4 tau(   8) = (   0.0016667   0.2636236   0.7499963  )
         9           Fe1 tau(   9) = (   0.0033334   0.5272448   0.0000000  )
        10           Fe2 tau(  10) = (   0.2550006   0.7926221   0.0000000  )
        11           Fe3 tau(  11) = (   0.2533374   0.5290022   0.2500025  )
        12           Fe4 tau(  12) = (   0.0050001   0.7908660   0.2500045  )
        13           Fe1 tau(  13) = (   0.0033334   0.5272448   0.5000009  )
        14           Fe2 tau(  14) = (   0.2550034   0.7926193   0.5000009  )
        15           Fe3 tau(  15) = (   0.2533374   0.5290022   0.7499993  )
        16           Fe4 tau(  16) = (   0.0050001   0.7908660   0.7499963  )
        17           Fe1 tau(  17) = (   0.5000072   0.0035150   0.0000000  )
        18           Fe2 tau(  18) = (   0.7516805   0.2688974   0.0000000  )
        19           Fe3 tau(  19) = (   0.7500126   0.0052725   0.2499984  )
        20           Fe4 tau(  20) = (   0.5016739   0.2671375   0.2500025  )
        21           Fe1 tau(  21) = (   0.5000072   0.0035150   0.5000009  )
        22           Fe2 tau(  22) = (   0.7516777   0.2689002   0.5000009  )
        23           Fe3 tau(  23) = (   0.7500126   0.0052725   0.7500023  )
        24           Fe4 tau(  24) = (   0.5016739   0.2671375   0.7499983  )
        25           Fe1 tau(  25) = (   0.5033406   0.5307597   0.0000000  )
        26           Fe2 tau(  26) = (   0.7550138   0.7961371   0.0000000  )
        27           Fe3 tau(  27) = (   0.7533437   0.5325172   0.2500025  )
        28           Fe4 tau(  28) = (   0.5050073   0.7943820   0.2500025  )
        29           Fe1 tau(  29) = (   0.5033406   0.5307597   0.5000009  )
        30           Fe2 tau(  30) = (   0.7550110   0.7961343   0.5000009  )
        31           Fe3 tau(  31) = (   0.7533437   0.5325172   0.7499993  )
        32           Fe4 tau(  32) = (   0.5050073   0.7943820   0.7499983  )

     number of k points=   205  Marzari-Vanderbilt smearing, width (Ry)=  0.0400

     Number of k-points >= 100: set verbosity='high' to print them.

     Dense  grid:   343889 G-vectors     FFT dimensions: (  90,  96,  90)

     Smooth grid:   184597 G-vectors     FFT dimensions: (  72,  75,  72)

     Estimated max dynamical RAM per process >       1.21 GB

     Estimated total dynamical RAM >      48.54 GB
     Generating pointlists ...
     new r_m :   0.1458 (alat units)  1.8869 (a.u.) for type    1
     new r_m :   0.1458 (alat units)  1.8869 (a.u.) for type    2
     new r_m :   0.1458 (alat units)  1.8869 (a.u.) for type    3
     new r_m :   0.1458 (alat units)  1.8869 (a.u.) for type    4

     Check: negative/imaginary core charge=   -0.000006    0.000000

     Initial potential from superposition of free atoms

     starting charge  511.98600, renormalised to  512.00000
     Starting wfcs are  320 randomized atomic wfcs
     Checking if some PAW data can be deallocated... 

     total cpu time spent up to now is      138.7 secs

     Self-consistent Calculation

     iteration #  1     ecut=    71.00 Ry     beta= 0.10
     Davidson diagonalization with overlap
     ethr =  1.00E-02,  avg # of iterations =  3.7

     Threshold (ethr) on eigenvalues was too large:
     Diagonalizing with lowered threshold

     Davidson diagonalization with overlap
     ethr =  3.87E-04,  avg # of iterations =  3.9

     total cpu time spent up to now is     1730.0 secs

     total energy              =  -10536.63247916 Ry
     Harris-Foulkes estimate   =  -10537.05580420 Ry
     estimated scf accuracy    <       2.28573281 Ry

     total magnetization       =     0.32 Bohr mag/cell
     absolute magnetization    =    44.77 Bohr mag/cell

     iteration #  2     ecut=    71.00 Ry     beta= 0.10
     Davidson diagonalization with overlap
     ethr =  4.46E-04,  avg # of iterations =  1.0

     total cpu time spent up to now is     2114.2 secs

     total energy              =  -10536.45709397 Ry
     Harris-Foulkes estimate   =  -10536.69621643 Ry
     estimated scf accuracy    <       1.53745149 Ry

     total magnetization       =    -0.22 Bohr mag/cell
     absolute magnetization    =    45.33 Bohr mag/cell

     iteration #  3     ecut=    71.00 Ry     beta= 0.10
     Davidson diagonalization with overlap
     ethr =  3.00E-04,  avg # of iterations =  1.2

     negative rho (up, down):  6.358E-04 0.000E+00

     total cpu time spent up to now is     2517.2 secs

     total energy              =  -10536.11401521 Ry
     Harris-Foulkes estimate   =  -10536.55704468 Ry
     estimated scf accuracy    <       1.66411879 Ry

     total magnetization       =     0.47 Bohr mag/cell
     absolute magnetization    =    45.80 Bohr mag/cell

     iteration #  4     ecut=    71.00 Ry     beta= 0.10
     Davidson diagonalization with overlap
     ethr =  3.00E-04,  avg # of iterations =  2.8

     negative rho (up, down):  1.150E-03 0.000E+00

     total cpu time spent up to now is     3143.2 secs

     total energy              =  -10536.17520185 Ry
     Harris-Foulkes estimate   =  -10536.28253473 Ry
     estimated scf accuracy    <       1.38041356 Ry

     total magnetization       =     0.29 Bohr mag/cell
     absolute magnetization    =    46.38 Bohr mag/cell

     iteration #  5     ecut=    71.00 Ry     beta= 0.10
     Davidson diagonalization with overlap
     ethr =  2.70E-04,  avg # of iterations =  1.1

     negative rho (up, down):  1.083E-03 0.000E+00

     total cpu time spent up to now is     3539.7 secs

     total energy              =  -10536.20016147 Ry
     Harris-Foulkes estimate   =  -10536.22374066 Ry
     estimated scf accuracy    <       0.12713037 Ry

     total magnetization       =     0.02 Bohr mag/cell
     absolute magnetization    =    46.68 Bohr mag/cell

     iteration #  6     ecut=    71.00 Ry     beta= 0.10
     Davidson diagonalization with overlap
     ethr =  2.48E-05,  avg # of iterations =  3.4

     negative rho (up, down):  1.124E-03 0.000E+00

     total cpu time spent up to now is     4184.5 secs

     total energy              =  -10536.18832440 Ry
     Harris-Foulkes estimate   =  -10536.20736409 Ry
     estimated scf accuracy    <       0.09025832 Ry

     total magnetization       =    -0.24 Bohr mag/cell
     absolute magnetization    =    46.58 Bohr mag/cell

     iteration #  7     ecut=    71.00 Ry     beta= 0.10
     Davidson diagonalization with overlap
     c_bands:  1 eigenvalues not converged
     ethr =  1.76E-05,  avg # of iterations =  1.8

     negative rho (up, down):  1.371E-03 0.000E+00

     total cpu time spent up to now is     4661.4 secs

     total energy              =  -10536.16871352 Ry
     Harris-Foulkes estimate   =  -10536.19234918 Ry
     estimated scf accuracy    <       0.05401717 Ry

     total magnetization       =    -0.02 Bohr mag/cell
     absolute magnetization    =    46.59 Bohr mag/cell

     iteration #  8     ecut=    71.00 Ry     beta= 0.10
     Davidson diagonalization with overlap
     ethr =  1.06E-05,  avg # of iterations =  3.0

     negative rho (up, down):  1.511E-03 0.000E+00

     total cpu time spent up to now is     5349.1 secs

     total energy              =  -10536.16514622 Ry
     Harris-Foulkes estimate   =  -10536.17410205 Ry
     estimated scf accuracy    <       0.07722657 Ry

     total magnetization       =     0.03 Bohr mag/cell
     absolute magnetization    =    46.77 Bohr mag/cell

     iteration #  9     ecut=    71.00 Ry     beta= 0.10
     Davidson diagonalization with overlap
     ethr =  1.06E-05,  avg # of iterations =  2.0

     negative rho (up, down):  1.376E-03 0.000E+00

     total cpu time spent up to now is     5862.6 secs

     total energy              =  -10536.17218202 Ry
     Harris-Foulkes estimate   =  -10536.16830195 Ry
     estimated scf accuracy    <       0.03850711 Ry

     total magnetization       =    -0.02 Bohr mag/cell
     absolute magnetization    =    46.92 Bohr mag/cell

     iteration # 10     ecut=    71.00 Ry     beta= 0.10
     Davidson diagonalization with overlap
     ethr =  7.52E-06,  avg # of iterations =  1.3

     negative rho (up, down):  1.058E-04 0.000E+00

     total cpu time spent up to now is     6289.0 secs

     total energy              =  -10536.20484838 Ry
     Harris-Foulkes estimate   =  -10536.17330544 Ry
     estimated scf accuracy    <       0.03880630 Ry

     total magnetization       =    -0.10 Bohr mag/cell
     absolute magnetization    =    47.05 Bohr mag/cell

     iteration # 11     ecut=    71.00 Ry     beta= 0.10
     Davidson diagonalization with overlap
     ethr =  7.52E-06,  avg # of iterations =  3.7

     total cpu time spent up to now is     7190.8 secs

     total energy              =  -10536.23424022 Ry
     Harris-Foulkes estimate   =  -10536.21992165 Ry
     estimated scf accuracy    <       0.04303284 Ry

     total magnetization       =    -0.18 Bohr mag/cell
     absolute magnetization    =    47.70 Bohr mag/cell

     iteration # 12     ecut=    71.00 Ry     beta= 0.10
     Davidson diagonalization with overlap
     ethr =  7.52E-06,  avg # of iterations =  3.0

     total cpu time spent up to now is     7953.2 secs

     total energy              =  -10536.24572639 Ry
     Harris-Foulkes estimate   =  -10536.24200908 Ry
     estimated scf accuracy    <       0.01332431 Ry

     total magnetization       =    -0.07 Bohr mag/cell
     absolute magnetization    =    48.07 Bohr mag/cell

     iteration # 13     ecut=    71.00 Ry     beta= 0.10
     Davidson diagonalization with overlap
     ethr =  2.60E-06,  avg # of iterations =  3.8

     total cpu time spent up to now is     8876.3 secs

     total energy              =  -10536.24383107 Ry
     Harris-Foulkes estimate   =  -10536.24847675 Ry
     estimated scf accuracy    <       0.01285148 Ry

     total magnetization       =    -0.02 Bohr mag/cell
     absolute magnetization    =    48.29 Bohr mag/cell

     iteration # 14     ecut=    71.00 Ry     beta= 0.10
     Davidson diagonalization with overlap
     ethr =  2.51E-06,  avg # of iterations =  3.0

     total cpu time spent up to now is     9639.4 secs

     total energy              =  -10536.24603832 Ry
     Harris-Foulkes estimate   =  -10536.24585133 Ry
     estimated scf accuracy    <       0.00538480 Ry

     total magnetization       =    -0.06 Bohr mag/cell
     absolute magnetization    =    48.34 Bohr mag/cell

     iteration # 15     ecut=    71.00 Ry     beta= 0.10
     Davidson diagonalization with overlap
     ethr =  1.05E-06,  avg # of iterations =  1.0

     total cpu time spent up to now is    10024.5 secs

     total energy              =  -10536.24660110 Ry
     Harris-Foulkes estimate   =  -10536.24623322 Ry
     estimated scf accuracy    <       0.00264725 Ry

     total magnetization       =    -0.06 Bohr mag/cell
     absolute magnetization    =    48.38 Bohr mag/cell

     iteration # 16     ecut=    71.00 Ry     beta= 0.10
     Davidson diagonalization with overlap
     ethr =  5.17E-07,  avg # of iterations =  1.1

     total cpu time spent up to now is    10419.0 secs

     total energy              =  -10536.24674261 Ry
     Harris-Foulkes estimate   =  -10536.24669823 Ry
     estimated scf accuracy    <       0.00216993 Ry

     total magnetization       =    -0.07 Bohr mag/cell
     absolute magnetization    =    48.45 Bohr mag/cell

     iteration # 17     ecut=    71.00 Ry     beta= 0.10
     Davidson diagonalization with overlap
     ethr =  4.24E-07,  avg # of iterations =  1.0

     total cpu time spent up to now is    10805.0 secs

     total energy              =  -10536.24708149 Ry
     Harris-Foulkes estimate   =  -10536.24686704 Ry
     estimated scf accuracy    <       0.00320163 Ry

     total magnetization       =    -0.07 Bohr mag/cell
     absolute magnetization    =    48.50 Bohr mag/cell

     iteration # 18     ecut=    71.00 Ry     beta= 0.10
     Davidson diagonalization with overlap
     ethr =  4.24E-07,  avg # of iterations =  1.1

     total cpu time spent up to now is    11204.9 secs

     total energy              =  -10536.24731430 Ry
     Harris-Foulkes estimate   =  -10536.24723638 Ry
     estimated scf accuracy    <       0.00130772 Ry

     total magnetization       =    -0.06 Bohr mag/cell
     absolute magnetization    =    48.64 Bohr mag/cell

     iteration # 19     ecut=    71.00 Ry     beta= 0.10
     Davidson diagonalization with overlap
     ethr =  2.55E-07,  avg # of iterations =  2.0

     total cpu time spent up to now is    11710.0 secs

     total energy              =  -10536.24750732 Ry
     Harris-Foulkes estimate   =  -10536.24739184 Ry
     estimated scf accuracy    <       0.00072728 Ry

     total magnetization       =    -0.05 Bohr mag/cell
     absolute magnetization    =    48.71 Bohr mag/cell

     iteration # 20     ecut=    71.00 Ry     beta= 0.10
     Davidson diagonalization with overlap
     ethr =  1.42E-07,  avg # of iterations =  1.7

     total cpu time spent up to now is    12180.1 secs

     total energy              =  -10536.24761625 Ry
     Harris-Foulkes estimate   =  -10536.24755014 Ry
     estimated scf accuracy    <       0.00064431 Ry

     total magnetization       =    -0.04 Bohr mag/cell
     absolute magnetization    =    48.78 Bohr mag/cell

     iteration # 21     ecut=    71.00 Ry     beta= 0.10
     Davidson diagonalization with overlap
     ethr =  1.26E-07,  avg # of iterations =  1.2

     total cpu time spent up to now is    12593.2 secs

     total energy              =  -10536.24762495 Ry
     Harris-Foulkes estimate   =  -10536.24765074 Ry
     estimated scf accuracy    <       0.00066665 Ry

     total magnetization       =    -0.05 Bohr mag/cell
     absolute magnetization    =    48.85 Bohr mag/cell

     iteration # 22     ecut=    71.00 Ry     beta= 0.10
     Davidson diagonalization with overlap
     ethr =  1.26E-07,  avg # of iterations =  1.0

     total cpu time spent up to now is    12978.5 secs

     total energy              =  -10536.24777213 Ry
     Harris-Foulkes estimate   =  -10536.24765219 Ry
     estimated scf accuracy    <       0.00039803 Ry

     total magnetization       =    -0.04 Bohr mag/cell
     absolute magnetization    =    48.85 Bohr mag/cell

     iteration # 23     ecut=    71.00 Ry     beta= 0.10
     Davidson diagonalization with overlap
     ethr =  7.77E-08,  avg # of iterations =  2.4

     total cpu time spent up to now is    13533.2 secs

     total energy              =  -10536.24785402 Ry
     Harris-Foulkes estimate   =  -10536.24781639 Ry
     estimated scf accuracy    <       0.00017236 Ry

     total magnetization       =    -0.04 Bohr mag/cell
     absolute magnetization    =    49.00 Bohr mag/cell

     iteration # 24     ecut=    71.00 Ry     beta= 0.10
     Davidson diagonalization with overlap
     ethr =  3.37E-08,  avg # of iterations =  2.3

     total cpu time spent up to now is    14081.4 secs

     total energy              =  -10536.24790719 Ry
     Harris-Foulkes estimate   =  -10536.24786553 Ry
     estimated scf accuracy    <       0.00016526 Ry

     total magnetization       =    -0.03 Bohr mag/cell
     absolute magnetization    =    49.04 Bohr mag/cell

     iteration # 25     ecut=    71.00 Ry     beta= 0.10
     Davidson diagonalization with overlap
     ethr =  3.23E-08,  avg # of iterations =  2.6

     total cpu time spent up to now is    14662.3 secs

     total energy              =  -10536.24794561 Ry
     Harris-Foulkes estimate   =  -10536.24792225 Ry
     estimated scf accuracy    <       0.00010286 Ry

     total magnetization       =    -0.03 Bohr mag/cell
     absolute magnetization    =    49.11 Bohr mag/cell

     iteration # 26     ecut=    71.00 Ry     beta= 0.10
     Davidson diagonalization with overlap
     ethr =  2.01E-08,  avg # of iterations =  2.1

     total cpu time spent up to now is    15181.0 secs

     total energy              =  -10536.24796221 Ry
     Harris-Foulkes estimate   =  -10536.24795506 Ry
     estimated scf accuracy    <       0.00008771 Ry

     total magnetization       =    -0.04 Bohr mag/cell
     absolute magnetization    =    49.18 Bohr mag/cell

     iteration # 27     ecut=    71.00 Ry     beta= 0.10
     Davidson diagonalization with overlap
     ethr =  1.71E-08,  avg # of iterations =  2.6

     total cpu time spent up to now is    15772.0 secs

     total energy              =  -10536.24798497 Ry
     Harris-Foulkes estimate   =  -10536.24797078 Ry
     estimated scf accuracy    <       0.00006604 Ry

     total magnetization       =    -0.03 Bohr mag/cell
     absolute magnetization    =    49.24 Bohr mag/cell

     iteration # 28     ecut=    71.00 Ry     beta= 0.10
     Davidson diagonalization with overlap
     ethr =  1.29E-08,  avg # of iterations =  1.5

     total cpu time spent up to now is    16214.0 secs

     total energy              =  -10536.24799318 Ry
     Harris-Foulkes estimate   =  -10536.24798909 Ry
     estimated scf accuracy    <       0.00007541 Ry

     total magnetization       =    -0.02 Bohr mag/cell
     absolute magnetization    =    49.28 Bohr mag/cell

     iteration # 29     ecut=    71.00 Ry     beta= 0.10
     Davidson diagonalization with overlap
     ethr =  1.29E-08,  avg # of iterations =  1.3

     total cpu time spent up to now is    16630.0 secs

     total energy              =  -10536.24801214 Ry
     Harris-Foulkes estimate   =  -10536.24799654 Ry
     estimated scf accuracy    <       0.00004493 Ry

     total magnetization       =    -0.02 Bohr mag/cell
     absolute magnetization    =    49.32 Bohr mag/cell

     iteration # 30     ecut=    71.00 Ry     beta= 0.10
     Davidson diagonalization with overlap
     ethr =  8.77E-09,  avg # of iterations =  2.1

     total cpu time spent up to now is    17163.5 secs

     total energy              =  -10536.24802776 Ry
     Harris-Foulkes estimate   =  -10536.24801515 Ry
     estimated scf accuracy    <       0.00003607 Ry

     total magnetization       =    -0.02 Bohr mag/cell
     absolute magnetization    =    49.35 Bohr mag/cell

     iteration # 31     ecut=    71.00 Ry     beta= 0.10
     Davidson diagonalization with overlap
     ethr =  7.04E-09,  avg # of iterations =  2.5

     total cpu time spent up to now is    17763.2 secs

     total energy              =  -10536.24803539 Ry
     Harris-Foulkes estimate   =  -10536.24803220 Ry
     estimated scf accuracy    <       0.00003725 Ry

     total magnetization       =    -0.02 Bohr mag/cell
     absolute magnetization    =    49.40 Bohr mag/cell

     iteration # 32     ecut=    71.00 Ry     beta= 0.10
     Davidson diagonalization with overlap
     ethr =  7.04E-09,  avg # of iterations =  3.0

     total cpu time spent up to now is    18449.0 secs

     total energy              =  -10536.24804727 Ry
     Harris-Foulkes estimate   =  -10536.24804526 Ry
     estimated scf accuracy    <       0.00003841 Ry

     total magnetization       =    -0.01 Bohr mag/cell
     absolute magnetization    =    49.48 Bohr mag/cell

     iteration # 33     ecut=    71.00 Ry     beta= 0.10
     Davidson diagonalization with overlap
     ethr =  7.04E-09,  avg # of iterations =  1.7

     total cpu time spent up to now is    18915.4 secs

     total energy              =  -10536.24805139 Ry
     Harris-Foulkes estimate   =  -10536.24805042 Ry
     estimated scf accuracy    <       0.00000638 Ry

     total magnetization       =    -0.01 Bohr mag/cell
     absolute magnetization    =    49.52 Bohr mag/cell

     iteration # 34     ecut=    71.00 Ry     beta= 0.10
     Davidson diagonalization with overlap
     ethr =  1.25E-09,  avg # of iterations =  2.6

     total cpu time spent up to now is    19489.0 secs

     total energy              =  -10536.24805201 Ry
     Harris-Foulkes estimate   =  -10536.24805173 Ry
     estimated scf accuracy    <       0.00000440 Ry

     total magnetization       =    -0.01 Bohr mag/cell
     absolute magnetization    =    49.51 Bohr mag/cell

     iteration # 35     ecut=    71.00 Ry     beta= 0.10
     Davidson diagonalization with overlap
     ethr =  8.59E-10,  avg # of iterations =  2.0

     total cpu time spent up to now is    19996.0 secs

     total energy              =  -10536.24805263 Ry
     Harris-Foulkes estimate   =  -10536.24805235 Ry
     estimated scf accuracy    <       0.00000414 Ry

     total magnetization       =    -0.01 Bohr mag/cell
     absolute magnetization    =    49.52 Bohr mag/cell

     iteration # 36     ecut=    71.00 Ry     beta= 0.10
     Davidson diagonalization with overlap
     ethr =  8.09E-10,  avg # of iterations =  2.4

     total cpu time spent up to now is    20558.1 secs

     total energy              =  -10536.24805340 Ry
     Harris-Foulkes estimate   =  -10536.24805321 Ry
     estimated scf accuracy    <       0.00000170 Ry

     total magnetization       =    -0.01 Bohr mag/cell
     absolute magnetization    =    49.53 Bohr mag/cell

     iteration # 37     ecut=    71.00 Ry     beta= 0.10
     Davidson diagonalization with overlap
     ethr =  3.32E-10,  avg # of iterations =  1.3
 
     Magnetic moment per site:
     atom:    1    charge:   14.3918    magn:    1.4900    constr:    0.0000
     atom:    2    charge:   14.3919    magn:   -1.4927    constr:    0.0000
     atom:    3    charge:   14.3914    magn:    1.4929    constr:    0.0000
     atom:    4    charge:   14.3921    magn:   -1.4904    constr:    0.0000
     atom:    5    charge:   14.3917    magn:    1.4918    constr:    0.0000
     atom:    6    charge:   14.3918    magn:   -1.4931    constr:    0.0000
     atom:    7    charge:   14.3914    magn:    1.4929    constr:    0.0000
     atom:    8    charge:   14.3921    magn:   -1.4904    constr:    0.0000
     atom:    9    charge:   14.3919    magn:    1.4902    constr:    0.0000
     atom:   10    charge:   14.3918    magn:   -1.4982    constr:    0.0000
     atom:   11    charge:   14.3914    magn:    1.4928    constr:    0.0000
     atom:   12    charge:   14.3921    magn:   -1.4904    constr:    0.0000
     atom:   13    charge:   14.3918    magn:    1.4914    constr:    0.0000
     atom:   14    charge:   14.3918    magn:   -1.4930    constr:    0.0000
     atom:   15    charge:   14.3914    magn:    1.4928    constr:    0.0000
     atom:   16    charge:   14.3921    magn:   -1.4904    constr:    0.0000
     atom:   17    charge:   14.3918    magn:    1.4910    constr:    0.0000
     atom:   18    charge:   14.3918    magn:   -1.4982    constr:    0.0000
     atom:   19    charge:   14.3914    magn:    1.4929    constr:    0.0000
     atom:   20    charge:   14.3921    magn:   -1.4900    constr:    0.0000
     atom:   21    charge:   14.3917    magn:    1.4921    constr:    0.0000
     atom:   22    charge:   14.3918    magn:   -1.4930    constr:    0.0000
     atom:   23    charge:   14.3914    magn:    1.4929    constr:    0.0000
     atom:   24    charge:   14.3921    magn:   -1.4900    constr:    0.0000
     atom:   25    charge:   14.3919    magn:    1.4891    constr:    0.0000
     atom:   26    charge:   14.3919    magn:   -1.4927    constr:    0.0000
     atom:   27    charge:   14.3914    magn:    1.4928    constr:    0.0000
     atom:   28    charge:   14.3921    magn:   -1.4900    constr:    0.0000
     atom:   29    charge:   14.3918    magn:    1.4900    constr:    0.0000
     atom:   30    charge:   14.3918    magn:   -1.4931    constr:    0.0000
     atom:   31    charge:   14.3914    magn:    1.4928    constr:    0.0000
     atom:   32    charge:   14.3921    magn:   -1.4900    constr:    0.0000

     total cpu time spent up to now is    20977.7 secs

     End of self-consistent calculation

     Number of k-points >= 100: set verbosity='high' to print the bands.

     the Fermi energy is    20.1187 ev

!    total energy              =  -10536.24805442 Ry
     Harris-Foulkes estimate   =  -10536.24805347 Ry
     estimated scf accuracy    <       0.00000076 Ry

     total all-electron energy =    -81457.737112 Ry

     The total energy is the sum of the following terms:

     one-electron contribution =   -3292.56497946 Ry
     hartree contribution      =    1996.61303500 Ry
     xc contribution           =    -886.96057544 Ry
     ewald contribution        =   -5703.78931188 Ry
     one-center paw contrib.   =   -2649.56057797 Ry
     smearing contrib. (-TS)   =       0.01435533 Ry

     total magnetization       =    -0.01 Bohr mag/cell
     absolute magnetization    =    49.54 Bohr mag/cell

     convergence has been achieved in  37 iterations

     Forces acting on atoms (cartesian axes, Ry/au):

     atom    1 type  1   force =     0.00000000    0.00000000    0.00000000
     atom    2 type  2   force =     0.00006207    0.00003598    0.00000000
     atom    3 type  3   force =     0.00021623    0.00002803    0.00016982
     atom    4 type  4   force =     0.00000662   -0.00020955   -0.00014681
     atom    5 type  1   force =     0.00000000    0.00000000    0.00000000
     atom    6 type  2   force =     0.00015794   -0.00055282    0.00000000
     atom    7 type  3   force =     0.00021623    0.00002803   -0.00016982
     atom    8 type  4   force =     0.00000662   -0.00020955    0.00014681
     atom    9 type  1   force =     0.00000000    0.00000000    0.00000000
     atom   10 type  2   force =     0.00018397    0.00013443    0.00000000
     atom   11 type  3   force =    -0.00002291   -0.00017990    0.00003023
     atom   12 type  4   force =    -0.00000662    0.00020955   -0.00014681
     atom   13 type  1   force =     0.00000000    0.00000000    0.00000000
     atom   14 type  2   force =    -0.00005325    0.00002251    0.00000000
     atom   15 type  3   force =    -0.00002291   -0.00017990   -0.00003023
     atom   16 type  4   force =    -0.00000662    0.00020955    0.00014681
     atom   17 type  1   force =     0.00000000    0.00000000    0.00000000
     atom   18 type  2   force =    -0.00018397   -0.00013443    0.00000000
     atom   19 type  3   force =    -0.00021623   -0.00002803    0.00016982
     atom   20 type  4   force =     0.00018446    0.00003563   -0.00011198
     atom   21 type  1   force =     0.00000000    0.00000000    0.00000000
     atom   22 type  2   force =     0.00005325   -0.00002251    0.00000000
     atom   23 type  3   force =    -0.00021623   -0.00002803   -0.00016982
     atom   24 type  4   force =     0.00018446    0.00003563    0.00011198
     atom   25 type  1   force =     0.00000000    0.00000000    0.00000000
     atom   26 type  2   force =    -0.00006207   -0.00003598    0.00000000
     atom   27 type  3   force =     0.00002291    0.00017990    0.00003023
     atom   28 type  4   force =    -0.00018446   -0.00003563   -0.00011198
     atom   29 type  1   force =     0.00000000    0.00000000    0.00000000
     atom   30 type  2   force =    -0.00015794    0.00055282    0.00000000
     atom   31 type  3   force =     0.00002291    0.00017990   -0.00003023
     atom   32 type  4   force =    -0.00018446   -0.00003563    0.00011198

     Total force =     0.001295     Total SCF correction =     0.003018
     SCF correction compared to forces is large: reduce conv_thr to get better values


     Computing stress (Cartesian axis) and pressure

          total   stress  (Ry/bohr**3)                   (kbar)     P=    0.84
   0.00000645  -0.00016828   0.00000000          0.95    -24.75      0.00
  -0.00016828   0.00000897   0.00000000        -24.75      1.32      0.00
   0.00000000   0.00000000   0.00000166          0.00      0.00      0.24


     Writing output data file dlpFLjJzefhwbThM.save/
-------------------------------------------------------
Primary job  terminated normally, but 1 process returned
a non-zero exit code.. Per user-direction, the job has been aborted.
-------------------------------------------------------
--------------------------------------------------------------------------
mpirun detected that one or more processes exited with non-zero status, thus causing
the job to be terminated. The first process to do so was:

  Process name: [[54973,1],0]
  Exit code:    38
--------------------------------------------------------------------------
