--------------------------------------------------------------------------
WARNING: There was an error initializing an OpenFabrics device.

  Local host:   bear-pg0211u05b
  Local device: mlx5_0
--------------------------------------------------------------------------

     Program PWSCF v.6.3 starts on 23Oct2020 at  6:51:12 

     This program is part of the open-source Quantum ESPRESSO suite
     for quantum simulation of materials; please cite
         "P. Giannozzi et al., J. Phys.:Condens. Matter 21 395502 (2009);
         "P. Giannozzi et al., J. Phys.:Condens. Matter 29 465901 (2017);
          URL http://www.quantum-espresso.org", 
     in publications or presentations arising from this work. More details at
     http://www.quantum-espresso.org/quote

     Parallel version (MPI & OpenMP), running on      40 processor cores
     Number of MPI processes:                40
     Threads/MPI process:                     1

     MPI processes distributed on     1 nodes
     R & G space division:  proc/nbgrp/npool/nimage =      40
     Reading input from wd/ec/ec_9_005.in
Warning: card &IONS ignored
Warning: card ION_DYNAMICS = 'BFGS', ignored
Warning: card / ignored
Warning: card &CELL ignored
Warning: card CELL_DYNAMICS = 'BFGS', ignored
Warning: card CELL_FACTOR = 2.0, ignored
Warning: card PRESS = 0.0, ignored
Warning: card / ignored

     Current dimensions of program PWSCF are:
     Max number of different atomic species (ntypx) = 10
     Max number of k-points (npk) =  40000
     Max angular momentum in pseudopotentials (lmaxx) =  3
               file Fe.pbe-spn-kjpaw_psl.1.0.0.UPF: wavefunction(s)  3P 3D renormalized
               file Fe.pbe-spn-kjpaw_psl.1.0.0.UPF: wavefunction(s)  3P 3D renormalized
               file Fe.pbe-spn-kjpaw_psl.1.0.0.UPF: wavefunction(s)  3P 3D renormalized
               file Fe.pbe-spn-kjpaw_psl.1.0.0.UPF: wavefunction(s)  3P 3D renormalized

     Subspace diagonalization in iterative solution of the eigenvalue problem:
     a serial algorithm will be used

     Found symmetry operation: I + (  0.0000  0.0000 -0.5000)
     This is a supercell, fractional translations are disabled
 
     Parallelization info
     --------------------
     sticks:   dense  smooth     PW     G-vecs:    dense   smooth      PW
     Min         152     100     27                 8597     4616     663
     Max         153     101     28                 8599     4621     668
     Sum        6091    4017   1107               343923   184709   26655
 


     bravais-lattice index     =            0
     lattice parameter (alat)  =      12.9382  a.u.
     unit-cell volume          =    2283.7593 (a.u.)^3
     number of atoms/cell      =           32
     number of atomic types    =            4
     number of electrons       =       512.00
     number of Kohn-Sham states=          307
     kinetic-energy cutoff     =      71.0000  Ry
     charge density cutoff     =     430.0000  Ry
     convergence threshold     =      1.0E-06
     mixing beta               =       0.1000
     number of iterations used =           10  plain     mixing
     Exchange-correlation      = SLA PW PBX PBC ( 1  4  3  4 0 0)

     celldm(1)=  12.938187  celldm(2)=   0.000000  celldm(3)=   0.000000
     celldm(4)=   0.000000  celldm(5)=   0.000000  celldm(6)=   0.000000

     crystal axes: (cart. coord. in units of alat)
               a(1) = (   1.000015   0.000000   0.000000 )  
               a(2) = (   0.000000   1.061519   0.000000 )  
               a(3) = (   0.000000   0.000000   0.993335 )  

     reciprocal axes: (cart. coord. in units 2 pi/alat)
               b(1) = (  0.999985  0.000000  0.000000 )  
               b(2) = (  0.000000  0.942046  0.000000 )  
               b(3) = (  0.000000  0.000000  1.006710 )  


     PseudoPot. # 1 for Fe read from file:
     /rds/homes/b/bxp912/pp/Fe.pbe-spn-kjpaw_psl.1.0.0.UPF
     MD5 check sum: 42f43b795421b414b0dc916aa790dbcb
     Pseudo is Projector augmented-wave + core cor, Zval = 16.0
     Generated using "atomic" code by A. Dal Corso v.6.3
     Shape of augmentation charge: PSQ
     Using radial grid of 1191 points,  6 beta functions with: 
                l(1) =   0
                l(2) =   0
                l(3) =   1
                l(4) =   1
                l(5) =   2
                l(6) =   2
     Q(r) pseudized with 0 coefficients 


     PseudoPot. # 2 for Fe read from file:
     /rds/homes/b/bxp912/pp/Fe.pbe-spn-kjpaw_psl.1.0.0.UPF
     MD5 check sum: 42f43b795421b414b0dc916aa790dbcb
     Pseudo is Projector augmented-wave + core cor, Zval = 16.0
     Generated using "atomic" code by A. Dal Corso v.6.3
     Shape of augmentation charge: PSQ
     Using radial grid of 1191 points,  6 beta functions with: 
                l(1) =   0
                l(2) =   0
                l(3) =   1
                l(4) =   1
                l(5) =   2
                l(6) =   2
     Q(r) pseudized with 0 coefficients 


     PseudoPot. # 3 for Fe read from file:
     /rds/homes/b/bxp912/pp/Fe.pbe-spn-kjpaw_psl.1.0.0.UPF
     MD5 check sum: 42f43b795421b414b0dc916aa790dbcb
     Pseudo is Projector augmented-wave + core cor, Zval = 16.0
     Generated using "atomic" code by A. Dal Corso v.6.3
     Shape of augmentation charge: PSQ
     Using radial grid of 1191 points,  6 beta functions with: 
                l(1) =   0
                l(2) =   0
                l(3) =   1
                l(4) =   1
                l(5) =   2
                l(6) =   2
     Q(r) pseudized with 0 coefficients 


     PseudoPot. # 4 for Fe read from file:
     /rds/homes/b/bxp912/pp/Fe.pbe-spn-kjpaw_psl.1.0.0.UPF
     MD5 check sum: 42f43b795421b414b0dc916aa790dbcb
     Pseudo is Projector augmented-wave + core cor, Zval = 16.0
     Generated using "atomic" code by A. Dal Corso v.6.3
     Shape of augmentation charge: PSQ
     Using radial grid of 1191 points,  6 beta functions with: 
                l(1) =   0
                l(2) =   0
                l(3) =   1
                l(4) =   1
                l(5) =   2
                l(6) =   2
     Q(r) pseudized with 0 coefficients 


     atomic species   valence    mass     pseudopotential
        Fe1           16.00    55.84500     Fe( 1.00)
        Fe2           16.00    55.84500     Fe( 1.00)
        Fe3           16.00    55.84500     Fe( 1.00)
        Fe4           16.00    55.84500     Fe( 1.00)

     Starting magnetic structure 
     atomic species   magnetization
        Fe1          0.100
        Fe2         -0.100
        Fe3          0.100
        Fe4         -0.100

      8 Sym. Ops., with inversion, found



   Cartesian axes

     site n.     atom                  positions (alat units)
         1           Fe1 tau(   1) = (   0.0000000   0.0000000   0.0000000  )
         2           Fe2 tau(   2) = (   0.2500005   0.2653825   0.0000000  )
         3           Fe3 tau(   3) = (   0.2500019   0.0000000   0.2483318  )
         4           Fe4 tau(   4) = (   0.0000000   0.2653811   0.2483378  )
         5           Fe1 tau(   5) = (   0.0000000   0.0000000   0.4966676  )
         6           Fe2 tau(   6) = (   0.2500034   0.2653853   0.4966676  )
         7           Fe3 tau(   7) = (   0.2500019   0.0000000   0.7450023  )
         8           Fe4 tau(   8) = (   0.0000000   0.2653811   0.7449964  )
         9           Fe1 tau(   9) = (   0.0000000   0.5307597   0.0000000  )
        10           Fe2 tau(  10) = (   0.2500005   0.7961371   0.0000000  )
        11           Fe3 tau(  11) = (   0.2500041   0.5307597   0.2483358  )
        12           Fe4 tau(  12) = (   0.0000000   0.7961385   0.2483378  )
        13           Fe1 tau(  13) = (   0.0000000   0.5307597   0.4966676  )
        14           Fe2 tau(  14) = (   0.2500034   0.7961342   0.4966676  )
        15           Fe3 tau(  15) = (   0.2500041   0.5307597   0.7449993  )
        16           Fe4 tau(  16) = (   0.0000000   0.7961385   0.7449964  )
        17           Fe1 tau(  17) = (   0.5000072   0.0000000   0.0000000  )
        18           Fe2 tau(  18) = (   0.7500138   0.2653825   0.0000000  )
        19           Fe3 tau(  19) = (   0.7500126   0.0000000   0.2483318  )
        20           Fe4 tau(  20) = (   0.5000072   0.2653801   0.2483358  )
        21           Fe1 tau(  21) = (   0.5000072   0.0000000   0.4966676  )
        22           Fe2 tau(  22) = (   0.7500110   0.2653853   0.4966676  )
        23           Fe3 tau(  23) = (   0.7500126   0.0000000   0.7450023  )
        24           Fe4 tau(  24) = (   0.5000072   0.2653801   0.7449984  )
        25           Fe1 tau(  25) = (   0.5000072   0.5307597   0.0000000  )
        26           Fe2 tau(  26) = (   0.7500138   0.7961371   0.0000000  )
        27           Fe3 tau(  27) = (   0.7500104   0.5307597   0.2483358  )
        28           Fe4 tau(  28) = (   0.5000072   0.7961395   0.2483358  )
        29           Fe1 tau(  29) = (   0.5000072   0.5307597   0.4966676  )
        30           Fe2 tau(  30) = (   0.7500110   0.7961342   0.4966676  )
        31           Fe3 tau(  31) = (   0.7500104   0.5307597   0.7449993  )
        32           Fe4 tau(  32) = (   0.5000072   0.7961395   0.7449984  )

     number of k points=   125  Marzari-Vanderbilt smearing, width (Ry)=  0.0400

     Number of k-points >= 100: set verbosity='high' to print them.

     Dense  grid:   343923 G-vectors     FFT dimensions: (  90,  96,  90)

     Smooth grid:   184709 G-vectors     FFT dimensions: (  72,  75,  72)

     Estimated max dynamical RAM per process >     810.89 MB

     Estimated total dynamical RAM >      31.68 GB
     Generating pointlists ...
     new r_m :   0.1454 (alat units)  1.8806 (a.u.) for type    1
     new r_m :   0.1454 (alat units)  1.8806 (a.u.) for type    2
     new r_m :   0.1454 (alat units)  1.8806 (a.u.) for type    3
     new r_m :   0.1454 (alat units)  1.8806 (a.u.) for type    4

     Check: negative/imaginary core charge=   -0.000006    0.000000

     Initial potential from superposition of free atoms

     starting charge  511.98600, renormalised to  512.00000
     Starting wfcs are  320 randomized atomic wfcs
     Checking if some PAW data can be deallocated... 

     total cpu time spent up to now is       85.0 secs

     Self-consistent Calculation

     iteration #  1     ecut=    71.00 Ry     beta= 0.10
     Davidson diagonalization with overlap
     ethr =  1.00E-02,  avg # of iterations =  3.6

     Threshold (ethr) on eigenvalues was too large:
     Diagonalizing with lowered threshold

     Davidson diagonalization with overlap
     ethr =  3.18E-04,  avg # of iterations =  3.9

     total cpu time spent up to now is     1032.9 secs

     total energy              =  -10536.42573338 Ry
     Harris-Foulkes estimate   =  -10536.76545549 Ry
     estimated scf accuracy    <       1.87385643 Ry

     total magnetization       =     0.23 Bohr mag/cell
     absolute magnetization    =    44.52 Bohr mag/cell

     iteration #  2     ecut=    71.00 Ry     beta= 0.10
     Davidson diagonalization with overlap
     ethr =  3.66E-04,  avg # of iterations =  1.0

     total cpu time spent up to now is     1259.1 secs

     total energy              =  -10536.20689277 Ry
     Harris-Foulkes estimate   =  -10536.47110370 Ry
     estimated scf accuracy    <       1.11125853 Ry

     total magnetization       =    -0.10 Bohr mag/cell
     absolute magnetization    =    45.25 Bohr mag/cell

     iteration #  3     ecut=    71.00 Ry     beta= 0.10
     Davidson diagonalization with overlap
     ethr =  2.17E-04,  avg # of iterations =  2.3

     total cpu time spent up to now is     1579.9 secs

     total energy              =  -10536.07354678 Ry
     Harris-Foulkes estimate   =  -10536.34635668 Ry
     estimated scf accuracy    <       2.72975838 Ry

     total magnetization       =     0.21 Bohr mag/cell
     absolute magnetization    =    45.63 Bohr mag/cell

     iteration #  4     ecut=    71.00 Ry     beta= 0.10
     Davidson diagonalization with overlap
     ethr =  2.17E-04,  avg # of iterations =  2.4

     total cpu time spent up to now is     1905.2 secs

     total energy              =  -10536.17583038 Ry
     Harris-Foulkes estimate   =  -10536.20711289 Ry
     estimated scf accuracy    <       0.51848255 Ry

     total magnetization       =     0.33 Bohr mag/cell
     absolute magnetization    =    46.70 Bohr mag/cell

     iteration #  5     ecut=    71.00 Ry     beta= 0.10
     Davidson diagonalization with overlap
     ethr =  1.01E-04,  avg # of iterations =  1.3

     total cpu time spent up to now is     2156.5 secs

     total energy              =  -10536.18695129 Ry
     Harris-Foulkes estimate   =  -10536.19531750 Ry
     estimated scf accuracy    <       0.08496511 Ry

     total magnetization       =     0.02 Bohr mag/cell
     absolute magnetization    =    46.85 Bohr mag/cell

     iteration #  6     ecut=    71.00 Ry     beta= 0.10
     Davidson diagonalization with overlap
     ethr =  1.66E-05,  avg # of iterations =  3.3

     total cpu time spent up to now is     2542.1 secs

     total energy              =  -10536.17925272 Ry
     Harris-Foulkes estimate   =  -10536.19040081 Ry
     estimated scf accuracy    <       0.07204482 Ry

     total magnetization       =    -0.10 Bohr mag/cell
     absolute magnetization    =    46.82 Bohr mag/cell

     iteration #  7     ecut=    71.00 Ry     beta= 0.10
     Davidson diagonalization with overlap
     ethr =  1.41E-05,  avg # of iterations =  3.6

     total cpu time spent up to now is     3078.7 secs

     total energy              =  -10536.19692493 Ry
     Harris-Foulkes estimate   =  -10536.19715856 Ry
     estimated scf accuracy    <       0.10445549 Ry

     total magnetization       =     0.02 Bohr mag/cell
     absolute magnetization    =    47.01 Bohr mag/cell

     iteration #  8     ecut=    71.00 Ry     beta= 0.10
     Davidson diagonalization with overlap
     ethr =  1.41E-05,  avg # of iterations =  2.0

     total cpu time spent up to now is     3383.9 secs

     total energy              =  -10536.19756317 Ry
     Harris-Foulkes estimate   =  -10536.20152994 Ry
     estimated scf accuracy    <       0.07348143 Ry

     total magnetization       =     0.06 Bohr mag/cell
     absolute magnetization    =    47.28 Bohr mag/cell

     iteration #  9     ecut=    71.00 Ry     beta= 0.10
     Davidson diagonalization with overlap
     ethr =  1.41E-05,  avg # of iterations =  1.0

     total cpu time spent up to now is     3612.7 secs

     total energy              =  -10536.20890241 Ry
     Harris-Foulkes estimate   =  -10536.19910272 Ry
     estimated scf accuracy    <       0.03990502 Ry

     total magnetization       =     0.01 Bohr mag/cell
     absolute magnetization    =    47.46 Bohr mag/cell

     iteration # 10     ecut=    71.00 Ry     beta= 0.10
     Davidson diagonalization with overlap
     ethr =  7.79E-06,  avg # of iterations =  3.0

     total cpu time spent up to now is     4014.5 secs

     total energy              =  -10536.23356854 Ry
     Harris-Foulkes estimate   =  -10536.21245858 Ry
     estimated scf accuracy    <       0.03255108 Ry

     total magnetization       =    -0.08 Bohr mag/cell
     absolute magnetization    =    47.84 Bohr mag/cell

     iteration # 11     ecut=    71.00 Ry     beta= 0.10
     Davidson diagonalization with overlap
     ethr =  6.36E-06,  avg # of iterations =  3.4

     total cpu time spent up to now is     4515.1 secs

     total energy              =  -10536.24568293 Ry
     Harris-Foulkes estimate   =  -10536.24306910 Ry
     estimated scf accuracy    <       0.03567858 Ry

     total magnetization       =    -0.12 Bohr mag/cell
     absolute magnetization    =    48.63 Bohr mag/cell

     iteration # 12     ecut=    71.00 Ry     beta= 0.10
     Davidson diagonalization with overlap
     ethr =  6.36E-06,  avg # of iterations =  1.0

     total cpu time spent up to now is     4747.0 secs

     total energy              =  -10536.24628143 Ry
     Harris-Foulkes estimate   =  -10536.24664802 Ry
     estimated scf accuracy    <       0.02112169 Ry

     total magnetization       =    -0.08 Bohr mag/cell
     absolute magnetization    =    48.83 Bohr mag/cell

     iteration # 13     ecut=    71.00 Ry     beta= 0.10
     Davidson diagonalization with overlap
     ethr =  4.13E-06,  avg # of iterations =  2.4

     total cpu time spent up to now is     5082.8 secs

     total energy              =  -10536.24787192 Ry
     Harris-Foulkes estimate   =  -10536.24786273 Ry
     estimated scf accuracy    <       0.00236724 Ry

     total magnetization       =    -0.02 Bohr mag/cell
     absolute magnetization    =    49.12 Bohr mag/cell

     iteration # 14     ecut=    71.00 Ry     beta= 0.10
     Davidson diagonalization with overlap
     ethr =  4.62E-07,  avg # of iterations =  3.9

     total cpu time spent up to now is     5570.8 secs

     total energy              =  -10536.24810342 Ry
     Harris-Foulkes estimate   =  -10536.24812202 Ry
     estimated scf accuracy    <       0.00155619 Ry

     total magnetization       =    -0.02 Bohr mag/cell
     absolute magnetization    =    49.17 Bohr mag/cell

     iteration # 15     ecut=    71.00 Ry     beta= 0.10
     Davidson diagonalization with overlap
     ethr =  3.04E-07,  avg # of iterations =  2.1

     total cpu time spent up to now is     5876.3 secs

     total energy              =  -10536.24842826 Ry
     Harris-Foulkes estimate   =  -10536.24821006 Ry
     estimated scf accuracy    <       0.00095335 Ry

     total magnetization       =    -0.01 Bohr mag/cell
     absolute magnetization    =    49.27 Bohr mag/cell

     iteration # 16     ecut=    71.00 Ry     beta= 0.10
     Davidson diagonalization with overlap
     ethr =  1.86E-07,  avg # of iterations =  2.3

     total cpu time spent up to now is     6191.1 secs

     total energy              =  -10536.24839606 Ry
     Harris-Foulkes estimate   =  -10536.24851616 Ry
     estimated scf accuracy    <       0.00106204 Ry

     total magnetization       =    -0.00 Bohr mag/cell
     absolute magnetization    =    49.41 Bohr mag/cell

     iteration # 17     ecut=    71.00 Ry     beta= 0.10
     Davidson diagonalization with overlap
     ethr =  1.86E-07,  avg # of iterations =  1.2

     total cpu time spent up to now is     6432.9 secs

     total energy              =  -10536.24865161 Ry
     Harris-Foulkes estimate   =  -10536.24846363 Ry
     estimated scf accuracy    <       0.00086073 Ry

     total magnetization       =    -0.03 Bohr mag/cell
     absolute magnetization    =    49.41 Bohr mag/cell

     iteration # 18     ecut=    71.00 Ry     beta= 0.10
     Davidson diagonalization with overlap
     ethr =  1.68E-07,  avg # of iterations =  1.4

     total cpu time spent up to now is     6691.3 secs

     total energy              =  -10536.24883449 Ry
     Harris-Foulkes estimate   =  -10536.24870749 Ry
     estimated scf accuracy    <       0.00045638 Ry

     total magnetization       =    -0.00 Bohr mag/cell
     absolute magnetization    =    49.54 Bohr mag/cell

     iteration # 19     ecut=    71.00 Ry     beta= 0.10
     Davidson diagonalization with overlap
     ethr =  8.91E-08,  avg # of iterations =  2.8

     total cpu time spent up to now is     7051.5 secs

     total energy              =  -10536.24900298 Ry
     Harris-Foulkes estimate   =  -10536.24886903 Ry
     estimated scf accuracy    <       0.00032600 Ry

     total magnetization       =    -0.01 Bohr mag/cell
     absolute magnetization    =    49.65 Bohr mag/cell

     iteration # 20     ecut=    71.00 Ry     beta= 0.10
     Davidson diagonalization with overlap
     ethr =  6.37E-08,  avg # of iterations =  3.1

     total cpu time spent up to now is     7449.6 secs

     total energy              =  -10536.24913293 Ry
     Harris-Foulkes estimate   =  -10536.24907413 Ry
     estimated scf accuracy    <       0.00028242 Ry

     total magnetization       =    -0.01 Bohr mag/cell
     absolute magnetization    =    49.84 Bohr mag/cell

     iteration # 21     ecut=    71.00 Ry     beta= 0.10
     Davidson diagonalization with overlap
     ethr =  5.52E-08,  avg # of iterations =  1.0

     total cpu time spent up to now is     7682.0 secs

     total energy              =  -10536.24917228 Ry
     Harris-Foulkes estimate   =  -10536.24915404 Ry
     estimated scf accuracy    <       0.00012453 Ry

     total magnetization       =    -0.01 Bohr mag/cell
     absolute magnetization    =    49.94 Bohr mag/cell

     iteration # 22     ecut=    71.00 Ry     beta= 0.10
     Davidson diagonalization with overlap
     ethr =  2.43E-08,  avg # of iterations =  2.9

     total cpu time spent up to now is     8040.2 secs

     total energy              =  -10536.24919777 Ry
     Harris-Foulkes estimate   =  -10536.24918200 Ry
     estimated scf accuracy    <       0.00010643 Ry

     total magnetization       =    -0.00 Bohr mag/cell
     absolute magnetization    =    50.01 Bohr mag/cell

     iteration # 23     ecut=    71.00 Ry     beta= 0.10
     Davidson diagonalization with overlap
     ethr =  2.08E-08,  avg # of iterations =  2.1

     total cpu time spent up to now is     8348.9 secs

     total energy              =  -10536.24921493 Ry
     Harris-Foulkes estimate   =  -10536.24920499 Ry
     estimated scf accuracy    <       0.00009940 Ry

     total magnetization       =    -0.00 Bohr mag/cell
     absolute magnetization    =    50.06 Bohr mag/cell

     iteration # 24     ecut=    71.00 Ry     beta= 0.10
     Davidson diagonalization with overlap
     ethr =  1.94E-08,  avg # of iterations =  1.6

     total cpu time spent up to now is     8623.8 secs

     total energy              =  -10536.24922445 Ry
     Harris-Foulkes estimate   =  -10536.24922327 Ry
     estimated scf accuracy    <       0.00013364 Ry

     total magnetization       =    -0.01 Bohr mag/cell
     absolute magnetization    =    50.11 Bohr mag/cell

     iteration # 25     ecut=    71.00 Ry     beta= 0.10
     Davidson diagonalization with overlap
     ethr =  1.94E-08,  avg # of iterations =  2.9

     total cpu time spent up to now is     9023.4 secs

     total energy              =  -10536.24924195 Ry
     Harris-Foulkes estimate   =  -10536.24924222 Ry
     estimated scf accuracy    <       0.00007106 Ry

     total magnetization       =    -0.01 Bohr mag/cell
     absolute magnetization    =    50.20 Bohr mag/cell

     iteration # 26     ecut=    71.00 Ry     beta= 0.10
     Davidson diagonalization with overlap
     ethr =  1.39E-08,  avg # of iterations =  1.0

     total cpu time spent up to now is     9255.0 secs

     total energy              =  -10536.24924770 Ry
     Harris-Foulkes estimate   =  -10536.24924636 Ry
     estimated scf accuracy    <       0.00001747 Ry

     total magnetization       =    -0.00 Bohr mag/cell
     absolute magnetization    =    50.25 Bohr mag/cell

     iteration # 27     ecut=    71.00 Ry     beta= 0.10
     Davidson diagonalization with overlap
     ethr =  3.41E-09,  avg # of iterations =  2.3

     total cpu time spent up to now is     9571.8 secs

     total energy              =  -10536.24924966 Ry
     Harris-Foulkes estimate   =  -10536.24924843 Ry
     estimated scf accuracy    <       0.00001443 Ry

     total magnetization       =    -0.00 Bohr mag/cell
     absolute magnetization    =    50.26 Bohr mag/cell

     iteration # 28     ecut=    71.00 Ry     beta= 0.10
     Davidson diagonalization with overlap
     ethr =  2.82E-09,  avg # of iterations =  1.0

     total cpu time spent up to now is     9801.6 secs

     total energy              =  -10536.24925399 Ry
     Harris-Foulkes estimate   =  -10536.24925000 Ry
     estimated scf accuracy    <       0.00001271 Ry

     total magnetization       =    -0.00 Bohr mag/cell
     absolute magnetization    =    50.27 Bohr mag/cell

     iteration # 29     ecut=    71.00 Ry     beta= 0.10
     Davidson diagonalization with overlap
     ethr =  2.48E-09,  avg # of iterations =  1.8

     total cpu time spent up to now is    10088.7 secs

     total energy              =  -10536.24925903 Ry
     Harris-Foulkes estimate   =  -10536.24925475 Ry
     estimated scf accuracy    <       0.00000902 Ry

     total magnetization       =    -0.00 Bohr mag/cell
     absolute magnetization    =    50.28 Bohr mag/cell

     iteration # 30     ecut=    71.00 Ry     beta= 0.10
     Davidson diagonalization with overlap
     ethr =  1.76E-09,  avg # of iterations =  2.7

     total cpu time spent up to now is    10465.9 secs

     total energy              =  -10536.24926203 Ry
     Harris-Foulkes estimate   =  -10536.24926008 Ry
     estimated scf accuracy    <       0.00000536 Ry

     total magnetization       =    -0.00 Bohr mag/cell
     absolute magnetization    =    50.30 Bohr mag/cell

     iteration # 31     ecut=    71.00 Ry     beta= 0.10
     Davidson diagonalization with overlap
     ethr =  1.05E-09,  avg # of iterations =  2.7

     total cpu time spent up to now is    10829.2 secs

     total energy              =  -10536.24926329 Ry
     Harris-Foulkes estimate   =  -10536.24926287 Ry
     estimated scf accuracy    <       0.00000334 Ry

     total magnetization       =    -0.00 Bohr mag/cell
     absolute magnetization    =    50.33 Bohr mag/cell

     iteration # 32     ecut=    71.00 Ry     beta= 0.10
     Davidson diagonalization with overlap
     ethr =  6.53E-10,  avg # of iterations =  1.6

     total cpu time spent up to now is    11096.3 secs

     total energy              =  -10536.24926378 Ry
     Harris-Foulkes estimate   =  -10536.24926350 Ry
     estimated scf accuracy    <       0.00000283 Ry

     total magnetization       =    -0.00 Bohr mag/cell
     absolute magnetization    =    50.33 Bohr mag/cell

     iteration # 33     ecut=    71.00 Ry     beta= 0.10
     Davidson diagonalization with overlap
     ethr =  5.53E-10,  avg # of iterations =  1.0

     total cpu time spent up to now is    11327.9 secs

     total energy              =  -10536.24926398 Ry
     Harris-Foulkes estimate   =  -10536.24926390 Ry
     estimated scf accuracy    <       0.00000144 Ry

     total magnetization       =    -0.00 Bohr mag/cell
     absolute magnetization    =    50.33 Bohr mag/cell

     iteration # 34     ecut=    71.00 Ry     beta= 0.10
     Davidson diagonalization with overlap
     ethr =  2.82E-10,  avg # of iterations =  3.1

     total cpu time spent up to now is    11745.8 secs

     total energy              =  -10536.24926442 Ry
     Harris-Foulkes estimate   =  -10536.24926443 Ry
     estimated scf accuracy    <       0.00000108 Ry

     total magnetization       =    -0.00 Bohr mag/cell
     absolute magnetization    =    50.35 Bohr mag/cell

     iteration # 35     ecut=    71.00 Ry     beta= 0.10
     Davidson diagonalization with overlap
     ethr =  2.11E-10,  avg # of iterations =  1.7
 
     Magnetic moment per site:
     atom:    1    charge:   14.3708    magn:    1.5138    constr:    0.0000
     atom:    2    charge:   14.3710    magn:   -1.5139    constr:    0.0000
     atom:    3    charge:   14.3705    magn:    1.5163    constr:    0.0000
     atom:    4    charge:   14.3710    magn:   -1.5176    constr:    0.0000
     atom:    5    charge:   14.3708    magn:    1.5145    constr:    0.0000
     atom:    6    charge:   14.3711    magn:   -1.5135    constr:    0.0000
     atom:    7    charge:   14.3705    magn:    1.5163    constr:    0.0000
     atom:    8    charge:   14.3710    magn:   -1.5176    constr:    0.0000
     atom:    9    charge:   14.3706    magn:    1.5147    constr:    0.0000
     atom:   10    charge:   14.3710    magn:   -1.5139    constr:    0.0000
     atom:   11    charge:   14.3704    magn:    1.5158    constr:    0.0000
     atom:   12    charge:   14.3710    magn:   -1.5176    constr:    0.0000
     atom:   13    charge:   14.3707    magn:    1.5152    constr:    0.0000
     atom:   14    charge:   14.3711    magn:   -1.5135    constr:    0.0000
     atom:   15    charge:   14.3704    magn:    1.5158    constr:    0.0000
     atom:   16    charge:   14.3710    magn:   -1.5176    constr:    0.0000
     atom:   17    charge:   14.3708    magn:    1.5150    constr:    0.0000
     atom:   18    charge:   14.3710    magn:   -1.5139    constr:    0.0000
     atom:   19    charge:   14.3705    magn:    1.5163    constr:    0.0000
     atom:   20    charge:   14.3710    magn:   -1.5167    constr:    0.0000
     atom:   21    charge:   14.3707    magn:    1.5153    constr:    0.0000
     atom:   22    charge:   14.3711    magn:   -1.5135    constr:    0.0000
     atom:   23    charge:   14.3705    magn:    1.5163    constr:    0.0000
     atom:   24    charge:   14.3710    magn:   -1.5167    constr:    0.0000
     atom:   25    charge:   14.3708    magn:    1.5142    constr:    0.0000
     atom:   26    charge:   14.3710    magn:   -1.5139    constr:    0.0000
     atom:   27    charge:   14.3704    magn:    1.5158    constr:    0.0000
     atom:   28    charge:   14.3710    magn:   -1.5167    constr:    0.0000
     atom:   29    charge:   14.3707    magn:    1.5143    constr:    0.0000
     atom:   30    charge:   14.3711    magn:   -1.5135    constr:    0.0000
     atom:   31    charge:   14.3704    magn:    1.5158    constr:    0.0000
     atom:   32    charge:   14.3710    magn:   -1.5167    constr:    0.0000

     total cpu time spent up to now is    12020.4 secs

     End of self-consistent calculation

     Number of k-points >= 100: set verbosity='high' to print the bands.

     the Fermi energy is    20.1175 ev

!    total energy              =  -10536.24926484 Ry
     Harris-Foulkes estimate   =  -10536.24926453 Ry
     estimated scf accuracy    <       0.00000048 Ry

     total all-electron energy =    -81457.738323 Ry

     The total energy is the sum of the following terms:

     one-electron contribution =   -3292.69202265 Ry
     hartree contribution      =    1996.73408814 Ry
     xc contribution           =    -887.03083173 Ry
     ewald contribution        =   -5703.72482964 Ry
     one-center paw contrib.   =   -2649.55818231 Ry
     smearing contrib. (-TS)   =       0.02251335 Ry

     total magnetization       =    -0.00 Bohr mag/cell
     absolute magnetization    =    50.36 Bohr mag/cell

     convergence has been achieved in  35 iterations

     Forces acting on atoms (cartesian axes, Ry/au):

     atom    1 type  1   force =     0.00000000    0.00000000    0.00000000
     atom    2 type  2   force =     0.00004582   -0.00001398    0.00000000
     atom    3 type  3   force =     0.00009146    0.00000000    0.00009031
     atom    4 type  4   force =     0.00000000   -0.00005394   -0.00012272
     atom    5 type  1   force =     0.00000000    0.00000000    0.00000000
     atom    6 type  2   force =     0.00001679   -0.00011498    0.00000000
     atom    7 type  3   force =     0.00009146    0.00000000   -0.00009031
     atom    8 type  4   force =     0.00000000   -0.00005394    0.00012272
     atom    9 type  1   force =     0.00000000    0.00000000    0.00000000
     atom   10 type  2   force =     0.00004582    0.00001398    0.00000000
     atom   11 type  3   force =    -0.00001561    0.00000000   -0.00000930
     atom   12 type  4   force =     0.00000000    0.00005394   -0.00012272
     atom   13 type  1   force =     0.00000000    0.00000000    0.00000000
     atom   14 type  2   force =     0.00001679    0.00011498    0.00000000
     atom   15 type  3   force =    -0.00001561   -0.00000000    0.00000930
     atom   16 type  4   force =     0.00000000    0.00005394    0.00012272
     atom   17 type  1   force =     0.00000000    0.00000000    0.00000000
     atom   18 type  2   force =    -0.00004582   -0.00001398    0.00000000
     atom   19 type  3   force =    -0.00009146    0.00000000    0.00009031
     atom   20 type  4   force =     0.00000000    0.00005626   -0.00006276
     atom   21 type  1   force =     0.00000000    0.00000000    0.00000000
     atom   22 type  2   force =    -0.00001679   -0.00011498    0.00000000
     atom   23 type  3   force =    -0.00009146    0.00000000   -0.00009031
     atom   24 type  4   force =     0.00000000    0.00005626    0.00006276
     atom   25 type  1   force =     0.00000000    0.00000000    0.00000000
     atom   26 type  2   force =    -0.00004582    0.00001398    0.00000000
     atom   27 type  3   force =     0.00001561   -0.00000000   -0.00000930
     atom   28 type  4   force =     0.00000000   -0.00005626   -0.00006276
     atom   29 type  1   force =     0.00000000    0.00000000    0.00000000
     atom   30 type  2   force =    -0.00001679    0.00011498    0.00000000
     atom   31 type  3   force =     0.00001561    0.00000000    0.00000930
     atom   32 type  4   force =     0.00000000   -0.00005626    0.00006276

     Total force =     0.000481     Total SCF correction =     0.003210
     SCF correction compared to forces is large: reduce conv_thr to get better values


     Computing stress (Cartesian axis) and pressure

          total   stress  (Ry/bohr**3)                   (kbar)     P=    3.78
   0.00005158   0.00000000   0.00000000          7.59      0.00      0.00
   0.00000000  -0.00007905   0.00000000          0.00    -11.63      0.00
   0.00000000   0.00000000   0.00010451          0.00      0.00     15.37


     Writing output data file rcMqTmguSkvyBYfj.save/
-------------------------------------------------------
Primary job  terminated normally, but 1 process returned
a non-zero exit code.. Per user-direction, the job has been aborted.
-------------------------------------------------------
--------------------------------------------------------------------------
mpirun detected that one or more processes exited with non-zero status, thus causing
the job to be terminated. The first process to do so was:

  Process name: [[4383,1],0]
  Exit code:    38
--------------------------------------------------------------------------
