
     Program PWSCF v.6.3 starts on  2Oct2020 at 15:17:38 

     This program is part of the open-source Quantum ESPRESSO suite
     for quantum simulation of materials; please cite
         "P. Giannozzi et al., J. Phys.:Condens. Matter 21 395502 (2009);
         "P. Giannozzi et al., J. Phys.:Condens. Matter 29 465901 (2017);
          URL http://www.quantum-espresso.org", 
     in publications or presentations arising from this work. More details at
     http://www.quantum-espresso.org/quote

     Parallel version (MPI & OpenMP), running on      40 processor cores
     Number of MPI processes:                40
     Threads/MPI process:                     1

     MPI processes distributed on     1 nodes
     R & G space division:  proc/nbgrp/npool/nimage =      40
     Reading input from wd/ec/ec_1_006.in
Warning: card &IONS ignored
Warning: card ION_DYNAMICS = 'BFGS', ignored
Warning: card / ignored
Warning: card &CELL ignored
Warning: card CELL_DYNAMICS = 'BFGS', ignored
Warning: card CELL_FACTOR = 2.0, ignored
Warning: card PRESS = 0.0, ignored
Warning: card / ignored

     Current dimensions of program PWSCF are:
     Max number of different atomic species (ntypx) = 10
     Max number of k-points (npk) =  40000
     Max angular momentum in pseudopotentials (lmaxx) =  3
               file Fe.pbe-spn-kjpaw_psl.1.0.0.UPF: wavefunction(s)  3P 3D renormalized
               file Fe.pbe-spn-kjpaw_psl.1.0.0.UPF: wavefunction(s)  3P 3D renormalized
               file Fe.pbe-spn-kjpaw_psl.1.0.0.UPF: wavefunction(s)  3P 3D renormalized
               file Fe.pbe-spn-kjpaw_psl.1.0.0.UPF: wavefunction(s)  3P 3D renormalized

     Subspace diagonalization in iterative solution of the eigenvalue problem:
     a serial algorithm will be used

     Found symmetry operation: I + (  0.0000  0.0000 -0.5000)
     This is a supercell, fractional translations are disabled
 
     Parallelization info
     --------------------
     sticks:   dense  smooth     PW     G-vecs:    dense   smooth      PW
     Min         152     100     27                 8666     4652     667
     Max         153     102     28                 8669     4655     672
     Sum        6093    4013   1115               346713   186125   26799
 


     bravais-lattice index     =            0
     lattice parameter (alat)  =      12.9382  a.u.
     unit-cell volume          =    2302.7907 (a.u.)^3
     number of atoms/cell      =           32
     number of atomic types    =            4
     number of electrons       =       512.00
     number of Kohn-Sham states=          307
     kinetic-energy cutoff     =      71.0000  Ry
     charge density cutoff     =     430.0000  Ry
     convergence threshold     =      1.0E-06
     mixing beta               =       0.1000
     number of iterations used =           10  plain     mixing
     Exchange-correlation      = SLA PW PBX PBC ( 1  4  3  4 0 0)

     celldm(1)=  12.938187  celldm(2)=   0.000000  celldm(3)=   0.000000
     celldm(4)=   0.000000  celldm(5)=   0.000000  celldm(6)=   0.000000

     crystal axes: (cart. coord. in units of alat)
               a(1) = (   1.008333   0.000000   0.000000 )  
               a(2) = (   0.000000   1.054474   0.000000 )  
               a(3) = (   0.000000   0.000000   0.999987 )  

     reciprocal axes: (cart. coord. in units 2 pi/alat)
               b(1) = (  0.991736  0.000000  0.000000 )  
               b(2) = (  0.000000  0.948340  0.000000 )  
               b(3) = (  0.000000  0.000000  1.000013 )  


     PseudoPot. # 1 for Fe read from file:
     /rds/homes/b/bxp912/pp/Fe.pbe-spn-kjpaw_psl.1.0.0.UPF
     MD5 check sum: 42f43b795421b414b0dc916aa790dbcb
     Pseudo is Projector augmented-wave + core cor, Zval = 16.0
     Generated using "atomic" code by A. Dal Corso v.6.3
     Shape of augmentation charge: PSQ
     Using radial grid of 1191 points,  6 beta functions with: 
                l(1) =   0
                l(2) =   0
                l(3) =   1
                l(4) =   1
                l(5) =   2
                l(6) =   2
     Q(r) pseudized with 0 coefficients 


     PseudoPot. # 2 for Fe read from file:
     /rds/homes/b/bxp912/pp/Fe.pbe-spn-kjpaw_psl.1.0.0.UPF
     MD5 check sum: 42f43b795421b414b0dc916aa790dbcb
     Pseudo is Projector augmented-wave + core cor, Zval = 16.0
     Generated using "atomic" code by A. Dal Corso v.6.3
     Shape of augmentation charge: PSQ
     Using radial grid of 1191 points,  6 beta functions with: 
                l(1) =   0
                l(2) =   0
                l(3) =   1
                l(4) =   1
                l(5) =   2
                l(6) =   2
     Q(r) pseudized with 0 coefficients 


     PseudoPot. # 3 for Fe read from file:
     /rds/homes/b/bxp912/pp/Fe.pbe-spn-kjpaw_psl.1.0.0.UPF
     MD5 check sum: 42f43b795421b414b0dc916aa790dbcb
     Pseudo is Projector augmented-wave + core cor, Zval = 16.0
     Generated using "atomic" code by A. Dal Corso v.6.3
     Shape of augmentation charge: PSQ
     Using radial grid of 1191 points,  6 beta functions with: 
                l(1) =   0
                l(2) =   0
                l(3) =   1
                l(4) =   1
                l(5) =   2
                l(6) =   2
     Q(r) pseudized with 0 coefficients 


     PseudoPot. # 4 for Fe read from file:
     /rds/homes/b/bxp912/pp/Fe.pbe-spn-kjpaw_psl.1.0.0.UPF
     MD5 check sum: 42f43b795421b414b0dc916aa790dbcb
     Pseudo is Projector augmented-wave + core cor, Zval = 16.0
     Generated using "atomic" code by A. Dal Corso v.6.3
     Shape of augmentation charge: PSQ
     Using radial grid of 1191 points,  6 beta functions with: 
                l(1) =   0
                l(2) =   0
                l(3) =   1
                l(4) =   1
                l(5) =   2
                l(6) =   2
     Q(r) pseudized with 0 coefficients 


     atomic species   valence    mass     pseudopotential
        Fe1           16.00    55.84500     Fe( 1.00)
        Fe2           16.00    55.84500     Fe( 1.00)
        Fe3           16.00    55.84500     Fe( 1.00)
        Fe4           16.00    55.84500     Fe( 1.00)

     Starting magnetic structure 
     atomic species   magnetization
        Fe1          0.100
        Fe2         -0.100
        Fe3          0.100
        Fe4         -0.100

      8 Sym. Ops., with inversion, found



   Cartesian axes

     site n.     atom                  positions (alat units)
         1           Fe1 tau(   1) = (   0.0000000   0.0000000   0.0000000  )
         2           Fe2 tau(   2) = (   0.2520802   0.2636211   0.0000000  )
         3           Fe3 tau(   3) = (   0.2520815   0.0000000   0.2499947  )
         4           Fe4 tau(   4) = (   0.0000000   0.2636197   0.2500008  )
         5           Fe1 tau(   5) = (   0.0000000   0.0000000   0.4999935  )
         6           Fe2 tau(   6) = (   0.2520830   0.2636239   0.4999935  )
         7           Fe3 tau(   7) = (   0.2520815   0.0000000   0.7499912  )
         8           Fe4 tau(   8) = (   0.0000000   0.2636197   0.7499852  )
         9           Fe1 tau(   9) = (   0.0000000   0.5272369   0.0000000  )
        10           Fe2 tau(  10) = (   0.2520802   0.7908529   0.0000000  )
        11           Fe3 tau(  11) = (   0.2520837   0.5272369   0.2499987  )
        12           Fe4 tau(  12) = (   0.0000000   0.7908543   0.2500008  )
        13           Fe1 tau(  13) = (   0.0000000   0.5272369   0.4999935  )
        14           Fe2 tau(  14) = (   0.2520830   0.7908501   0.4999935  )
        15           Fe3 tau(  15) = (   0.2520837   0.5272369   0.7499882  )
        16           Fe4 tau(  16) = (   0.0000000   0.7908543   0.7499852  )
        17           Fe1 tau(  17) = (   0.5041665   0.0000000   0.0000000  )
        18           Fe2 tau(  18) = (   0.7562527   0.2636211   0.0000000  )
        19           Fe3 tau(  19) = (   0.7562515   0.0000000   0.2499947  )
        20           Fe4 tau(  20) = (   0.5041665   0.2636187   0.2499987  )
        21           Fe1 tau(  21) = (   0.5041665   0.0000000   0.4999935  )
        22           Fe2 tau(  22) = (   0.7562498   0.2636239   0.4999935  )
        23           Fe3 tau(  23) = (   0.7562515   0.0000000   0.7499912  )
        24           Fe4 tau(  24) = (   0.5041665   0.2636187   0.7499872  )
        25           Fe1 tau(  25) = (   0.5041665   0.5272369   0.0000000  )
        26           Fe2 tau(  26) = (   0.7562527   0.7908529   0.0000000  )
        27           Fe3 tau(  27) = (   0.7562492   0.5272369   0.2499987  )
        28           Fe4 tau(  28) = (   0.5041665   0.7908553   0.2499987  )
        29           Fe1 tau(  29) = (   0.5041665   0.5272369   0.4999935  )
        30           Fe2 tau(  30) = (   0.7562498   0.7908501   0.4999935  )
        31           Fe3 tau(  31) = (   0.7562492   0.5272369   0.7499882  )
        32           Fe4 tau(  32) = (   0.5041665   0.7908553   0.7499872  )

     number of k points=   125  Marzari-Vanderbilt smearing, width (Ry)=  0.0400

     Number of k-points >= 100: set verbosity='high' to print them.

     Dense  grid:   346713 G-vectors     FFT dimensions: (  90,  96,  90)

     Smooth grid:   186125 G-vectors     FFT dimensions: (  72,  75,  72)

     Estimated max dynamical RAM per process >     817.16 MB

     Estimated total dynamical RAM >      31.92 GB
     Generating pointlists ...
     new r_m :   0.1464 (alat units)  1.8948 (a.u.) for type    1
     new r_m :   0.1464 (alat units)  1.8948 (a.u.) for type    2
     new r_m :   0.1464 (alat units)  1.8948 (a.u.) for type    3
     new r_m :   0.1464 (alat units)  1.8948 (a.u.) for type    4

     Check: negative/imaginary core charge=   -0.000006    0.000000

     Initial potential from superposition of free atoms

     starting charge  511.98600, renormalised to  512.00000
     Starting wfcs are  320 randomized atomic wfcs
     Checking if some PAW data can be deallocated... 

     total cpu time spent up to now is       85.8 secs

     Self-consistent Calculation

     iteration #  1     ecut=    71.00 Ry     beta= 0.10
     Davidson diagonalization with overlap
     ethr =  1.00E-02,  avg # of iterations =  3.6

     Threshold (ethr) on eigenvalues was too large:
     Diagonalizing with lowered threshold

     Davidson diagonalization with overlap
     ethr =  3.12E-04,  avg # of iterations =  4.0

     total cpu time spent up to now is     1034.9 secs

     total energy              =  -10536.43198660 Ry
     Harris-Foulkes estimate   =  -10536.76880361 Ry
     estimated scf accuracy    <       1.85040975 Ry

     total magnetization       =     0.24 Bohr mag/cell
     absolute magnetization    =    44.49 Bohr mag/cell

     iteration #  2     ecut=    71.00 Ry     beta= 0.10
     Davidson diagonalization with overlap
     ethr =  3.61E-04,  avg # of iterations =  1.0

     total cpu time spent up to now is     1262.4 secs

     total energy              =  -10536.22005957 Ry
     Harris-Foulkes estimate   =  -10536.47734787 Ry
     estimated scf accuracy    <       1.10290657 Ry

     total magnetization       =    -0.12 Bohr mag/cell
     absolute magnetization    =    45.23 Bohr mag/cell

     iteration #  3     ecut=    71.00 Ry     beta= 0.10
     Davidson diagonalization with overlap
     ethr =  2.15E-04,  avg # of iterations =  2.3

     total cpu time spent up to now is     1582.9 secs

     total energy              =  -10536.08339980 Ry
     Harris-Foulkes estimate   =  -10536.35642330 Ry
     estimated scf accuracy    <       2.68518188 Ry

     total magnetization       =     0.24 Bohr mag/cell
     absolute magnetization    =    45.62 Bohr mag/cell

     iteration #  4     ecut=    71.00 Ry     beta= 0.10
     Davidson diagonalization with overlap
     ethr =  2.15E-04,  avg # of iterations =  2.4

     total cpu time spent up to now is     1906.6 secs

     total energy              =  -10536.18482408 Ry
     Harris-Foulkes estimate   =  -10536.21683977 Ry
     estimated scf accuracy    <       0.53266181 Ry

     total magnetization       =     0.37 Bohr mag/cell
     absolute magnetization    =    46.66 Bohr mag/cell

     iteration #  5     ecut=    71.00 Ry     beta= 0.10
     Davidson diagonalization with overlap
     ethr =  1.04E-04,  avg # of iterations =  1.3

     total cpu time spent up to now is     2154.9 secs

     total energy              =  -10536.19636225 Ry
     Harris-Foulkes estimate   =  -10536.20457941 Ry
     estimated scf accuracy    <       0.08431863 Ry

     total magnetization       =     0.03 Bohr mag/cell
     absolute magnetization    =    46.81 Bohr mag/cell

     iteration #  6     ecut=    71.00 Ry     beta= 0.10
     Davidson diagonalization with overlap
     ethr =  1.65E-05,  avg # of iterations =  3.4

     total cpu time spent up to now is     2539.3 secs

     total energy              =  -10536.18674183 Ry
     Harris-Foulkes estimate   =  -10536.19960256 Ry
     estimated scf accuracy    <       0.07012356 Ry

     total magnetization       =    -0.10 Bohr mag/cell
     absolute magnetization    =    46.77 Bohr mag/cell

     iteration #  7     ecut=    71.00 Ry     beta= 0.10
     Davidson diagonalization with overlap
     ethr =  1.37E-05,  avg # of iterations =  3.7

     total cpu time spent up to now is     3093.0 secs

     total energy              =  -10536.20441387 Ry
     Harris-Foulkes estimate   =  -10536.20645154 Ry
     estimated scf accuracy    <       0.10015626 Ry

     total magnetization       =     0.03 Bohr mag/cell
     absolute magnetization    =    46.93 Bohr mag/cell

     iteration #  8     ecut=    71.00 Ry     beta= 0.10
     Davidson diagonalization with overlap
     ethr =  1.37E-05,  avg # of iterations =  2.1

     total cpu time spent up to now is     3405.5 secs

     total energy              =  -10536.20483243 Ry
     Harris-Foulkes estimate   =  -10536.20871564 Ry
     estimated scf accuracy    <       0.07576941 Ry

     total magnetization       =     0.06 Bohr mag/cell
     absolute magnetization    =    47.19 Bohr mag/cell

     iteration #  9     ecut=    71.00 Ry     beta= 0.10
     Davidson diagonalization with overlap
     ethr =  1.37E-05,  avg # of iterations =  1.0

     total cpu time spent up to now is     3634.0 secs

     total energy              =  -10536.21353106 Ry
     Harris-Foulkes estimate   =  -10536.20639518 Ry
     estimated scf accuracy    <       0.03931637 Ry

     total magnetization       =     0.02 Bohr mag/cell
     absolute magnetization    =    47.36 Bohr mag/cell

     iteration # 10     ecut=    71.00 Ry     beta= 0.10
     Davidson diagonalization with overlap
     ethr =  7.68E-06,  avg # of iterations =  2.3

     total cpu time spent up to now is     3957.3 secs

     total energy              =  -10536.23742213 Ry
     Harris-Foulkes estimate   =  -10536.21547846 Ry
     estimated scf accuracy    <       0.03215868 Ry

     total magnetization       =    -0.07 Bohr mag/cell
     absolute magnetization    =    47.62 Bohr mag/cell

     iteration # 11     ecut=    71.00 Ry     beta= 0.10
     Davidson diagonalization with overlap
     ethr =  6.28E-06,  avg # of iterations =  3.8

     total cpu time spent up to now is     4519.2 secs

     total energy              =  -10536.25223626 Ry
     Harris-Foulkes estimate   =  -10536.24984359 Ry
     estimated scf accuracy    <       0.02743624 Ry

     total magnetization       =    -0.14 Bohr mag/cell
     absolute magnetization    =    48.51 Bohr mag/cell

     iteration # 12     ecut=    71.00 Ry     beta= 0.10
     Davidson diagonalization with overlap
     ethr =  5.36E-06,  avg # of iterations =  1.1

     total cpu time spent up to now is     4762.8 secs

     total energy              =  -10536.25313129 Ry
     Harris-Foulkes estimate   =  -10536.25350761 Ry
     estimated scf accuracy    <       0.01102324 Ry

     total magnetization       =    -0.04 Bohr mag/cell
     absolute magnetization    =    48.78 Bohr mag/cell

     iteration # 13     ecut=    71.00 Ry     beta= 0.10
     Davidson diagonalization with overlap
     ethr =  2.15E-06,  avg # of iterations =  2.5

     total cpu time spent up to now is     5113.5 secs

     total energy              =  -10536.25393655 Ry
     Harris-Foulkes estimate   =  -10536.25391178 Ry
     estimated scf accuracy    <       0.00243864 Ry

     total magnetization       =    -0.02 Bohr mag/cell
     absolute magnetization    =    48.95 Bohr mag/cell

     iteration # 14     ecut=    71.00 Ry     beta= 0.10
     Davidson diagonalization with overlap
     ethr =  4.76E-07,  avg # of iterations =  1.6

     total cpu time spent up to now is     5380.1 secs

     total energy              =  -10536.25409346 Ry
     Harris-Foulkes estimate   =  -10536.25400512 Ry
     estimated scf accuracy    <       0.00131821 Ry

     total magnetization       =    -0.02 Bohr mag/cell
     absolute magnetization    =    48.98 Bohr mag/cell

     iteration # 15     ecut=    71.00 Ry     beta= 0.10
     Davidson diagonalization with overlap
     ethr =  2.57E-07,  avg # of iterations =  1.0

     total cpu time spent up to now is     5615.8 secs

     total energy              =  -10536.25428671 Ry
     Harris-Foulkes estimate   =  -10536.25413078 Ry
     estimated scf accuracy    <       0.00093437 Ry

     total magnetization       =    -0.01 Bohr mag/cell
     absolute magnetization    =    49.07 Bohr mag/cell

     iteration # 16     ecut=    71.00 Ry     beta= 0.10
     Davidson diagonalization with overlap
     ethr =  1.82E-07,  avg # of iterations =  1.7

     total cpu time spent up to now is     5888.8 secs

     total energy              =  -10536.25441479 Ry
     Harris-Foulkes estimate   =  -10536.25434095 Ry
     estimated scf accuracy    <       0.00084561 Ry

     total magnetization       =     0.00 Bohr mag/cell
     absolute magnetization    =    49.18 Bohr mag/cell

     iteration # 17     ecut=    71.00 Ry     beta= 0.10
     Davidson diagonalization with overlap
     ethr =  1.65E-07,  avg # of iterations =  1.4

     total cpu time spent up to now is     6148.3 secs

     total energy              =  -10536.25449890 Ry
     Harris-Foulkes estimate   =  -10536.25446025 Ry
     estimated scf accuracy    <       0.00058841 Ry

     total magnetization       =    -0.03 Bohr mag/cell
     absolute magnetization    =    49.25 Bohr mag/cell

     iteration # 18     ecut=    71.00 Ry     beta= 0.10
     Davidson diagonalization with overlap
     ethr =  1.15E-07,  avg # of iterations =  1.8

     total cpu time spent up to now is     6436.0 secs

     total energy              =  -10536.25466247 Ry
     Harris-Foulkes estimate   =  -10536.25452448 Ry
     estimated scf accuracy    <       0.00047279 Ry

     total magnetization       =    -0.01 Bohr mag/cell
     absolute magnetization    =    49.29 Bohr mag/cell

     iteration # 19     ecut=    71.00 Ry     beta= 0.10
     Davidson diagonalization with overlap
     ethr =  9.23E-08,  avg # of iterations =  2.3

     total cpu time spent up to now is     6754.1 secs

     total energy              =  -10536.25478331 Ry
     Harris-Foulkes estimate   =  -10536.25468745 Ry
     estimated scf accuracy    <       0.00034689 Ry

     total magnetization       =    -0.01 Bohr mag/cell
     absolute magnetization    =    49.39 Bohr mag/cell

     iteration # 20     ecut=    71.00 Ry     beta= 0.10
     Davidson diagonalization with overlap
     ethr =  6.78E-08,  avg # of iterations =  2.2

     total cpu time spent up to now is     7067.5 secs

     total energy              =  -10536.25492923 Ry
     Harris-Foulkes estimate   =  -10536.25480498 Ry
     estimated scf accuracy    <       0.00049697 Ry

     total magnetization       =    -0.01 Bohr mag/cell
     absolute magnetization    =    49.47 Bohr mag/cell

     iteration # 21     ecut=    71.00 Ry     beta= 0.10
     Davidson diagonalization with overlap
     ethr =  6.78E-08,  avg # of iterations =  3.1

     total cpu time spent up to now is     7469.6 secs

     total energy              =  -10536.25501893 Ry
     Harris-Foulkes estimate   =  -10536.25501496 Ry
     estimated scf accuracy    <       0.00020031 Ry

     total magnetization       =    -0.01 Bohr mag/cell
     absolute magnetization    =    49.69 Bohr mag/cell

     iteration # 22     ecut=    71.00 Ry     beta= 0.10
     Davidson diagonalization with overlap
     ethr =  3.91E-08,  avg # of iterations =  1.0

     total cpu time spent up to now is     7701.5 secs

     total energy              =  -10536.25505621 Ry
     Harris-Foulkes estimate   =  -10536.25502867 Ry
     estimated scf accuracy    <       0.00013516 Ry

     total magnetization       =    -0.01 Bohr mag/cell
     absolute magnetization    =    49.72 Bohr mag/cell

     iteration # 23     ecut=    71.00 Ry     beta= 0.10
     Davidson diagonalization with overlap
     ethr =  2.64E-08,  avg # of iterations =  1.8

     total cpu time spent up to now is     7989.3 secs

     total energy              =  -10536.25508196 Ry
     Harris-Foulkes estimate   =  -10536.25506578 Ry
     estimated scf accuracy    <       0.00008216 Ry

     total magnetization       =    -0.01 Bohr mag/cell
     absolute magnetization    =    49.78 Bohr mag/cell

     iteration # 24     ecut=    71.00 Ry     beta= 0.10
     Davidson diagonalization with overlap
     ethr =  1.60E-08,  avg # of iterations =  2.9

     total cpu time spent up to now is     8355.4 secs

     total energy              =  -10536.25509407 Ry
     Harris-Foulkes estimate   =  -10536.25509115 Ry
     estimated scf accuracy    <       0.00011236 Ry

     total magnetization       =    -0.01 Bohr mag/cell
     absolute magnetization    =    49.85 Bohr mag/cell

     iteration # 25     ecut=    71.00 Ry     beta= 0.10
     Davidson diagonalization with overlap
     ethr =  1.60E-08,  avg # of iterations =  2.2

     total cpu time spent up to now is     8666.0 secs

     total energy              =  -10536.25510191 Ry
     Harris-Foulkes estimate   =  -10536.25510770 Ry
     estimated scf accuracy    <       0.00008406 Ry

     total magnetization       =    -0.01 Bohr mag/cell
     absolute magnetization    =    49.94 Bohr mag/cell

     iteration # 26     ecut=    71.00 Ry     beta= 0.10
     Davidson diagonalization with overlap
     ethr =  1.60E-08,  avg # of iterations =  1.0

     total cpu time spent up to now is     8895.1 secs

     total energy              =  -10536.25510652 Ry
     Harris-Foulkes estimate   =  -10536.25510858 Ry
     estimated scf accuracy    <       0.00011951 Ry

     total magnetization       =    -0.01 Bohr mag/cell
     absolute magnetization    =    49.94 Bohr mag/cell

     iteration # 27     ecut=    71.00 Ry     beta= 0.10
     Davidson diagonalization with overlap
     ethr =  1.60E-08,  avg # of iterations =  2.8

     total cpu time spent up to now is     9248.2 secs

     total energy              =  -10536.25512463 Ry
     Harris-Foulkes estimate   =  -10536.25511847 Ry
     estimated scf accuracy    <       0.00002174 Ry

     total magnetization       =    -0.00 Bohr mag/cell
     absolute magnetization    =    50.03 Bohr mag/cell

     iteration # 28     ecut=    71.00 Ry     beta= 0.10
     Davidson diagonalization with overlap
     ethr =  4.25E-09,  avg # of iterations =  2.5

     total cpu time spent up to now is     9584.9 secs

     total energy              =  -10536.25513215 Ry
     Harris-Foulkes estimate   =  -10536.25512557 Ry
     estimated scf accuracy    <       0.00001810 Ry

     total magnetization       =    -0.00 Bohr mag/cell
     absolute magnetization    =    50.04 Bohr mag/cell

     iteration # 29     ecut=    71.00 Ry     beta= 0.10
     Davidson diagonalization with overlap
     ethr =  3.54E-09,  avg # of iterations =  2.1

     total cpu time spent up to now is     9897.2 secs

     total energy              =  -10536.25513685 Ry
     Harris-Foulkes estimate   =  -10536.25513380 Ry
     estimated scf accuracy    <       0.00001428 Ry

     total magnetization       =    -0.01 Bohr mag/cell
     absolute magnetization    =    50.07 Bohr mag/cell

     iteration # 30     ecut=    71.00 Ry     beta= 0.10
     Davidson diagonalization with overlap
     ethr =  2.79E-09,  avg # of iterations =  2.0

     total cpu time spent up to now is    10200.1 secs

     total energy              =  -10536.25513888 Ry
     Harris-Foulkes estimate   =  -10536.25513784 Ry
     estimated scf accuracy    <       0.00000868 Ry

     total magnetization       =    -0.00 Bohr mag/cell
     absolute magnetization    =    50.08 Bohr mag/cell

     iteration # 31     ecut=    71.00 Ry     beta= 0.10
     Davidson diagonalization with overlap
     ethr =  1.70E-09,  avg # of iterations =  1.5

     total cpu time spent up to now is    10465.6 secs

     total energy              =  -10536.25514017 Ry
     Harris-Foulkes estimate   =  -10536.25513913 Ry
     estimated scf accuracy    <       0.00000599 Ry

     total magnetization       =    -0.00 Bohr mag/cell
     absolute magnetization    =    50.08 Bohr mag/cell

     iteration # 32     ecut=    71.00 Ry     beta= 0.10
     Davidson diagonalization with overlap
     ethr =  1.17E-09,  avg # of iterations =  2.9

     total cpu time spent up to now is    10825.3 secs

     total energy              =  -10536.25514122 Ry
     Harris-Foulkes estimate   =  -10536.25514083 Ry
     estimated scf accuracy    <       0.00000474 Ry

     total magnetization       =    -0.00 Bohr mag/cell
     absolute magnetization    =    50.11 Bohr mag/cell

     iteration # 33     ecut=    71.00 Ry     beta= 0.10
     Davidson diagonalization with overlap
     ethr =  9.27E-10,  avg # of iterations =  3.1

     total cpu time spent up to now is    11247.2 secs

     total energy              =  -10536.25514324 Ry
     Harris-Foulkes estimate   =  -10536.25514300 Ry
     estimated scf accuracy    <       0.00000330 Ry

     total magnetization       =    -0.00 Bohr mag/cell
     absolute magnetization    =    50.14 Bohr mag/cell

     iteration # 34     ecut=    71.00 Ry     beta= 0.10
     Davidson diagonalization with overlap
     ethr =  6.45E-10,  avg # of iterations =  1.0

     total cpu time spent up to now is    11476.0 secs

     total energy              =  -10536.25514357 Ry
     Harris-Foulkes estimate   =  -10536.25514339 Ry
     estimated scf accuracy    <       0.00000231 Ry

     total magnetization       =    -0.00 Bohr mag/cell
     absolute magnetization    =    50.14 Bohr mag/cell

     iteration # 35     ecut=    71.00 Ry     beta= 0.10
     Davidson diagonalization with overlap
     ethr =  4.50E-10,  avg # of iterations =  1.0

     total cpu time spent up to now is    11703.3 secs

     total energy              =  -10536.25514380 Ry
     Harris-Foulkes estimate   =  -10536.25514368 Ry
     estimated scf accuracy    <       0.00000150 Ry

     total magnetization       =    -0.00 Bohr mag/cell
     absolute magnetization    =    50.14 Bohr mag/cell

     iteration # 36     ecut=    71.00 Ry     beta= 0.10
     Davidson diagonalization with overlap
     ethr =  2.93E-10,  avg # of iterations =  1.0
 
     Magnetic moment per site:
     atom:    1    charge:   14.4065    magn:    1.5096    constr:    0.0000
     atom:    2    charge:   14.4068    magn:   -1.5097    constr:    0.0000
     atom:    3    charge:   14.4060    magn:    1.5126    constr:    0.0000
     atom:    4    charge:   14.4065    magn:   -1.5140    constr:    0.0000
     atom:    5    charge:   14.4065    magn:    1.5104    constr:    0.0000
     atom:    6    charge:   14.4068    magn:   -1.5091    constr:    0.0000
     atom:    7    charge:   14.4060    magn:    1.5126    constr:    0.0000
     atom:    8    charge:   14.4065    magn:   -1.5140    constr:    0.0000
     atom:    9    charge:   14.4065    magn:    1.5105    constr:    0.0000
     atom:   10    charge:   14.4068    magn:   -1.5097    constr:    0.0000
     atom:   11    charge:   14.4061    magn:    1.5120    constr:    0.0000
     atom:   12    charge:   14.4065    magn:   -1.5140    constr:    0.0000
     atom:   13    charge:   14.4065    magn:    1.5111    constr:    0.0000
     atom:   14    charge:   14.4068    magn:   -1.5091    constr:    0.0000
     atom:   15    charge:   14.4061    magn:    1.5120    constr:    0.0000
     atom:   16    charge:   14.4065    magn:   -1.5140    constr:    0.0000
     atom:   17    charge:   14.4065    magn:    1.5111    constr:    0.0000
     atom:   18    charge:   14.4068    magn:   -1.5097    constr:    0.0000
     atom:   19    charge:   14.4060    magn:    1.5126    constr:    0.0000
     atom:   20    charge:   14.4066    magn:   -1.5132    constr:    0.0000
     atom:   21    charge:   14.4066    magn:    1.5115    constr:    0.0000
     atom:   22    charge:   14.4068    magn:   -1.5091    constr:    0.0000
     atom:   23    charge:   14.4060    magn:    1.5126    constr:    0.0000
     atom:   24    charge:   14.4066    magn:   -1.5132    constr:    0.0000
     atom:   25    charge:   14.4066    magn:    1.5100    constr:    0.0000
     atom:   26    charge:   14.4068    magn:   -1.5097    constr:    0.0000
     atom:   27    charge:   14.4061    magn:    1.5120    constr:    0.0000
     atom:   28    charge:   14.4066    magn:   -1.5132    constr:    0.0000
     atom:   29    charge:   14.4067    magn:    1.5100    constr:    0.0000
     atom:   30    charge:   14.4068    magn:   -1.5091    constr:    0.0000
     atom:   31    charge:   14.4061    magn:    1.5120    constr:    0.0000
     atom:   32    charge:   14.4066    magn:   -1.5132    constr:    0.0000

     total cpu time spent up to now is    11935.4 secs

     End of self-consistent calculation

     Number of k-points >= 100: set verbosity='high' to print the bands.

     the Fermi energy is    19.9279 ev

!    total energy              =  -10536.25514432 Ry
     Harris-Foulkes estimate   =  -10536.25514387 Ry
     estimated scf accuracy    <       0.00000071 Ry

     total all-electron energy =    -81457.744202 Ry

     The total energy is the sum of the following terms:

     one-electron contribution =   -3317.02379262 Ry
     hartree contribution      =    2005.26988208 Ry
     xc contribution           =    -886.76805762 Ry
     ewald contribution        =   -5688.18418144 Ry
     one-center paw contrib.   =   -2649.55861562 Ry
     smearing contrib. (-TS)   =       0.00962090 Ry

     total magnetization       =    -0.00 Bohr mag/cell
     absolute magnetization    =    50.15 Bohr mag/cell

     convergence has been achieved in  36 iterations

     Forces acting on atoms (cartesian axes, Ry/au):

     atom    1 type  1   force =     0.00000000    0.00000000    0.00000000
     atom    2 type  2   force =     0.00000415    0.00005401    0.00000000
     atom    3 type  3   force =     0.00007352   -0.00000000   -0.00002247
     atom    4 type  4   force =     0.00000000   -0.00005480   -0.00003947
     atom    5 type  1   force =     0.00000000    0.00000000    0.00000000
     atom    6 type  2   force =     0.00002509    0.00000943    0.00000000
     atom    7 type  3   force =     0.00007352    0.00000000    0.00002247
     atom    8 type  4   force =     0.00000000   -0.00005480    0.00003947
     atom    9 type  1   force =     0.00000000    0.00000000    0.00000000
     atom   10 type  2   force =     0.00000415   -0.00005401    0.00000000
     atom   11 type  3   force =     0.00001539    0.00000000   -0.00002236
     atom   12 type  4   force =     0.00000000    0.00005480   -0.00003947
     atom   13 type  1   force =     0.00000000    0.00000000    0.00000000
     atom   14 type  2   force =     0.00002509   -0.00000943    0.00000000
     atom   15 type  3   force =     0.00001539    0.00000000    0.00002236
     atom   16 type  4   force =     0.00000000    0.00005480    0.00003947
     atom   17 type  1   force =     0.00000000    0.00000000    0.00000000
     atom   18 type  2   force =    -0.00000415    0.00005401    0.00000000
     atom   19 type  3   force =    -0.00007352    0.00000000   -0.00002247
     atom   20 type  4   force =     0.00000000    0.00004696   -0.00003033
     atom   21 type  1   force =     0.00000000    0.00000000    0.00000000
     atom   22 type  2   force =    -0.00002509    0.00000943    0.00000000
     atom   23 type  3   force =    -0.00007352   -0.00000000    0.00002247
     atom   24 type  4   force =     0.00000000    0.00004696    0.00003033
     atom   25 type  1   force =     0.00000000    0.00000000    0.00000000
     atom   26 type  2   force =    -0.00000415   -0.00005401    0.00000000
     atom   27 type  3   force =    -0.00001539    0.00000000   -0.00002236
     atom   28 type  4   force =     0.00000000   -0.00004696   -0.00003033
     atom   29 type  1   force =     0.00000000    0.00000000    0.00000000
     atom   30 type  2   force =    -0.00002509   -0.00000943    0.00000000
     atom   31 type  3   force =    -0.00001539    0.00000000    0.00002236
     atom   32 type  4   force =     0.00000000   -0.00004696    0.00003033

     Total force =     0.000268     Total SCF correction =     0.001594
     SCF correction compared to forces is large: reduce conv_thr to get better values


     Computing stress (Cartesian axis) and pressure

          total   stress  (Ry/bohr**3)                   (kbar)     P=  -20.26
  -0.00020507   0.00000000   0.00000000        -30.17      0.00      0.00
   0.00000000  -0.00007342   0.00000000          0.00    -10.80      0.00
   0.00000000   0.00000000  -0.00013471          0.00      0.00    -19.82


     Writing output data file tyvJjDwXcGAQCqaO.save/
-------------------------------------------------------
Primary job  terminated normally, but 1 process returned
a non-zero exit code.. Per user-direction, the job has been aborted.
-------------------------------------------------------
--------------------------------------------------------------------------
mpirun detected that one or more processes exited with non-zero status, thus causing
the job to be terminated. The first process to do so was:

  Process name: [[57817,1],0]
  Exit code:    38
--------------------------------------------------------------------------
