
     Program PWSCF v.6.3 starts on 27Jun2020 at  0:12:57 

     This program is part of the open-source Quantum ESPRESSO suite
     for quantum simulation of materials; please cite
         "P. Giannozzi et al., J. Phys.:Condens. Matter 21 395502 (2009);
         "P. Giannozzi et al., J. Phys.:Condens. Matter 29 465901 (2017);
          URL http://www.quantum-espresso.org", 
     in publications or presentations arising from this work. More details at
     http://www.quantum-espresso.org/quote

     Parallel version (MPI & OpenMP), running on      20 processor cores
     Number of MPI processes:                20
     Threads/MPI process:                     1

     MPI processes distributed on     1 nodes
     R & G space division:  proc/nbgrp/npool/nimage =      20
     Reading input from wd/eos/eos_008.in
Warning: card &IONS ignored
Warning: card ION_DYNAMICS = 'BFGS', ignored
Warning: card / ignored
Warning: card &CELL ignored
Warning: card CELL_DYNAMICS = 'BFGS', ignored
Warning: card CELL_FACTOR = 2.0, ignored
Warning: card PRESS = 0.0, ignored
Warning: card / ignored

     Current dimensions of program PWSCF are:
     Max number of different atomic species (ntypx) = 10
     Max number of k-points (npk) =  40000
     Max angular momentum in pseudopotentials (lmaxx) =  3
               file Fe.pbe-spn-kjpaw_psl.1.0.0.UPF: wavefunction(s)  3P 3D renormalized
               file Fe.pbe-spn-kjpaw_psl.1.0.0.UPF: wavefunction(s)  3P 3D renormalized
               file Fe.pbe-spn-kjpaw_psl.1.0.0.UPF: wavefunction(s)  3P 3D renormalized
               file Fe.pbe-spn-kjpaw_psl.1.0.0.UPF: wavefunction(s)  3P 3D renormalized

     Subspace diagonalization in iterative solution of the eigenvalue problem:
     a serial algorithm will be used

     Found symmetry operation: I + (  0.0000  0.0000 -0.5000)
     This is a supercell, fractional translations are disabled
 
     Parallelization info
     --------------------
     sticks:   dense  smooth     PW     G-vecs:    dense   smooth      PW
     Min         301     199     55                17193     9231    1329
     Max         302     200     56                17196     9234    1330
     Sum        6035    3993   1103               343891   184641   26583
 


     bravais-lattice index     =            0
     lattice parameter (alat)  =      12.9382  a.u.
     unit-cell volume          =    2283.7593 (a.u.)^3
     number of atoms/cell      =           32
     number of atomic types    =            4
     number of electrons       =       512.00
     number of Kohn-Sham states=          307
     kinetic-energy cutoff     =      71.0000  Ry
     charge density cutoff     =     430.0000  Ry
     convergence threshold     =      1.0E-06
     mixing beta               =       0.1000
     number of iterations used =           10  plain     mixing
     Exchange-correlation      = SLA PW PBX PBC ( 1  4  3  4 0 0)

     celldm(1)=  12.938187  celldm(2)=   0.000000  celldm(3)=   0.000000
     celldm(4)=   0.000000  celldm(5)=   0.000000  celldm(6)=   0.000000

     crystal axes: (cart. coord. in units of alat)
               a(1) = (   1.000000   0.000000   0.000000 )  
               a(2) = (   0.000000   1.054474   0.000000 )  
               a(3) = (   0.000000   0.000000   0.999987 )  

     reciprocal axes: (cart. coord. in units 2 pi/alat)
               b(1) = (  1.000000  0.000000  0.000000 )  
               b(2) = (  0.000000  0.948340  0.000000 )  
               b(3) = (  0.000000  0.000000  1.000013 )  


     PseudoPot. # 1 for Fe read from file:
     /rds/homes/b/bxp912/pp/Fe.pbe-spn-kjpaw_psl.1.0.0.UPF
     MD5 check sum: 42f43b795421b414b0dc916aa790dbcb
     Pseudo is Projector augmented-wave + core cor, Zval = 16.0
     Generated using "atomic" code by A. Dal Corso v.6.3
     Shape of augmentation charge: PSQ
     Using radial grid of 1191 points,  6 beta functions with: 
                l(1) =   0
                l(2) =   0
                l(3) =   1
                l(4) =   1
                l(5) =   2
                l(6) =   2
     Q(r) pseudized with 0 coefficients 


     PseudoPot. # 2 for Fe read from file:
     /rds/homes/b/bxp912/pp/Fe.pbe-spn-kjpaw_psl.1.0.0.UPF
     MD5 check sum: 42f43b795421b414b0dc916aa790dbcb
     Pseudo is Projector augmented-wave + core cor, Zval = 16.0
     Generated using "atomic" code by A. Dal Corso v.6.3
     Shape of augmentation charge: PSQ
     Using radial grid of 1191 points,  6 beta functions with: 
                l(1) =   0
                l(2) =   0
                l(3) =   1
                l(4) =   1
                l(5) =   2
                l(6) =   2
     Q(r) pseudized with 0 coefficients 


     PseudoPot. # 3 for Fe read from file:
     /rds/homes/b/bxp912/pp/Fe.pbe-spn-kjpaw_psl.1.0.0.UPF
     MD5 check sum: 42f43b795421b414b0dc916aa790dbcb
     Pseudo is Projector augmented-wave + core cor, Zval = 16.0
     Generated using "atomic" code by A. Dal Corso v.6.3
     Shape of augmentation charge: PSQ
     Using radial grid of 1191 points,  6 beta functions with: 
                l(1) =   0
                l(2) =   0
                l(3) =   1
                l(4) =   1
                l(5) =   2
                l(6) =   2
     Q(r) pseudized with 0 coefficients 


     PseudoPot. # 4 for Fe read from file:
     /rds/homes/b/bxp912/pp/Fe.pbe-spn-kjpaw_psl.1.0.0.UPF
     MD5 check sum: 42f43b795421b414b0dc916aa790dbcb
     Pseudo is Projector augmented-wave + core cor, Zval = 16.0
     Generated using "atomic" code by A. Dal Corso v.6.3
     Shape of augmentation charge: PSQ
     Using radial grid of 1191 points,  6 beta functions with: 
                l(1) =   0
                l(2) =   0
                l(3) =   1
                l(4) =   1
                l(5) =   2
                l(6) =   2
     Q(r) pseudized with 0 coefficients 


     atomic species   valence    mass     pseudopotential
        Fe1           16.00    55.84500     Fe( 1.00)
        Fe2           16.00    55.84500     Fe( 1.00)
        Fe3           16.00    55.84500     Fe( 1.00)
        Fe4           16.00    55.84500     Fe( 1.00)

     Starting magnetic structure 
     atomic species   magnetization
        Fe1          0.100
        Fe2         -0.100
        Fe3          0.100
        Fe4         -0.100

      8 Sym. Ops., with inversion, found



   Cartesian axes

     site n.     atom                  positions (alat units)
         1           Fe1 tau(   1) = (   0.0000000   0.0000000   0.0000000  )
         2           Fe2 tau(   2) = (   0.2499968   0.2636211   0.0000000  )
         3           Fe3 tau(   3) = (   0.2499981   0.0000000   0.2499947  )
         4           Fe4 tau(   4) = (   0.0000000   0.2636197   0.2500008  )
         5           Fe1 tau(   5) = (   0.0000000   0.0000000   0.4999935  )
         6           Fe2 tau(   6) = (   0.2499996   0.2636239   0.4999935  )
         7           Fe3 tau(   7) = (   0.2499981   0.0000000   0.7499912  )
         8           Fe4 tau(   8) = (   0.0000000   0.2636197   0.7499852  )
         9           Fe1 tau(   9) = (   0.0000000   0.5272369   0.0000000  )
        10           Fe2 tau(  10) = (   0.2499968   0.7908529   0.0000000  )
        11           Fe3 tau(  11) = (   0.2500004   0.5272369   0.2499987  )
        12           Fe4 tau(  12) = (   0.0000000   0.7908543   0.2500008  )
        13           Fe1 tau(  13) = (   0.0000000   0.5272369   0.4999935  )
        14           Fe2 tau(  14) = (   0.2499996   0.7908501   0.4999935  )
        15           Fe3 tau(  15) = (   0.2500004   0.5272369   0.7499882  )
        16           Fe4 tau(  16) = (   0.0000000   0.7908543   0.7499852  )
        17           Fe1 tau(  17) = (   0.4999998   0.0000000   0.0000000  )
        18           Fe2 tau(  18) = (   0.7500027   0.2636211   0.0000000  )
        19           Fe3 tau(  19) = (   0.7500015   0.0000000   0.2499947  )
        20           Fe4 tau(  20) = (   0.4999998   0.2636187   0.2499987  )
        21           Fe1 tau(  21) = (   0.4999998   0.0000000   0.4999935  )
        22           Fe2 tau(  22) = (   0.7499998   0.2636239   0.4999935  )
        23           Fe3 tau(  23) = (   0.7500015   0.0000000   0.7499912  )
        24           Fe4 tau(  24) = (   0.4999998   0.2636187   0.7499872  )
        25           Fe1 tau(  25) = (   0.4999998   0.5272369   0.0000000  )
        26           Fe2 tau(  26) = (   0.7500027   0.7908529   0.0000000  )
        27           Fe3 tau(  27) = (   0.7499992   0.5272369   0.2499987  )
        28           Fe4 tau(  28) = (   0.4999998   0.7908553   0.2499987  )
        29           Fe1 tau(  29) = (   0.4999998   0.5272369   0.4999935  )
        30           Fe2 tau(  30) = (   0.7499998   0.7908501   0.4999935  )
        31           Fe3 tau(  31) = (   0.7499992   0.5272369   0.7499882  )
        32           Fe4 tau(  32) = (   0.4999998   0.7908553   0.7499872  )

     number of k points=   125  Marzari-Vanderbilt smearing, width (Ry)=  0.0400

     Number of k-points >= 100: set verbosity='high' to print them.

     Dense  grid:   343891 G-vectors     FFT dimensions: (  90,  96,  90)

     Smooth grid:   184641 G-vectors     FFT dimensions: (  72,  75,  72)

     Estimated max dynamical RAM per process >       1.50 GB

     Estimated total dynamical RAM >      30.01 GB
     Generating pointlists ...
     new r_m :   0.1458 (alat units)  1.8869 (a.u.) for type    1
     new r_m :   0.1458 (alat units)  1.8869 (a.u.) for type    2
     new r_m :   0.1458 (alat units)  1.8869 (a.u.) for type    3
     new r_m :   0.1458 (alat units)  1.8869 (a.u.) for type    4

     Check: negative/imaginary core charge=   -0.000006    0.000000

     Initial potential from superposition of free atoms

     starting charge  511.98600, renormalised to  512.00000
     Starting wfcs are  320 randomized atomic wfcs
     Checking if some PAW data can be deallocated... 

     total cpu time spent up to now is      156.2 secs

     Self-consistent Calculation

     iteration #  1     ecut=    71.00 Ry     beta= 0.10
     Davidson diagonalization with overlap
     ethr =  1.00E-02,  avg # of iterations =  3.6

     Threshold (ethr) on eigenvalues was too large:
     Diagonalizing with lowered threshold

     Davidson diagonalization with overlap
     ethr =  3.19E-04,  avg # of iterations =  4.0

     total cpu time spent up to now is     1594.8 secs

     total energy              =  -10536.43261545 Ry
     Harris-Foulkes estimate   =  -10536.77417499 Ry
     estimated scf accuracy    <       1.88325140 Ry

     total magnetization       =     0.23 Bohr mag/cell
     absolute magnetization    =    44.21 Bohr mag/cell

     iteration #  2     ecut=    71.00 Ry     beta= 0.10
     Davidson diagonalization with overlap
     ethr =  3.68E-04,  avg # of iterations =  1.0

     total cpu time spent up to now is     1997.4 secs

     total energy              =  -10536.21200468 Ry
     Harris-Foulkes estimate   =  -10536.47816671 Ry
     estimated scf accuracy    <       1.11523086 Ry

     total magnetization       =    -0.11 Bohr mag/cell
     absolute magnetization    =    44.93 Bohr mag/cell

     iteration #  3     ecut=    71.00 Ry     beta= 0.10
     Davidson diagonalization with overlap
     ethr =  2.18E-04,  avg # of iterations =  2.3

     total cpu time spent up to now is     2524.7 secs

     total energy              =  -10536.07875669 Ry
     Harris-Foulkes estimate   =  -10536.35207144 Ry
     estimated scf accuracy    <       2.72118528 Ry

     total magnetization       =     0.23 Bohr mag/cell
     absolute magnetization    =    45.29 Bohr mag/cell

     iteration #  4     ecut=    71.00 Ry     beta= 0.10
     Davidson diagonalization with overlap
     ethr =  2.18E-04,  avg # of iterations =  2.3

     total cpu time spent up to now is     3029.4 secs

     total energy              =  -10536.18074252 Ry
     Harris-Foulkes estimate   =  -10536.21199157 Ry
     estimated scf accuracy    <       0.51486283 Ry

     total magnetization       =     0.35 Bohr mag/cell
     absolute magnetization    =    46.31 Bohr mag/cell

     iteration #  5     ecut=    71.00 Ry     beta= 0.10
     Davidson diagonalization with overlap
     ethr =  1.01E-04,  avg # of iterations =  1.2

     total cpu time spent up to now is     3464.8 secs

     total energy              =  -10536.19133828 Ry
     Harris-Foulkes estimate   =  -10536.20018236 Ry
     estimated scf accuracy    <       0.08329127 Ry

     total magnetization       =     0.02 Bohr mag/cell
     absolute magnetization    =    46.45 Bohr mag/cell

     iteration #  6     ecut=    71.00 Ry     beta= 0.10
     Davidson diagonalization with overlap
     ethr =  1.63E-05,  avg # of iterations =  3.5

     total cpu time spent up to now is     4073.0 secs

     total energy              =  -10536.18260961 Ry
     Harris-Foulkes estimate   =  -10536.19482002 Ry
     estimated scf accuracy    <       0.06802842 Ry

     total magnetization       =    -0.11 Bohr mag/cell
     absolute magnetization    =    46.41 Bohr mag/cell

     iteration #  7     ecut=    71.00 Ry     beta= 0.10
     Davidson diagonalization with overlap
     ethr =  1.33E-05,  avg # of iterations =  3.7

     total cpu time spent up to now is     4898.8 secs

     total energy              =  -10536.19821128 Ry
     Harris-Foulkes estimate   =  -10536.20360453 Ry
     estimated scf accuracy    <       0.08821381 Ry

     total magnetization       =     0.06 Bohr mag/cell
     absolute magnetization    =    46.57 Bohr mag/cell

     iteration #  8     ecut=    71.00 Ry     beta= 0.10
     Davidson diagonalization with overlap
     ethr =  1.33E-05,  avg # of iterations =  2.0

     total cpu time spent up to now is     5405.3 secs

     total energy              =  -10536.20112111 Ry
     Harris-Foulkes estimate   =  -10536.20219522 Ry
     estimated scf accuracy    <       0.05878500 Ry

     total magnetization       =     0.04 Bohr mag/cell
     absolute magnetization    =    46.86 Bohr mag/cell

     iteration #  9     ecut=    71.00 Ry     beta= 0.10
     Davidson diagonalization with overlap
     ethr =  1.15E-05,  avg # of iterations =  1.0

     total cpu time spent up to now is     5808.4 secs

     total energy              =  -10536.21138274 Ry
     Harris-Foulkes estimate   =  -10536.20206900 Ry
     estimated scf accuracy    <       0.03774383 Ry

     total magnetization       =     0.01 Bohr mag/cell
     absolute magnetization    =    46.94 Bohr mag/cell

     iteration # 10     ecut=    71.00 Ry     beta= 0.10
     Davidson diagonalization with overlap
     ethr =  7.37E-06,  avg # of iterations =  2.7

     total cpu time spent up to now is     6370.8 secs

     total energy              =  -10536.23502624 Ry
     Harris-Foulkes estimate   =  -10536.21405244 Ry
     estimated scf accuracy    <       0.03149314 Ry

     total magnetization       =    -0.08 Bohr mag/cell
     absolute magnetization    =    47.26 Bohr mag/cell

     iteration # 11     ecut=    71.00 Ry     beta= 0.10
     Davidson diagonalization with overlap
     ethr =  6.15E-06,  avg # of iterations =  3.7

     total cpu time spent up to now is     7185.7 secs

     total energy              =  -10536.24736855 Ry
     Harris-Foulkes estimate   =  -10536.24582556 Ry
     estimated scf accuracy    <       0.02792050 Ry

     total magnetization       =    -0.11 Bohr mag/cell
     absolute magnetization    =    48.02 Bohr mag/cell

     iteration # 12     ecut=    71.00 Ry     beta= 0.10
     Davidson diagonalization with overlap
     ethr =  5.45E-06,  avg # of iterations =  1.7

     total cpu time spent up to now is     7662.5 secs

     total energy              =  -10536.24885614 Ry
     Harris-Foulkes estimate   =  -10536.24907055 Ry
     estimated scf accuracy    <       0.00713265 Ry

     total magnetization       =    -0.03 Bohr mag/cell
     absolute magnetization    =    48.28 Bohr mag/cell

     iteration # 13     ecut=    71.00 Ry     beta= 0.10
     Davidson diagonalization with overlap
     ethr =  1.39E-06,  avg # of iterations =  3.1

     total cpu time spent up to now is     8305.4 secs

     total energy              =  -10536.24954848 Ry
     Harris-Foulkes estimate   =  -10536.24959554 Ry
     estimated scf accuracy    <       0.00171451 Ry

     total magnetization       =    -0.01 Bohr mag/cell
     absolute magnetization    =    48.43 Bohr mag/cell

     iteration # 14     ecut=    71.00 Ry     beta= 0.10
     Davidson diagonalization with overlap
     ethr =  3.35E-07,  avg # of iterations =  1.1

     total cpu time spent up to now is     8729.1 secs

     total energy              =  -10536.24962568 Ry
     Harris-Foulkes estimate   =  -10536.24958886 Ry
     estimated scf accuracy    <       0.00121104 Ry

     total magnetization       =    -0.01 Bohr mag/cell
     absolute magnetization    =    48.46 Bohr mag/cell

     iteration # 15     ecut=    71.00 Ry     beta= 0.10
     Davidson diagonalization with overlap
     ethr =  2.37E-07,  avg # of iterations =  1.5

     total cpu time spent up to now is     9175.2 secs

     total energy              =  -10536.24983004 Ry
     Harris-Foulkes estimate   =  -10536.24966643 Ry
     estimated scf accuracy    <       0.00088456 Ry

     total magnetization       =    -0.01 Bohr mag/cell
     absolute magnetization    =    48.52 Bohr mag/cell

     iteration # 16     ecut=    71.00 Ry     beta= 0.10
     Davidson diagonalization with overlap
     ethr =  1.73E-07,  avg # of iterations =  1.7

     total cpu time spent up to now is     9648.7 secs

     total energy              =  -10536.24989381 Ry
     Harris-Foulkes estimate   =  -10536.24989360 Ry
     estimated scf accuracy    <       0.00069927 Ry

     total magnetization       =     0.00 Bohr mag/cell
     absolute magnetization    =    48.63 Bohr mag/cell

     iteration # 17     ecut=    71.00 Ry     beta= 0.10
     Davidson diagonalization with overlap
     ethr =  1.37E-07,  avg # of iterations =  1.5

     total cpu time spent up to now is    10098.1 secs

     total energy              =  -10536.25006084 Ry
     Harris-Foulkes estimate   =  -10536.24993622 Ry
     estimated scf accuracy    <       0.00054002 Ry

     total magnetization       =    -0.03 Bohr mag/cell
     absolute magnetization    =    48.68 Bohr mag/cell

     iteration # 18     ecut=    71.00 Ry     beta= 0.10
     Davidson diagonalization with overlap
     ethr =  1.05E-07,  avg # of iterations =  1.4

     total cpu time spent up to now is    10551.5 secs

     total energy              =  -10536.25018955 Ry
     Harris-Foulkes estimate   =  -10536.25009111 Ry
     estimated scf accuracy    <       0.00035751 Ry

     total magnetization       =    -0.00 Bohr mag/cell
     absolute magnetization    =    48.77 Bohr mag/cell

     iteration # 19     ecut=    71.00 Ry     beta= 0.10
     Davidson diagonalization with overlap
     ethr =  6.98E-08,  avg # of iterations =  2.7

     total cpu time spent up to now is    11094.6 secs

     total energy              =  -10536.25035197 Ry
     Harris-Foulkes estimate   =  -10536.25020944 Ry
     estimated scf accuracy    <       0.00028696 Ry

     total magnetization       =    -0.01 Bohr mag/cell
     absolute magnetization    =    48.85 Bohr mag/cell

     iteration # 20     ecut=    71.00 Ry     beta= 0.10
     Davidson diagonalization with overlap
     ethr =  5.60E-08,  avg # of iterations =  3.1

     total cpu time spent up to now is    11731.4 secs

     total energy              =  -10536.25044813 Ry
     Harris-Foulkes estimate   =  -10536.25042637 Ry
     estimated scf accuracy    <       0.00028715 Ry

     total magnetization       =    -0.01 Bohr mag/cell
     absolute magnetization    =    49.05 Bohr mag/cell

     iteration # 21     ecut=    71.00 Ry     beta= 0.10
     Davidson diagonalization with overlap
     ethr =  5.60E-08,  avg # of iterations =  1.0

     total cpu time spent up to now is    12144.9 secs

     total energy              =  -10536.25048304 Ry
     Harris-Foulkes estimate   =  -10536.25046059 Ry
     estimated scf accuracy    <       0.00016339 Ry

     total magnetization       =    -0.01 Bohr mag/cell
     absolute magnetization    =    49.09 Bohr mag/cell

     iteration # 22     ecut=    71.00 Ry     beta= 0.10
     Davidson diagonalization with overlap
     ethr =  3.19E-08,  avg # of iterations =  1.1

     total cpu time spent up to now is    12569.2 secs

     total energy              =  -10536.25050357 Ry
     Harris-Foulkes estimate   =  -10536.25049403 Ry
     estimated scf accuracy    <       0.00010411 Ry

     total magnetization       =    -0.00 Bohr mag/cell
     absolute magnetization    =    49.16 Bohr mag/cell

     iteration # 23     ecut=    71.00 Ry     beta= 0.10
     Davidson diagonalization with overlap
     ethr =  2.03E-08,  avg # of iterations =  1.2

     total cpu time spent up to now is    12988.6 secs

     total energy              =  -10536.25052077 Ry
     Harris-Foulkes estimate   =  -10536.25050665 Ry
     estimated scf accuracy    <       0.00008197 Ry

     total magnetization       =    -0.00 Bohr mag/cell
     absolute magnetization    =    49.19 Bohr mag/cell

     iteration # 24     ecut=    71.00 Ry     beta= 0.10
     Davidson diagonalization with overlap
     ethr =  1.60E-08,  avg # of iterations =  2.9

     total cpu time spent up to now is    13590.9 secs

     total energy              =  -10536.25053880 Ry
     Harris-Foulkes estimate   =  -10536.25053221 Ry
     estimated scf accuracy    <       0.00008589 Ry

     total magnetization       =    -0.01 Bohr mag/cell
     absolute magnetization    =    49.27 Bohr mag/cell

     iteration # 25     ecut=    71.00 Ry     beta= 0.10
     Davidson diagonalization with overlap
     ethr =  1.60E-08,  avg # of iterations =  1.9

     total cpu time spent up to now is    14078.4 secs

     total energy              =  -10536.25055409 Ry
     Harris-Foulkes estimate   =  -10536.25055071 Ry
     estimated scf accuracy    <       0.00006564 Ry

     total magnetization       =    -0.00 Bohr mag/cell
     absolute magnetization    =    49.35 Bohr mag/cell

     iteration # 26     ecut=    71.00 Ry     beta= 0.10
     Davidson diagonalization with overlap
     ethr =  1.28E-08,  avg # of iterations =  2.8

     total cpu time spent up to now is    14649.0 secs

     total energy              =  -10536.25056252 Ry
     Harris-Foulkes estimate   =  -10536.25056182 Ry
     estimated scf accuracy    <       0.00001784 Ry

     total magnetization       =    -0.00 Bohr mag/cell
     absolute magnetization    =    49.42 Bohr mag/cell

     iteration # 27     ecut=    71.00 Ry     beta= 0.10
     Davidson diagonalization with overlap
     ethr =  3.48E-09,  avg # of iterations =  2.3

     total cpu time spent up to now is    15177.2 secs

     total energy              =  -10536.25056459 Ry
     Harris-Foulkes estimate   =  -10536.25056371 Ry
     estimated scf accuracy    <       0.00001618 Ry

     total magnetization       =    -0.00 Bohr mag/cell
     absolute magnetization    =    49.44 Bohr mag/cell

     iteration # 28     ecut=    71.00 Ry     beta= 0.10
     Davidson diagonalization with overlap
     ethr =  3.16E-09,  avg # of iterations =  1.0

     total cpu time spent up to now is    15585.9 secs

     total energy              =  -10536.25056773 Ry
     Harris-Foulkes estimate   =  -10536.25056510 Ry
     estimated scf accuracy    <       0.00001197 Ry

     total magnetization       =    -0.00 Bohr mag/cell
     absolute magnetization    =    49.45 Bohr mag/cell

     iteration # 29     ecut=    71.00 Ry     beta= 0.10
     Davidson diagonalization with overlap
     ethr =  2.34E-09,  avg # of iterations =  1.9

     total cpu time spent up to now is    16073.0 secs

     total energy              =  -10536.25057124 Ry
     Harris-Foulkes estimate   =  -10536.25056838 Ry
     estimated scf accuracy    <       0.00000865 Ry

     total magnetization       =    -0.00 Bohr mag/cell
     absolute magnetization    =    49.46 Bohr mag/cell

     iteration # 30     ecut=    71.00 Ry     beta= 0.10
     Davidson diagonalization with overlap
     ethr =  1.69E-09,  avg # of iterations =  2.5

     total cpu time spent up to now is    16611.5 secs

     total energy              =  -10536.25057219 Ry
     Harris-Foulkes estimate   =  -10536.25057197 Ry
     estimated scf accuracy    <       0.00000714 Ry

     total magnetization       =    -0.00 Bohr mag/cell
     absolute magnetization    =    49.48 Bohr mag/cell

     iteration # 31     ecut=    71.00 Ry     beta= 0.10
     Davidson diagonalization with overlap
     ethr =  1.39E-09,  avg # of iterations =  2.5

     total cpu time spent up to now is    17161.3 secs

     total energy              =  -10536.25057604 Ry
     Harris-Foulkes estimate   =  -10536.25057328 Ry
     estimated scf accuracy    <       0.00000603 Ry

     total magnetization       =    -0.00 Bohr mag/cell
     absolute magnetization    =    49.50 Bohr mag/cell

     iteration # 32     ecut=    71.00 Ry     beta= 0.10
     Davidson diagonalization with overlap
     ethr =  1.18E-09,  avg # of iterations =  3.0

     total cpu time spent up to now is    17818.2 secs

     total energy              =  -10536.25057758 Ry
     Harris-Foulkes estimate   =  -10536.25057736 Ry
     estimated scf accuracy    <       0.00000155 Ry

     total magnetization       =    -0.00 Bohr mag/cell
     absolute magnetization    =    49.53 Bohr mag/cell

     iteration # 33     ecut=    71.00 Ry     beta= 0.10
     Davidson diagonalization with overlap
     ethr =  3.03E-10,  avg # of iterations =  1.9
 
     Magnetic moment per site:
     atom:    1    charge:   14.3915    magn:    1.4901    constr:    0.0000
     atom:    2    charge:   14.3916    magn:   -1.4902    constr:    0.0000
     atom:    3    charge:   14.3910    magn:    1.4929    constr:    0.0000
     atom:    4    charge:   14.3916    magn:   -1.4943    constr:    0.0000
     atom:    5    charge:   14.3913    magn:    1.4911    constr:    0.0000
     atom:    6    charge:   14.3917    magn:   -1.4895    constr:    0.0000
     atom:    7    charge:   14.3910    magn:    1.4929    constr:    0.0000
     atom:    8    charge:   14.3916    magn:   -1.4943    constr:    0.0000
     atom:    9    charge:   14.3914    magn:    1.4909    constr:    0.0000
     atom:   10    charge:   14.3916    magn:   -1.4902    constr:    0.0000
     atom:   11    charge:   14.3912    magn:    1.4924    constr:    0.0000
     atom:   12    charge:   14.3916    magn:   -1.4943    constr:    0.0000
     atom:   13    charge:   14.3913    magn:    1.4915    constr:    0.0000
     atom:   14    charge:   14.3917    magn:   -1.4895    constr:    0.0000
     atom:   15    charge:   14.3912    magn:    1.4924    constr:    0.0000
     atom:   16    charge:   14.3916    magn:   -1.4943    constr:    0.0000
     atom:   17    charge:   14.3912    magn:    1.4914    constr:    0.0000
     atom:   18    charge:   14.3916    magn:   -1.4902    constr:    0.0000
     atom:   19    charge:   14.3910    magn:    1.4929    constr:    0.0000
     atom:   20    charge:   14.3916    magn:   -1.4934    constr:    0.0000
     atom:   21    charge:   14.3914    magn:    1.4917    constr:    0.0000
     atom:   22    charge:   14.3917    magn:   -1.4895    constr:    0.0000
     atom:   23    charge:   14.3910    magn:    1.4929    constr:    0.0000
     atom:   24    charge:   14.3916    magn:   -1.4934    constr:    0.0000
     atom:   25    charge:   14.3915    magn:    1.4903    constr:    0.0000
     atom:   26    charge:   14.3916    magn:   -1.4902    constr:    0.0000
     atom:   27    charge:   14.3912    magn:    1.4924    constr:    0.0000
     atom:   28    charge:   14.3916    magn:   -1.4934    constr:    0.0000
     atom:   29    charge:   14.3915    magn:    1.4904    constr:    0.0000
     atom:   30    charge:   14.3917    magn:   -1.4895    constr:    0.0000
     atom:   31    charge:   14.3912    magn:    1.4924    constr:    0.0000
     atom:   32    charge:   14.3916    magn:   -1.4934    constr:    0.0000

     total cpu time spent up to now is    18296.2 secs

     End of self-consistent calculation

     Number of k-points >= 100: set verbosity='high' to print the bands.

     the Fermi energy is    20.1180 ev

!    total energy              =  -10536.25057822 Ry
     Harris-Foulkes estimate   =  -10536.25057766 Ry
     estimated scf accuracy    <       0.00000098 Ry

     total all-electron energy =    -81457.739636 Ry

     The total energy is the sum of the following terms:

     one-electron contribution =   -3292.37660185 Ry
     hartree contribution      =    1996.51507691 Ry
     xc contribution           =    -886.95691387 Ry
     ewald contribution        =   -5703.88578028 Ry
     one-center paw contrib.   =   -2649.56089423 Ry
     smearing contrib. (-TS)   =       0.01453510 Ry

     total magnetization       =    -0.00 Bohr mag/cell
     absolute magnetization    =    49.53 Bohr mag/cell

     convergence has been achieved in  33 iterations

     Forces acting on atoms (cartesian axes, Ry/au):

     atom    1 type  1   force =     0.00000000    0.00000000    0.00000000
     atom    2 type  2   force =     0.00002231    0.00001247    0.00000000
     atom    3 type  3   force =     0.00007772    0.00000000   -0.00000964
     atom    4 type  4   force =     0.00000000   -0.00005522   -0.00003551
     atom    5 type  1   force =     0.00000000    0.00000000    0.00000000
     atom    6 type  2   force =     0.00004554   -0.00001718    0.00000000
     atom    7 type  3   force =     0.00007772   -0.00000000    0.00000964
     atom    8 type  4   force =     0.00000000   -0.00005522    0.00003551
     atom    9 type  1   force =     0.00000000    0.00000000    0.00000000
     atom   10 type  2   force =     0.00002231   -0.00001247    0.00000000
     atom   11 type  3   force =     0.00005716    0.00000000   -0.00000504
     atom   12 type  4   force =     0.00000000    0.00005522   -0.00003551
     atom   13 type  1   force =     0.00000000    0.00000000    0.00000000
     atom   14 type  2   force =     0.00004554    0.00001718    0.00000000
     atom   15 type  3   force =     0.00005716    0.00000000    0.00000504
     atom   16 type  4   force =     0.00000000    0.00005522    0.00003551
     atom   17 type  1   force =     0.00000000    0.00000000    0.00000000
     atom   18 type  2   force =    -0.00002231    0.00001247    0.00000000
     atom   19 type  3   force =    -0.00007772   -0.00000000   -0.00000964
     atom   20 type  4   force =     0.00000000    0.00001226   -0.00001183
     atom   21 type  1   force =     0.00000000    0.00000000    0.00000000
     atom   22 type  2   force =    -0.00004554   -0.00001718    0.00000000
     atom   23 type  3   force =    -0.00007772    0.00000000    0.00000964
     atom   24 type  4   force =     0.00000000    0.00001226    0.00001183
     atom   25 type  1   force =     0.00000000    0.00000000    0.00000000
     atom   26 type  2   force =    -0.00002231   -0.00001247    0.00000000
     atom   27 type  3   force =    -0.00005716    0.00000000   -0.00000504
     atom   28 type  4   force =     0.00000000   -0.00001226   -0.00001183
     atom   29 type  1   force =     0.00000000    0.00000000    0.00000000
     atom   30 type  2   force =    -0.00004554    0.00001718    0.00000000
     atom   31 type  3   force =    -0.00005716    0.00000000    0.00000504
     atom   32 type  4   force =     0.00000000   -0.00001226    0.00001183

     Total force =     0.000261     Total SCF correction =     0.003734
     SCF correction compared to forces is large: reduce conv_thr to get better values


     Computing stress (Cartesian axis) and pressure

          total   stress  (Ry/bohr**3)                   (kbar)     P=    0.84
   0.00000600   0.00000000   0.00000000          0.88      0.00      0.00
   0.00000000   0.00000500   0.00000000          0.00      0.74      0.00
   0.00000000   0.00000000   0.00000609          0.00      0.00      0.90


     Writing output data file TNDQejREhLmtVFbb.save/
 
     init_run     :    149.38s CPU    153.09s WALL (       1 calls)
     electrons    :  17893.52s CPU  18140.06s WALL (       1 calls)
     forces       :     68.56s CPU     70.45s WALL (       1 calls)
     stress       :    627.24s CPU    629.45s WALL (       1 calls)

     Called by init_run:
     wfcinit      :    147.12s CPU    150.72s WALL (       1 calls)
     potinit      :      1.00s CPU      1.02s WALL (       1 calls)
     hinit0       :      0.65s CPU      0.66s WALL (       1 calls)

     Called by electrons:
     c_bands      :  16336.29s CPU  16543.16s WALL (      34 calls)
     sum_band     :   1526.13s CPU   1564.19s WALL (      34 calls)
     v_of_rho     :      2.14s CPU      2.38s WALL (      34 calls)
     newd         :      8.18s CPU      9.03s WALL (      34 calls)
     PAW_pot      :     20.67s CPU     21.11s WALL (      34 calls)
     mix_rho      :      0.69s CPU      0.73s WALL (      34 calls)

     Called by c_bands:
     init_us_2    :     96.17s CPU     96.51s WALL (   17750 calls)
     cegterg      :  15844.30s CPU  16048.76s WALL (    8500 calls)

     Called by sum_band:
     sum_band:bec :     17.51s CPU     17.61s WALL (    8500 calls)
     addusdens    :     15.29s CPU     16.53s WALL (      34 calls)

     Called by *egterg:
     h_psi        :   5936.44s CPU   6063.90s WALL (   27448 calls)
     s_psi        :    874.97s CPU    877.04s WALL (   27448 calls)
     g_psi        :     25.59s CPU     25.73s WALL (   18698 calls)
     cdiaghg      :   6305.32s CPU   6319.12s WALL (   26948 calls)

     Called by h_psi:
     h_psi:pot    :   5881.32s CPU   6008.22s WALL (   27448 calls)
     h_psi:calbec :    944.33s CPU    980.46s WALL (   27448 calls)
     vloc_psi     :   4058.48s CPU   4146.69s WALL (   27448 calls)
     add_vuspsi   :    878.18s CPU    880.85s WALL (   27448 calls)

     General routines
     calbec       :   1440.82s CPU   1495.60s WALL (   37198 calls)
     fft          :      1.52s CPU      1.69s WALL (     892 calls)
     ffts         :      0.18s CPU      0.19s WALL (     136 calls)
     fftw         :   4636.07s CPU   4733.51s WALL (13703538 calls)
     interpolate  :      0.20s CPU      0.21s WALL (      68 calls)
 
     Parallel routines
     fft_scatt_xy :    464.34s CPU    474.24s WALL (13704566 calls)
     fft_scatt_yz :   2238.75s CPU   2290.52s WALL (13704566 calls)
 
     PWSCF        :     5h12m CPU       12h 5m WALL

      19h
 
   This run was terminated on:   5:32:23  27Jun2020            

=------------------------------------------------------------------------------=
   JOB DONE.
=------------------------------------------------------------------------------=
