--------------------------------------------------------------------------
WARNING: No preset parameters were found for the device that Open MPI
detected:

  Local host:            bear-pg0206u26a
  Device name:           mlx5_0
  Device vendor ID:      0x02c9
  Device vendor part ID: 4123

Default device parameters will be used, which may result in lower
performance.  You can edit any of the files specified by the
btl_openib_device_param_files MCA parameter to set values for your
device.

NOTE: You can turn off this warning by setting the MCA parameter
      btl_openib_warn_no_device_params_found to 0.
--------------------------------------------------------------------------
--------------------------------------------------------------------------
WARNING: There was an error initializing an OpenFabrics device.

  Local host:   bear-pg0206u26a
  Local device: mlx5_0
--------------------------------------------------------------------------

     Program PWSCF v.6.3 starts on  2Nov2020 at  4:51: 4 

     This program is part of the open-source Quantum ESPRESSO suite
     for quantum simulation of materials; please cite
         "P. Giannozzi et al., J. Phys.:Condens. Matter 21 395502 (2009);
         "P. Giannozzi et al., J. Phys.:Condens. Matter 29 465901 (2017);
          URL http://www.quantum-espresso.org", 
     in publications or presentations arising from this work. More details at
     http://www.quantum-espresso.org/quote

     Parallel version (MPI & OpenMP), running on      40 processor cores
     Number of MPI processes:                40
     Threads/MPI process:                     1

     MPI processes distributed on     1 nodes
     R & G space division:  proc/nbgrp/npool/nimage =      40
     Reading input from wd/ec/ec_1_005.in
Warning: card &IONS ignored
Warning: card ION_DYNAMICS = 'BFGS', ignored
Warning: card / ignored
Warning: card &CELL ignored
Warning: card CELL_DYNAMICS = 'BFGS', ignored
Warning: card CELL_FACTOR = 2.0, ignored
Warning: card PRESS = 0.0, ignored
Warning: card / ignored

     Current dimensions of program PWSCF are:
     Max number of different atomic species (ntypx) = 10
     Max number of k-points (npk) =  40000
     Max angular momentum in pseudopotentials (lmaxx) =  3
               file Fe.pbe-spn-kjpaw_psl.1.0.0.UPF: wavefunction(s)  3P 3D renormalized
               file Fe.pbe-spn-kjpaw_psl.1.0.0.UPF: wavefunction(s)  3P 3D renormalized

     Subspace diagonalization in iterative solution of the eigenvalue problem:
     a serial algorithm will be used

     Found symmetry operation: I + (  0.0000  0.0000 -0.5000)
     This is a supercell, fractional translations are disabled
 
     Parallelization info
     --------------------
     sticks:   dense  smooth     PW     G-vecs:    dense   smooth      PW
     Min          96      63     17                 4484     2407     357
     Max          97      64     18                 4487     2412     362
     Sum        3851    2553    717               179407    96409   14371
 


     bravais-lattice index     =            0
     lattice parameter (alat)  =      10.5935  a.u.
     unit-cell volume          =    1192.0031 (a.u.)^3
     number of atoms/cell      =           16
     number of atomic types    =            2
     number of electrons       =       256.00
     number of Kohn-Sham states=          154
     kinetic-energy cutoff     =      71.0000  Ry
     charge density cutoff     =     430.0000  Ry
     convergence threshold     =      1.0E-06
     mixing beta               =       0.1000
     number of iterations used =           10  plain     mixing
     Exchange-correlation      = SLA PW PBX PBC ( 1  4  3  4 0 0)

     celldm(1)=  10.593520  celldm(2)=   0.000000  celldm(3)=   0.000000
     celldm(4)=   0.000000  celldm(5)=   0.000000  celldm(6)=   0.000000

     crystal axes: (cart. coord. in units of alat)
               a(1) = (   1.002667   0.000000   0.000000 )  
               a(2) = (   0.000000   1.000000   0.000000 )  
               a(3) = (   0.000000   0.000000   1.000000 )  

     reciprocal axes: (cart. coord. in units 2 pi/alat)
               b(1) = (  0.997340  0.000000  0.000000 )  
               b(2) = (  0.000000  1.000000  0.000000 )  
               b(3) = (  0.000000  0.000000  1.000000 )  


     PseudoPot. # 1 for Fe read from file:
     /rds/homes/b/bxp912/pp/Fe.pbe-spn-kjpaw_psl.1.0.0.UPF
     MD5 check sum: 42f43b795421b414b0dc916aa790dbcb
     Pseudo is Projector augmented-wave + core cor, Zval = 16.0
     Generated using "atomic" code by A. Dal Corso v.6.3
     Shape of augmentation charge: PSQ
     Using radial grid of 1191 points,  6 beta functions with: 
                l(1) =   0
                l(2) =   0
                l(3) =   1
                l(4) =   1
                l(5) =   2
                l(6) =   2
     Q(r) pseudized with 0 coefficients 


     PseudoPot. # 2 for Fe read from file:
     /rds/homes/b/bxp912/pp/Fe.pbe-spn-kjpaw_psl.1.0.0.UPF
     MD5 check sum: 42f43b795421b414b0dc916aa790dbcb
     Pseudo is Projector augmented-wave + core cor, Zval = 16.0
     Generated using "atomic" code by A. Dal Corso v.6.3
     Shape of augmentation charge: PSQ
     Using radial grid of 1191 points,  6 beta functions with: 
                l(1) =   0
                l(2) =   0
                l(3) =   1
                l(4) =   1
                l(5) =   2
                l(6) =   2
     Q(r) pseudized with 0 coefficients 


     atomic species   valence    mass     pseudopotential
        Fe1           16.00    55.84500     Fe( 1.00)
        Fe2           16.00    55.84500     Fe( 1.00)

     Starting magnetic structure 
     atomic species   magnetization
        Fe1          0.100
        Fe2          0.100

     16 Sym. Ops., with inversion, found



   Cartesian axes

     site n.     atom                  positions (alat units)
         1           Fe1 tau(   1) = (   0.0000000   0.0000000   0.0000000  )
         2           Fe2 tau(   2) = (   0.2506671   0.2500004   0.2500004  )
         3           Fe1 tau(   3) = (   0.0000000   0.0000000   0.5000000  )
         4           Fe2 tau(   4) = (   0.2506671   0.2500004   0.7499996  )
         5           Fe1 tau(   5) = (   0.0000000   0.5000000   0.0000000  )
         6           Fe2 tau(   6) = (   0.2506671   0.7499996   0.2500004  )
         7           Fe1 tau(   7) = (   0.0000000   0.5000000   0.5000000  )
         8           Fe2 tau(   8) = (   0.2506671   0.7499996   0.7499996  )
         9           Fe1 tau(   9) = (   0.5013333   0.0000000   0.0000000  )
        10           Fe2 tau(  10) = (   0.7519996   0.2500004   0.2500004  )
        11           Fe1 tau(  11) = (   0.5013333   0.0000000   0.5000000  )
        12           Fe2 tau(  12) = (   0.7519996   0.2500004   0.7499996  )
        13           Fe1 tau(  13) = (   0.5013333   0.5000000   0.0000000  )
        14           Fe2 tau(  14) = (   0.7519996   0.7499996   0.2500004  )
        15           Fe1 tau(  15) = (   0.5013333   0.5000000   0.5000000  )
        16           Fe2 tau(  16) = (   0.7519996   0.7499996   0.7499996  )

     number of k points=    75  Marzari-Vanderbilt smearing, width (Ry)=  0.0400
                       cart. coord. in units 2pi/alat
        k(    1) = (   0.0554078   0.0555556   0.0555556), wk =   0.0109739
        k(    2) = (   0.0554078   0.0555556   0.1666667), wk =   0.0219479
        k(    3) = (   0.0554078   0.0555556   0.2777778), wk =   0.0219479
        k(    4) = (   0.0554078   0.0555556   0.3888889), wk =   0.0219479
        k(    5) = (   0.0554078   0.0555556  -0.5000000), wk =   0.0109739
        k(    6) = (   0.0554078   0.1666667   0.1666667), wk =   0.0109739
        k(    7) = (   0.0554078   0.1666667   0.2777778), wk =   0.0219479
        k(    8) = (   0.0554078   0.1666667   0.3888889), wk =   0.0219479
        k(    9) = (   0.0554078   0.1666667  -0.5000000), wk =   0.0109739
        k(   10) = (   0.0554078   0.2777778   0.2777778), wk =   0.0109739
        k(   11) = (   0.0554078   0.2777778   0.3888889), wk =   0.0219479
        k(   12) = (   0.0554078   0.2777778  -0.5000000), wk =   0.0109739
        k(   13) = (   0.0554078   0.3888889   0.3888889), wk =   0.0109739
        k(   14) = (   0.0554078   0.3888889  -0.5000000), wk =   0.0109739
        k(   15) = (   0.0554078  -0.5000000  -0.5000000), wk =   0.0027435
        k(   16) = (   0.1662234   0.0555556   0.0555556), wk =   0.0109739
        k(   17) = (   0.1662234   0.0555556   0.1666667), wk =   0.0219479
        k(   18) = (   0.1662234   0.0555556   0.2777778), wk =   0.0219479
        k(   19) = (   0.1662234   0.0555556   0.3888889), wk =   0.0219479
        k(   20) = (   0.1662234   0.0555556  -0.5000000), wk =   0.0109739
        k(   21) = (   0.1662234   0.1666667   0.1666667), wk =   0.0109739
        k(   22) = (   0.1662234   0.1666667   0.2777778), wk =   0.0219479
        k(   23) = (   0.1662234   0.1666667   0.3888889), wk =   0.0219479
        k(   24) = (   0.1662234   0.1666667  -0.5000000), wk =   0.0109739
        k(   25) = (   0.1662234   0.2777778   0.2777778), wk =   0.0109739
        k(   26) = (   0.1662234   0.2777778   0.3888889), wk =   0.0219479
        k(   27) = (   0.1662234   0.2777778  -0.5000000), wk =   0.0109739
        k(   28) = (   0.1662234   0.3888889   0.3888889), wk =   0.0109739
        k(   29) = (   0.1662234   0.3888889  -0.5000000), wk =   0.0109739
        k(   30) = (   0.1662234  -0.5000000  -0.5000000), wk =   0.0027435
        k(   31) = (   0.2770390   0.0555556   0.0555556), wk =   0.0109739
        k(   32) = (   0.2770390   0.0555556   0.1666667), wk =   0.0219479
        k(   33) = (   0.2770390   0.0555556   0.2777778), wk =   0.0219479
        k(   34) = (   0.2770390   0.0555556   0.3888889), wk =   0.0219479
        k(   35) = (   0.2770390   0.0555556  -0.5000000), wk =   0.0109739
        k(   36) = (   0.2770390   0.1666667   0.1666667), wk =   0.0109739
        k(   37) = (   0.2770390   0.1666667   0.2777778), wk =   0.0219479
        k(   38) = (   0.2770390   0.1666667   0.3888889), wk =   0.0219479
        k(   39) = (   0.2770390   0.1666667  -0.5000000), wk =   0.0109739
        k(   40) = (   0.2770390   0.2777778   0.2777778), wk =   0.0109739
        k(   41) = (   0.2770390   0.2777778   0.3888889), wk =   0.0219479
        k(   42) = (   0.2770390   0.2777778  -0.5000000), wk =   0.0109739
        k(   43) = (   0.2770390   0.3888889   0.3888889), wk =   0.0109739
        k(   44) = (   0.2770390   0.3888889  -0.5000000), wk =   0.0109739
        k(   45) = (   0.2770390  -0.5000000  -0.5000000), wk =   0.0027435
        k(   46) = (   0.3878546   0.0555556   0.0555556), wk =   0.0109739
        k(   47) = (   0.3878546   0.0555556   0.1666667), wk =   0.0219479
        k(   48) = (   0.3878546   0.0555556   0.2777778), wk =   0.0219479
        k(   49) = (   0.3878546   0.0555556   0.3888889), wk =   0.0219479
        k(   50) = (   0.3878546   0.0555556  -0.5000000), wk =   0.0109739
        k(   51) = (   0.3878546   0.1666667   0.1666667), wk =   0.0109739
        k(   52) = (   0.3878546   0.1666667   0.2777778), wk =   0.0219479
        k(   53) = (   0.3878546   0.1666667   0.3888889), wk =   0.0219479
        k(   54) = (   0.3878546   0.1666667  -0.5000000), wk =   0.0109739
        k(   55) = (   0.3878546   0.2777778   0.2777778), wk =   0.0109739
        k(   56) = (   0.3878546   0.2777778   0.3888889), wk =   0.0219479
        k(   57) = (   0.3878546   0.2777778  -0.5000000), wk =   0.0109739
        k(   58) = (   0.3878546   0.3888889   0.3888889), wk =   0.0109739
        k(   59) = (   0.3878546   0.3888889  -0.5000000), wk =   0.0109739
        k(   60) = (   0.3878546  -0.5000000  -0.5000000), wk =   0.0027435
        k(   61) = (  -0.4986702   0.0555556   0.0555556), wk =   0.0054870
        k(   62) = (  -0.4986702   0.0555556   0.1666667), wk =   0.0109739
        k(   63) = (  -0.4986702   0.0555556   0.2777778), wk =   0.0109739
        k(   64) = (  -0.4986702   0.0555556   0.3888889), wk =   0.0109739
        k(   65) = (  -0.4986702   0.0555556  -0.5000000), wk =   0.0054870
        k(   66) = (  -0.4986702   0.1666667   0.1666667), wk =   0.0054870
        k(   67) = (  -0.4986702   0.1666667   0.2777778), wk =   0.0109739
        k(   68) = (  -0.4986702   0.1666667   0.3888889), wk =   0.0109739
        k(   69) = (  -0.4986702   0.1666667  -0.5000000), wk =   0.0054870
        k(   70) = (  -0.4986702   0.2777778   0.2777778), wk =   0.0054870
        k(   71) = (  -0.4986702   0.2777778   0.3888889), wk =   0.0109739
        k(   72) = (  -0.4986702   0.2777778  -0.5000000), wk =   0.0054870
        k(   73) = (  -0.4986702   0.3888889   0.3888889), wk =   0.0054870
        k(   74) = (  -0.4986702   0.3888889  -0.5000000), wk =   0.0054870
        k(   75) = (  -0.4986702  -0.5000000  -0.5000000), wk =   0.0013717

     Dense  grid:   179407 G-vectors     FFT dimensions: (  72,  72,  72)

     Smooth grid:    96409 G-vectors     FFT dimensions: (  60,  60,  60)

     Estimated max dynamical RAM per process >     145.28 MB

     Estimated total dynamical RAM >       5.67 GB
     Generating pointlists ...
     new r_m :   0.1788 (alat units)  1.8939 (a.u.) for type    1
     new r_m :   0.1788 (alat units)  1.8939 (a.u.) for type    2

     Check: negative/imaginary core charge=   -0.000006    0.000000

     Initial potential from superposition of free atoms

     starting charge  255.99300, renormalised to  256.00000
     Starting wfcs are  160 randomized atomic wfcs
     Checking if some PAW data can be deallocated... 

     total cpu time spent up to now is       15.3 secs

     Self-consistent Calculation

     iteration #  1     ecut=    71.00 Ry     beta= 0.10
     Davidson diagonalization with overlap
     ethr =  1.00E-02,  avg # of iterations =  3.4

     Threshold (ethr) on eigenvalues was too large:
     Diagonalizing with lowered threshold

     Davidson diagonalization with overlap
     ethr =  2.79E-04,  avg # of iterations =  3.4

     total cpu time spent up to now is      127.7 secs

     total energy              =   -5268.16564182 Ry
     Harris-Foulkes estimate   =   -5268.30998432 Ry
     estimated scf accuracy    <       0.80949152 Ry

     total magnetization       =    28.06 Bohr mag/cell
     absolute magnetization    =    28.41 Bohr mag/cell

     iteration #  2     ecut=    71.00 Ry     beta= 0.10
     Davidson diagonalization with overlap
     ethr =  3.16E-04,  avg # of iterations =  1.0

     total cpu time spent up to now is      161.2 secs

     total energy              =   -5268.05146395 Ry
     Harris-Foulkes estimate   =   -5268.18322783 Ry
     estimated scf accuracy    <       0.48151299 Ry

     total magnetization       =    28.70 Bohr mag/cell
     absolute magnetization    =    28.98 Bohr mag/cell

     iteration #  3     ecut=    71.00 Ry     beta= 0.10
     Davidson diagonalization with overlap
     ethr =  1.88E-04,  avg # of iterations =  2.7

     total cpu time spent up to now is      208.8 secs

     total energy              =   -5268.04246880 Ry
     Harris-Foulkes estimate   =   -5268.10414996 Ry
     estimated scf accuracy    <       0.55820710 Ry

     total magnetization       =    29.53 Bohr mag/cell
     absolute magnetization    =    29.87 Bohr mag/cell

     iteration #  4     ecut=    71.00 Ry     beta= 0.10
     Davidson diagonalization with overlap
     ethr =  1.88E-04,  avg # of iterations =  1.3

     total cpu time spent up to now is      244.6 secs

     total energy              =   -5268.06941950 Ry
     Harris-Foulkes estimate   =   -5268.07164910 Ry
     estimated scf accuracy    <       0.15804962 Ry

     total magnetization       =    30.26 Bohr mag/cell
     absolute magnetization    =    30.62 Bohr mag/cell

     iteration #  5     ecut=    71.00 Ry     beta= 0.10
     Davidson diagonalization with overlap
     ethr =  6.17E-05,  avg # of iterations =  1.4

     total cpu time spent up to now is      280.8 secs

     total energy              =   -5268.08988929 Ry
     Harris-Foulkes estimate   =   -5268.07295594 Ry
     estimated scf accuracy    <       0.11223828 Ry

     total magnetization       =    30.34 Bohr mag/cell
     absolute magnetization    =    30.73 Bohr mag/cell

     iteration #  6     ecut=    71.00 Ry     beta= 0.10
     Davidson diagonalization with overlap
     ethr =  4.38E-05,  avg # of iterations =  3.1

     total cpu time spent up to now is      341.9 secs

     total energy              =   -5268.14828282 Ry
     Harris-Foulkes estimate   =   -5268.13256661 Ry
     estimated scf accuracy    <       0.14838077 Ry

     total magnetization       =    30.98 Bohr mag/cell
     absolute magnetization    =    31.70 Bohr mag/cell

     iteration #  7     ecut=    71.00 Ry     beta= 0.10
     Davidson diagonalization with overlap
     ethr =  4.38E-05,  avg # of iterations =  2.0

     total cpu time spent up to now is      384.5 secs

     total energy              =   -5268.15301751 Ry
     Harris-Foulkes estimate   =   -5268.15528445 Ry
     estimated scf accuracy    <       0.10734696 Ry

     total magnetization       =    31.47 Bohr mag/cell
     absolute magnetization    =    32.38 Bohr mag/cell

     iteration #  8     ecut=    71.00 Ry     beta= 0.10
     Davidson diagonalization with overlap
     ethr =  4.19E-05,  avg # of iterations =  1.0

     negative rho (up, down):  0.000E+00 2.237E-03

     total cpu time spent up to now is      417.8 secs

     total energy              =   -5268.16834125 Ry
     Harris-Foulkes estimate   =   -5268.15413341 Ry
     estimated scf accuracy    <       0.08262106 Ry

     total magnetization       =    31.59 Bohr mag/cell
     absolute magnetization    =    32.56 Bohr mag/cell

     iteration #  9     ecut=    71.00 Ry     beta= 0.10
     Davidson diagonalization with overlap
     ethr =  3.23E-05,  avg # of iterations =  2.7

     negative rho (up, down):  0.000E+00 2.346E-03

     total cpu time spent up to now is      473.5 secs

     total energy              =   -5268.19116147 Ry
     Harris-Foulkes estimate   =   -5268.19324178 Ry
     estimated scf accuracy    <       0.02402798 Ry

     total magnetization       =    32.51 Bohr mag/cell
     absolute magnetization    =    34.00 Bohr mag/cell

     iteration # 10     ecut=    71.00 Ry     beta= 0.10
     Davidson diagonalization with overlap
     ethr =  9.39E-06,  avg # of iterations =  1.4

     negative rho (up, down):  0.000E+00 2.480E-03

     total cpu time spent up to now is      509.8 secs

     total energy              =   -5268.18927015 Ry
     Harris-Foulkes estimate   =   -5268.19155299 Ry
     estimated scf accuracy    <       0.01033139 Ry

     total magnetization       =    32.59 Bohr mag/cell
     absolute magnetization    =    34.12 Bohr mag/cell

     iteration # 11     ecut=    71.00 Ry     beta= 0.10
     Davidson diagonalization with overlap
     ethr =  4.04E-06,  avg # of iterations =  2.3

     negative rho (up, down):  0.000E+00 2.584E-03

     total cpu time spent up to now is      553.8 secs

     total energy              =   -5268.18953735 Ry
     Harris-Foulkes estimate   =   -5268.18978221 Ry
     estimated scf accuracy    <       0.00130556 Ry

     total magnetization       =    32.70 Bohr mag/cell
     absolute magnetization    =    34.33 Bohr mag/cell

     iteration # 12     ecut=    71.00 Ry     beta= 0.10
     Davidson diagonalization with overlap
     ethr =  5.10E-07,  avg # of iterations =  2.5

     negative rho (up, down):  0.000E+00 2.653E-03

     total cpu time spent up to now is      598.7 secs

     total energy              =   -5268.18959758 Ry
     Harris-Foulkes estimate   =   -5268.18961812 Ry
     estimated scf accuracy    <       0.00062589 Ry

     total magnetization       =    32.75 Bohr mag/cell
     absolute magnetization    =    34.42 Bohr mag/cell

     iteration # 13     ecut=    71.00 Ry     beta= 0.10
     Davidson diagonalization with overlap
     ethr =  2.44E-07,  avg # of iterations =  3.0

     negative rho (up, down):  0.000E+00 2.462E-03

     total cpu time spent up to now is      650.9 secs

     total energy              =   -5268.19000508 Ry
     Harris-Foulkes estimate   =   -5268.18968946 Ry
     estimated scf accuracy    <       0.00087397 Ry

     total magnetization       =    32.81 Bohr mag/cell
     absolute magnetization    =    34.53 Bohr mag/cell

     iteration # 14     ecut=    71.00 Ry     beta= 0.10
     Davidson diagonalization with overlap
     ethr =  2.44E-07,  avg # of iterations =  3.1

     negative rho (up, down):  0.000E+00 2.466E-03

     total cpu time spent up to now is      707.9 secs

     total energy              =   -5268.19024338 Ry
     Harris-Foulkes estimate   =   -5268.19018638 Ry
     estimated scf accuracy    <       0.00035102 Ry

     total magnetization       =    32.82 Bohr mag/cell
     absolute magnetization    =    34.55 Bohr mag/cell

     iteration # 15     ecut=    71.00 Ry     beta= 0.10
     Davidson diagonalization with overlap
     ethr =  1.37E-07,  avg # of iterations =  1.3

     negative rho (up, down):  0.000E+00 2.483E-03

     total cpu time spent up to now is      743.3 secs

     total energy              =   -5268.19027357 Ry
     Harris-Foulkes estimate   =   -5268.19026360 Ry
     estimated scf accuracy    <       0.00011391 Ry

     total magnetization       =    32.85 Bohr mag/cell
     absolute magnetization    =    34.59 Bohr mag/cell

     iteration # 16     ecut=    71.00 Ry     beta= 0.10
     Davidson diagonalization with overlap
     ethr =  4.45E-08,  avg # of iterations =  2.3

     negative rho (up, down):  0.000E+00 2.391E-03

     total cpu time spent up to now is      790.3 secs

     total energy              =   -5268.19031038 Ry
     Harris-Foulkes estimate   =   -5268.19028817 Ry
     estimated scf accuracy    <       0.00006870 Ry

     total magnetization       =    32.88 Bohr mag/cell
     absolute magnetization    =    34.64 Bohr mag/cell

     iteration # 17     ecut=    71.00 Ry     beta= 0.10
     Davidson diagonalization with overlap
     ethr =  2.68E-08,  avg # of iterations =  2.6

     negative rho (up, down):  0.000E+00 2.400E-03

     total cpu time spent up to now is      842.8 secs

     total energy              =   -5268.19034661 Ry
     Harris-Foulkes estimate   =   -5268.19033568 Ry
     estimated scf accuracy    <       0.00004586 Ry

     total magnetization       =    32.89 Bohr mag/cell
     absolute magnetization    =    34.65 Bohr mag/cell

     iteration # 18     ecut=    71.00 Ry     beta= 0.10
     Davidson diagonalization with overlap
     ethr =  1.79E-08,  avg # of iterations =  1.6

     negative rho (up, down):  0.000E+00 2.469E-03

     total cpu time spent up to now is      883.1 secs

     total energy              =   -5268.19034462 Ry
     Harris-Foulkes estimate   =   -5268.19034898 Ry
     estimated scf accuracy    <       0.00002942 Ry

     total magnetization       =    32.90 Bohr mag/cell
     absolute magnetization    =    34.67 Bohr mag/cell

     iteration # 19     ecut=    71.00 Ry     beta= 0.10
     Davidson diagonalization with overlap
     ethr =  1.15E-08,  avg # of iterations =  3.3

     negative rho (up, down):  0.000E+00 2.469E-03

     total cpu time spent up to now is      942.3 secs

     total energy              =   -5268.19035850 Ry
     Harris-Foulkes estimate   =   -5268.19035525 Ry
     estimated scf accuracy    <       0.00000854 Ry

     total magnetization       =    32.93 Bohr mag/cell
     absolute magnetization    =    34.71 Bohr mag/cell

     iteration # 20     ecut=    71.00 Ry     beta= 0.10
     Davidson diagonalization with overlap
     ethr =  3.34E-09,  avg # of iterations =  1.0

     negative rho (up, down):  0.000E+00 2.473E-03

     total cpu time spent up to now is      975.7 secs

     total energy              =   -5268.19036057 Ry
     Harris-Foulkes estimate   =   -5268.19035896 Ry
     estimated scf accuracy    <       0.00000454 Ry

     total magnetization       =    32.94 Bohr mag/cell
     absolute magnetization    =    34.72 Bohr mag/cell

     iteration # 21     ecut=    71.00 Ry     beta= 0.10
     Davidson diagonalization with overlap
     ethr =  1.77E-09,  avg # of iterations =  2.1

     negative rho (up, down):  0.000E+00 2.472E-03

     total cpu time spent up to now is     1016.2 secs

     total energy              =   -5268.19036203 Ry
     Harris-Foulkes estimate   =   -5268.19036084 Ry
     estimated scf accuracy    <       0.00000341 Ry

     total magnetization       =    32.94 Bohr mag/cell
     absolute magnetization    =    34.72 Bohr mag/cell

     iteration # 22     ecut=    71.00 Ry     beta= 0.10
     Davidson diagonalization with overlap
     ethr =  1.33E-09,  avg # of iterations =  1.1

     negative rho (up, down):  0.000E+00 2.466E-03

     total cpu time spent up to now is     1049.8 secs

     total energy              =   -5268.19036378 Ry
     Harris-Foulkes estimate   =   -5268.19036222 Ry
     estimated scf accuracy    <       0.00000339 Ry

     total magnetization       =    32.94 Bohr mag/cell
     absolute magnetization    =    34.72 Bohr mag/cell

     iteration # 23     ecut=    71.00 Ry     beta= 0.10
     Davidson diagonalization with overlap
     ethr =  1.32E-09,  avg # of iterations =  2.8

     negative rho (up, down):  0.000E+00 2.478E-03
 
     Magnetic moment per site:
     atom:    1    charge:   14.3685    magn:    2.1026    constr:    0.0000
     atom:    2    charge:   14.3685    magn:    2.1051    constr:    0.0000
     atom:    3    charge:   14.3688    magn:    2.1035    constr:    0.0000
     atom:    4    charge:   14.3685    magn:    2.1051    constr:    0.0000
     atom:    5    charge:   14.3688    magn:    2.1035    constr:    0.0000
     atom:    6    charge:   14.3685    magn:    2.1051    constr:    0.0000
     atom:    7    charge:   14.3688    magn:    2.1041    constr:    0.0000
     atom:    8    charge:   14.3685    magn:    2.1051    constr:    0.0000
     atom:    9    charge:   14.3685    magn:    2.1016    constr:    0.0000
     atom:   10    charge:   14.3685    magn:    2.1051    constr:    0.0000
     atom:   11    charge:   14.3688    magn:    2.1022    constr:    0.0000
     atom:   12    charge:   14.3685    magn:    2.1051    constr:    0.0000
     atom:   13    charge:   14.3688    magn:    2.1022    constr:    0.0000
     atom:   14    charge:   14.3685    magn:    2.1051    constr:    0.0000
     atom:   15    charge:   14.3687    magn:    2.1031    constr:    0.0000
     atom:   16    charge:   14.3685    magn:    2.1051    constr:    0.0000

     total cpu time spent up to now is     1099.8 secs

     End of self-consistent calculation

     Number of k-points >= 100: set verbosity='high' to print the bands.

     the Fermi energy is    18.9105 ev

!    total energy              =   -5268.19036669 Ry
     Harris-Foulkes estimate   =   -5268.19036440 Ry
     estimated scf accuracy    <       0.00000078 Ry

     total all-electron energy =    -40728.934896 Ry

     The total energy is the sum of the following terms:

     one-electron contribution =   -1711.38123621 Ry
     hartree contribution      =    1023.69961083 Ry
     xc contribution           =    -444.23110477 Ry
     ewald contribution        =   -2811.73252466 Ry
     one-center paw contrib.   =   -1324.67049922 Ry
     smearing contrib. (-TS)   =       0.12538734 Ry

     total magnetization       =    32.95 Bohr mag/cell
     absolute magnetization    =    34.72 Bohr mag/cell

     convergence has been achieved in  23 iterations

     negative rho (up, down):  0.000E+00 2.478E-03

     Forces acting on atoms (cartesian axes, Ry/au):

     atom    1 type  1   force =     0.00000000    0.00000000    0.00000000
     atom    2 type  2   force =    -0.00007769    0.00011977    0.00011977
     atom    3 type  1   force =     0.00000000    0.00000000    0.00000000
     atom    4 type  2   force =    -0.00007769    0.00011977   -0.00011977
     atom    5 type  1   force =     0.00000000    0.00000000    0.00000000
     atom    6 type  2   force =    -0.00007769   -0.00011977    0.00011977
     atom    7 type  1   force =     0.00000000    0.00000000    0.00000000
     atom    8 type  2   force =    -0.00007769   -0.00011977   -0.00011977
     atom    9 type  1   force =     0.00000000    0.00000000    0.00000000
     atom   10 type  2   force =     0.00007769    0.00011977    0.00011977
     atom   11 type  1   force =     0.00000000    0.00000000    0.00000000
     atom   12 type  2   force =     0.00007769    0.00011977   -0.00011977
     atom   13 type  1   force =     0.00000000    0.00000000    0.00000000
     atom   14 type  2   force =     0.00007769   -0.00011977    0.00011977
     atom   15 type  1   force =     0.00000000    0.00000000    0.00000000
     atom   16 type  2   force =     0.00007769   -0.00011977   -0.00011977

     Total force =     0.000527     Total SCF correction =     0.004886
     SCF correction compared to forces is large: reduce conv_thr to get better values


     Computing stress (Cartesian axis) and pressure


     negative rho (up, down):  0.000E+00 2.478E-03
          total   stress  (Ry/bohr**3)                   (kbar)     P=   -8.91
  -0.00007619   0.00000000   0.00000000        -11.21      0.00      0.00
   0.00000000  -0.00005277   0.00000000          0.00     -7.76      0.00
   0.00000000   0.00000000  -0.00005277          0.00      0.00     -7.76


     Writing output data file dFHiiftdmGCjXUKC.save/
 
     init_run     :     13.04s CPU     13.64s WALL (       1 calls)
     electrons    :   1051.92s CPU   1084.47s WALL (       1 calls)
     forces       :      4.64s CPU      5.09s WALL (       1 calls)
     stress       :     12.45s CPU     12.58s WALL (       1 calls)

     Called by init_run:
     wfcinit      :     12.51s CPU     13.01s WALL (       1 calls)
     potinit      :      0.20s CPU      0.22s WALL (       1 calls)
     hinit0       :      0.19s CPU      0.22s WALL (       1 calls)

     Called by electrons:
     c_bands      :    947.87s CPU    974.64s WALL (      24 calls)
     sum_band     :     99.25s CPU    104.44s WALL (      24 calls)
     v_of_rho     :      0.36s CPU      0.37s WALL (      24 calls)
     newd         :      0.75s CPU      0.98s WALL (      24 calls)
     PAW_pot      :      3.60s CPU      3.89s WALL (      24 calls)
     mix_rho      :      0.14s CPU      0.15s WALL (      24 calls)

     Called by c_bands:
     init_us_2    :      5.11s CPU      5.20s WALL (    7650 calls)
     cegterg      :    922.38s CPU    948.83s WALL (    3600 calls)

     Called by sum_band:
     sum_band:bec :      1.39s CPU      1.41s WALL (    3600 calls)
     addusdens    :      1.37s CPU      1.55s WALL (      24 calls)

     Called by *egterg:
     h_psi        :    396.98s CPU    413.09s WALL (   11605 calls)
     s_psi        :     20.75s CPU     20.88s WALL (   11605 calls)
     g_psi        :      0.85s CPU      0.87s WALL (    7855 calls)
     cdiaghg      :    411.72s CPU    412.92s WALL (   11305 calls)

     Called by h_psi:
     h_psi:pot    :    394.41s CPU    410.49s WALL (   11605 calls)
     h_psi:calbec :     32.60s CPU     37.73s WALL (   11605 calls)
     vloc_psi     :    340.64s CPU    351.45s WALL (   11605 calls)
     add_vuspsi   :     21.08s CPU     21.24s WALL (   11605 calls)

     General routines
     calbec       :     49.77s CPU     57.87s WALL (   15955 calls)
     fft          :      0.41s CPU      0.45s WALL (     642 calls)
     ffts         :      0.05s CPU      0.23s WALL (      96 calls)
     fftw         :    395.94s CPU    408.33s WALL ( 3005198 calls)
     interpolate  :      0.07s CPU      0.15s WALL (      48 calls)
 
     Parallel routines
     fft_scatt_xy :     25.83s CPU     26.67s WALL ( 3005936 calls)
     fft_scatt_yz :    267.51s CPU    276.17s WALL ( 3005936 calls)
 
     PWSCF        : 18m11.67s CPU    19m12.08s WALL

 
   This run was terminated on:   5:10:16   2Nov2020            

=------------------------------------------------------------------------------=
   JOB DONE.
=------------------------------------------------------------------------------=
