--------------------------------------------------------------------------
WARNING: No preset parameters were found for the device that Open MPI
detected:

  Local host:            bear-pg0206u26a
  Device name:           mlx5_0
  Device vendor ID:      0x02c9
  Device vendor part ID: 4123

Default device parameters will be used, which may result in lower
performance.  You can edit any of the files specified by the
btl_openib_device_param_files MCA parameter to set values for your
device.

NOTE: You can turn off this warning by setting the MCA parameter
      btl_openib_warn_no_device_params_found to 0.
--------------------------------------------------------------------------
--------------------------------------------------------------------------
WARNING: There was an error initializing an OpenFabrics device.

  Local host:   bear-pg0206u26a
  Local device: mlx5_0
--------------------------------------------------------------------------

     Program PWSCF v.6.3 starts on  2Nov2020 at 11:14:14 

     This program is part of the open-source Quantum ESPRESSO suite
     for quantum simulation of materials; please cite
         "P. Giannozzi et al., J. Phys.:Condens. Matter 21 395502 (2009);
         "P. Giannozzi et al., J. Phys.:Condens. Matter 29 465901 (2017);
          URL http://www.quantum-espresso.org", 
     in publications or presentations arising from this work. More details at
     http://www.quantum-espresso.org/quote

     Parallel version (MPI & OpenMP), running on      40 processor cores
     Number of MPI processes:                40
     Threads/MPI process:                     1

     MPI processes distributed on     1 nodes
     R & G space division:  proc/nbgrp/npool/nimage =      40
     Reading input from wd/ec/ec_5_002.in
Warning: card &IONS ignored
Warning: card ION_DYNAMICS = 'BFGS', ignored
Warning: card / ignored
Warning: card &CELL ignored
Warning: card CELL_DYNAMICS = 'BFGS', ignored
Warning: card CELL_FACTOR = 2.0, ignored
Warning: card PRESS = 0.0, ignored
Warning: card / ignored

     Current dimensions of program PWSCF are:
     Max number of different atomic species (ntypx) = 10
     Max number of k-points (npk) =  40000
     Max angular momentum in pseudopotentials (lmaxx) =  3
               file Fe.pbe-spn-kjpaw_psl.1.0.0.UPF: wavefunction(s)  3P 3D renormalized
               file Fe.pbe-spn-kjpaw_psl.1.0.0.UPF: wavefunction(s)  3P 3D renormalized

     Subspace diagonalization in iterative solution of the eigenvalue problem:
     a serial algorithm will be used

     Found symmetry operation: I + ( -0.0000  0.0000 -0.5000)
     This is a supercell, fractional translations are disabled
 
     Parallelization info
     --------------------
     sticks:   dense  smooth     PW     G-vecs:    dense   smooth      PW
     Min          95      63     17                 4472     2401     356
     Max          96      64     18                 4478     2406     361
     Sum        3833    2537    717               179005    96117   14347
 


     bravais-lattice index     =            0
     lattice parameter (alat)  =      10.5935  a.u.
     unit-cell volume          =    1188.8329 (a.u.)^3
     number of atoms/cell      =           16
     number of atomic types    =            2
     number of electrons       =       256.00
     number of Kohn-Sham states=          154
     kinetic-energy cutoff     =      71.0000  Ry
     charge density cutoff     =     430.0000  Ry
     convergence threshold     =      1.0E-06
     mixing beta               =       0.1000
     number of iterations used =           10  plain     mixing
     Exchange-correlation      = SLA PW PBX PBC ( 1  4  3  4 0 0)

     celldm(1)=  10.593520  celldm(2)=   0.000000  celldm(3)=   0.000000
     celldm(4)=   0.000000  celldm(5)=   0.000000  celldm(6)=   0.000000

     crystal axes: (cart. coord. in units of alat)
               a(1) = (   1.000000   0.000000   0.000667 )  
               a(2) = (   0.000000   1.000000   0.000000 )  
               a(3) = (   0.000667   0.000000   1.000000 )  

     reciprocal axes: (cart. coord. in units 2 pi/alat)
               b(1) = (  1.000000  0.000000 -0.000667 )  
               b(2) = (  0.000000  1.000000  0.000000 )  
               b(3) = ( -0.000667  0.000000  1.000000 )  


     PseudoPot. # 1 for Fe read from file:
     /rds/homes/b/bxp912/pp/Fe.pbe-spn-kjpaw_psl.1.0.0.UPF
     MD5 check sum: 42f43b795421b414b0dc916aa790dbcb
     Pseudo is Projector augmented-wave + core cor, Zval = 16.0
     Generated using "atomic" code by A. Dal Corso v.6.3
     Shape of augmentation charge: PSQ
     Using radial grid of 1191 points,  6 beta functions with: 
                l(1) =   0
                l(2) =   0
                l(3) =   1
                l(4) =   1
                l(5) =   2
                l(6) =   2
     Q(r) pseudized with 0 coefficients 


     PseudoPot. # 2 for Fe read from file:
     /rds/homes/b/bxp912/pp/Fe.pbe-spn-kjpaw_psl.1.0.0.UPF
     MD5 check sum: 42f43b795421b414b0dc916aa790dbcb
     Pseudo is Projector augmented-wave + core cor, Zval = 16.0
     Generated using "atomic" code by A. Dal Corso v.6.3
     Shape of augmentation charge: PSQ
     Using radial grid of 1191 points,  6 beta functions with: 
                l(1) =   0
                l(2) =   0
                l(3) =   1
                l(4) =   1
                l(5) =   2
                l(6) =   2
     Q(r) pseudized with 0 coefficients 


     atomic species   valence    mass     pseudopotential
        Fe1           16.00    55.84500     Fe( 1.00)
        Fe2           16.00    55.84500     Fe( 1.00)

     Starting magnetic structure 
     atomic species   magnetization
        Fe1          0.100
        Fe2          0.100

      8 Sym. Ops., with inversion, found



   Cartesian axes

     site n.     atom                  positions (alat units)
         1           Fe1 tau(   1) = (   0.0000000   0.0000000   0.0000000  )
         2           Fe2 tau(   2) = (   0.2501671   0.2500005   0.2501671  )
         3           Fe1 tau(   3) = (   0.0003333   0.0000000   0.5000001  )
         4           Fe2 tau(   4) = (   0.2505005   0.2500005   0.7501663  )
         5           Fe1 tau(   5) = (   0.0000000   0.5000001   0.0000000  )
         6           Fe2 tau(   6) = (   0.2501671   0.7499997   0.2501671  )
         7           Fe1 tau(   7) = (   0.0003333   0.5000001   0.5000001  )
         8           Fe2 tau(   8) = (   0.2505005   0.7499997   0.7501663  )
         9           Fe1 tau(   9) = (   0.5000001   0.0000000   0.0003333  )
        10           Fe2 tau(  10) = (   0.7501663   0.2500005   0.2505005  )
        11           Fe1 tau(  11) = (   0.5003334   0.0000000   0.5003334  )
        12           Fe2 tau(  12) = (   0.7504997   0.2500005   0.7504997  )
        13           Fe1 tau(  13) = (   0.5000001   0.5000001   0.0003333  )
        14           Fe2 tau(  14) = (   0.7501663   0.7499997   0.2505005  )
        15           Fe1 tau(  15) = (   0.5003334   0.5000001   0.5003334  )
        16           Fe2 tau(  16) = (   0.7504997   0.7499997   0.7504997  )

     number of k points=   125  Marzari-Vanderbilt smearing, width (Ry)=  0.0400

     Number of k-points >= 100: set verbosity='high' to print them.

     Dense  grid:   179005 G-vectors     FFT dimensions: (  72,  72,  72)

     Smooth grid:    96117 G-vectors     FFT dimensions: (  60,  60,  60)

     Estimated max dynamical RAM per process >     215.38 MB

     Estimated total dynamical RAM >       8.41 GB
     Generating pointlists ...
     new r_m :   0.1785 (alat units)  1.8913 (a.u.) for type    1
     new r_m :   0.1785 (alat units)  1.8913 (a.u.) for type    2

     Check: negative/imaginary core charge=   -0.000006    0.000000

     Initial potential from superposition of free atoms

     starting charge  255.99300, renormalised to  256.00000
     Starting wfcs are  160 randomized atomic wfcs
     Checking if some PAW data can be deallocated... 

     total cpu time spent up to now is       24.4 secs

     Self-consistent Calculation

     iteration #  1     ecut=    71.00 Ry     beta= 0.10
     Davidson diagonalization with overlap
     ethr =  1.00E-02,  avg # of iterations =  3.4

     Threshold (ethr) on eigenvalues was too large:
     Diagonalizing with lowered threshold

     Davidson diagonalization with overlap
     ethr =  2.25E-04,  avg # of iterations =  3.6

     total cpu time spent up to now is      215.3 secs

     total energy              =   -5268.06219812 Ry
     Harris-Foulkes estimate   =   -5268.15196100 Ry
     estimated scf accuracy    <       0.65882371 Ry

     total magnetization       =    28.16 Bohr mag/cell
     absolute magnetization    =    28.30 Bohr mag/cell

     iteration #  2     ecut=    71.00 Ry     beta= 0.10
     Davidson diagonalization with overlap
     ethr =  2.57E-04,  avg # of iterations =  1.0

     total cpu time spent up to now is      270.5 secs

     total energy              =   -5268.00529514 Ry
     Harris-Foulkes estimate   =   -5268.07618336 Ry
     estimated scf accuracy    <       0.39590342 Ry

     total magnetization       =    28.76 Bohr mag/cell
     absolute magnetization    =    28.92 Bohr mag/cell

     iteration #  3     ecut=    71.00 Ry     beta= 0.10
     Davidson diagonalization with overlap
     ethr =  1.55E-04,  avg # of iterations =  2.8

     total cpu time spent up to now is      351.2 secs

     total energy              =   -5268.02675161 Ry
     Harris-Foulkes estimate   =   -5268.05149347 Ry
     estimated scf accuracy    <       0.53053324 Ry

     total magnetization       =    29.55 Bohr mag/cell
     absolute magnetization    =    29.84 Bohr mag/cell

     iteration #  4     ecut=    71.00 Ry     beta= 0.10
     Davidson diagonalization with overlap
     ethr =  1.55E-04,  avg # of iterations =  1.2

     total cpu time spent up to now is      410.0 secs

     total energy              =   -5268.05232131 Ry
     Harris-Foulkes estimate   =   -5268.05066080 Ry
     estimated scf accuracy    <       0.13915417 Ry

     total magnetization       =    30.21 Bohr mag/cell
     absolute magnetization    =    30.55 Bohr mag/cell

     iteration #  5     ecut=    71.00 Ry     beta= 0.10
     Davidson diagonalization with overlap
     ethr =  5.44E-05,  avg # of iterations =  1.3

     total cpu time spent up to now is      468.7 secs

     total energy              =   -5268.10352068 Ry
     Harris-Foulkes estimate   =   -5268.05495779 Ry
     estimated scf accuracy    <       0.10618712 Ry

     total magnetization       =    30.29 Bohr mag/cell
     absolute magnetization    =    30.65 Bohr mag/cell

     iteration #  6     ecut=    71.00 Ry     beta= 0.10
     Davidson diagonalization with overlap
     ethr =  4.15E-05,  avg # of iterations =  3.3

     negative rho (up, down):  0.000E+00 1.700E-04

     total cpu time spent up to now is      573.9 secs

     total energy              =   -5268.15894589 Ry
     Harris-Foulkes estimate   =   -5268.14346484 Ry
     estimated scf accuracy    <       0.15112885 Ry

     total magnetization       =    30.98 Bohr mag/cell
     absolute magnetization    =    31.71 Bohr mag/cell

     iteration #  7     ecut=    71.00 Ry     beta= 0.10
     Davidson diagonalization with overlap
     ethr =  4.15E-05,  avg # of iterations =  2.6

     negative rho (up, down):  0.000E+00 8.799E-04

     total cpu time spent up to now is      655.2 secs

     total energy              =   -5268.17565972 Ry
     Harris-Foulkes estimate   =   -5268.17175981 Ry
     estimated scf accuracy    <       0.05778745 Ry

     total magnetization       =    31.73 Bohr mag/cell
     absolute magnetization    =    32.80 Bohr mag/cell

     iteration #  8     ecut=    71.00 Ry     beta= 0.10
     Davidson diagonalization with overlap
     ethr =  2.26E-05,  avg # of iterations =  1.1

     negative rho (up, down):  0.000E+00 1.722E-03

     total cpu time spent up to now is      712.9 secs

     total energy              =   -5268.17993972 Ry
     Harris-Foulkes estimate   =   -5268.17768519 Ry
     estimated scf accuracy    <       0.04012081 Ry

     total magnetization       =    31.95 Bohr mag/cell
     absolute magnetization    =    33.11 Bohr mag/cell

     iteration #  9     ecut=    71.00 Ry     beta= 0.10
     Davidson diagonalization with overlap
     ethr =  1.57E-05,  avg # of iterations =  2.1

     negative rho (up, down):  0.000E+00 2.076E-03

     total cpu time spent up to now is      787.8 secs

     total energy              =   -5268.18691751 Ry
     Harris-Foulkes estimate   =   -5268.18472235 Ry
     estimated scf accuracy    <       0.01261516 Ry

     total magnetization       =    32.33 Bohr mag/cell
     absolute magnetization    =    33.74 Bohr mag/cell

     iteration # 10     ecut=    71.00 Ry     beta= 0.10
     Davidson diagonalization with overlap
     ethr =  4.93E-06,  avg # of iterations =  1.6

     negative rho (up, down):  0.000E+00 2.563E-03

     total cpu time spent up to now is      851.8 secs

     total energy              =   -5268.18799565 Ry
     Harris-Foulkes estimate   =   -5268.18745989 Ry
     estimated scf accuracy    <       0.00578392 Ry

     total magnetization       =    32.47 Bohr mag/cell
     absolute magnetization    =    33.95 Bohr mag/cell

     iteration # 11     ecut=    71.00 Ry     beta= 0.10
     Davidson diagonalization with overlap
     ethr =  2.26E-06,  avg # of iterations =  3.4

     negative rho (up, down):  0.000E+00 2.443E-03

     total cpu time spent up to now is      944.1 secs

     total energy              =   -5268.18884148 Ry
     Harris-Foulkes estimate   =   -5268.18880031 Ry
     estimated scf accuracy    <       0.00092393 Ry

     total magnetization       =    32.67 Bohr mag/cell
     absolute magnetization    =    34.31 Bohr mag/cell

     iteration # 12     ecut=    71.00 Ry     beta= 0.10
     Davidson diagonalization with overlap
     ethr =  3.61E-07,  avg # of iterations =  2.1

     negative rho (up, down):  0.000E+00 2.371E-03

     total cpu time spent up to now is     1013.4 secs

     total energy              =   -5268.18908905 Ry
     Harris-Foulkes estimate   =   -5268.18889107 Ry
     estimated scf accuracy    <       0.00064969 Ry

     total magnetization       =    32.68 Bohr mag/cell
     absolute magnetization    =    34.33 Bohr mag/cell

     iteration # 13     ecut=    71.00 Ry     beta= 0.10
     Davidson diagonalization with overlap
     ethr =  2.54E-07,  avg # of iterations =  2.1

     negative rho (up, down):  0.000E+00 2.439E-03

     total cpu time spent up to now is     1087.9 secs

     total energy              =   -5268.18930140 Ry
     Harris-Foulkes estimate   =   -5268.18915075 Ry
     estimated scf accuracy    <       0.00063076 Ry

     total magnetization       =    32.72 Bohr mag/cell
     absolute magnetization    =    34.40 Bohr mag/cell

     iteration # 14     ecut=    71.00 Ry     beta= 0.10
     Davidson diagonalization with overlap
     ethr =  2.46E-07,  avg # of iterations =  2.9

     negative rho (up, down):  0.000E+00 2.425E-03

     total cpu time spent up to now is     1172.7 secs

     total energy              =   -5268.18940161 Ry
     Harris-Foulkes estimate   =   -5268.18940605 Ry
     estimated scf accuracy    <       0.00029241 Ry

     total magnetization       =    32.81 Bohr mag/cell
     absolute magnetization    =    34.55 Bohr mag/cell

     iteration # 15     ecut=    71.00 Ry     beta= 0.10
     Davidson diagonalization with overlap
     ethr =  1.14E-07,  avg # of iterations =  1.2

     negative rho (up, down):  0.000E+00 2.385E-03

     total cpu time spent up to now is     1231.0 secs

     total energy              =   -5268.18943113 Ry
     Harris-Foulkes estimate   =   -5268.18941922 Ry
     estimated scf accuracy    <       0.00007856 Ry

     total magnetization       =    32.83 Bohr mag/cell
     absolute magnetization    =    34.57 Bohr mag/cell

     iteration # 16     ecut=    71.00 Ry     beta= 0.10
     Davidson diagonalization with overlap
     ethr =  3.07E-08,  avg # of iterations =  2.8

     negative rho (up, down):  0.000E+00 2.445E-03

     total cpu time spent up to now is     1310.2 secs

     total energy              =   -5268.18943873 Ry
     Harris-Foulkes estimate   =   -5268.18943685 Ry
     estimated scf accuracy    <       0.00007994 Ry

     total magnetization       =    32.83 Bohr mag/cell
     absolute magnetization    =    34.57 Bohr mag/cell

     iteration # 17     ecut=    71.00 Ry     beta= 0.10
     Davidson diagonalization with overlap
     ethr =  3.07E-08,  avg # of iterations =  3.2

     negative rho (up, down):  0.000E+00 2.425E-03

     total cpu time spent up to now is     1405.3 secs

     total energy              =   -5268.18947491 Ry
     Harris-Foulkes estimate   =   -5268.18947175 Ry
     estimated scf accuracy    <       0.00001428 Ry

     total magnetization       =    32.88 Bohr mag/cell
     absolute magnetization    =    34.65 Bohr mag/cell

     iteration # 18     ecut=    71.00 Ry     beta= 0.10
     Davidson diagonalization with overlap
     ethr =  5.58E-09,  avg # of iterations =  2.4

     negative rho (up, down):  0.000E+00 2.441E-03

     total cpu time spent up to now is     1479.2 secs

     total energy              =   -5268.18947666 Ry
     Harris-Foulkes estimate   =   -5268.18947640 Ry
     estimated scf accuracy    <       0.00000860 Ry

     total magnetization       =    32.88 Bohr mag/cell
     absolute magnetization    =    34.65 Bohr mag/cell

     iteration # 19     ecut=    71.00 Ry     beta= 0.10
     Davidson diagonalization with overlap
     ethr =  3.36E-09,  avg # of iterations =  1.4

     negative rho (up, down):  0.000E+00 2.442E-03

     total cpu time spent up to now is     1539.7 secs

     total energy              =   -5268.18947835 Ry
     Harris-Foulkes estimate   =   -5268.18947721 Ry
     estimated scf accuracy    <       0.00000415 Ry

     total magnetization       =    32.89 Bohr mag/cell
     absolute magnetization    =    34.66 Bohr mag/cell

     iteration # 20     ecut=    71.00 Ry     beta= 0.10
     Davidson diagonalization with overlap
     ethr =  1.62E-09,  avg # of iterations =  1.9

     negative rho (up, down):  0.000E+00 2.455E-03

     total cpu time spent up to now is     1606.1 secs

     total energy              =   -5268.18947932 Ry
     Harris-Foulkes estimate   =   -5268.18947858 Ry
     estimated scf accuracy    <       0.00000270 Ry

     total magnetization       =    32.89 Bohr mag/cell
     absolute magnetization    =    34.66 Bohr mag/cell

     iteration # 21     ecut=    71.00 Ry     beta= 0.10
     Davidson diagonalization with overlap
     ethr =  1.05E-09,  avg # of iterations =  2.5

     negative rho (up, down):  0.000E+00 2.457E-03

     total cpu time spent up to now is     1684.6 secs

     total energy              =   -5268.18948033 Ry
     Harris-Foulkes estimate   =   -5268.18947965 Ry
     estimated scf accuracy    <       0.00000164 Ry

     total magnetization       =    32.90 Bohr mag/cell
     absolute magnetization    =    34.66 Bohr mag/cell

     iteration # 22     ecut=    71.00 Ry     beta= 0.10
     Davidson diagonalization with overlap
     ethr =  6.39E-10,  avg # of iterations =  1.0

     negative rho (up, down):  0.000E+00 2.459E-03

     total cpu time spent up to now is     1740.1 secs

     total energy              =   -5268.18948124 Ry
     Harris-Foulkes estimate   =   -5268.18948039 Ry
     estimated scf accuracy    <       0.00000120 Ry

     total magnetization       =    32.90 Bohr mag/cell
     absolute magnetization    =    34.67 Bohr mag/cell

     iteration # 23     ecut=    71.00 Ry     beta= 0.10
     Davidson diagonalization with overlap
     ethr =  4.68E-10,  avg # of iterations =  2.1

     negative rho (up, down):  0.000E+00 2.467E-03
 
     Magnetic moment per site:
     atom:    1    charge:   14.3637    magn:    2.0990    constr:    0.0000
     atom:    2    charge:   14.3637    magn:    2.1017    constr:    0.0000
     atom:    3    charge:   14.3638    magn:    2.0987    constr:    0.0000
     atom:    4    charge:   14.3636    magn:    2.1013    constr:    0.0000
     atom:    5    charge:   14.3636    magn:    2.1003    constr:    0.0000
     atom:    6    charge:   14.3637    magn:    2.1017    constr:    0.0000
     atom:    7    charge:   14.3635    magn:    2.0999    constr:    0.0000
     atom:    8    charge:   14.3636    magn:    2.1013    constr:    0.0000
     atom:    9    charge:   14.3638    magn:    2.0987    constr:    0.0000
     atom:   10    charge:   14.3636    magn:    2.1013    constr:    0.0000
     atom:   11    charge:   14.3637    magn:    2.0983    constr:    0.0000
     atom:   12    charge:   14.3637    magn:    2.1017    constr:    0.0000
     atom:   13    charge:   14.3635    magn:    2.0999    constr:    0.0000
     atom:   14    charge:   14.3636    magn:    2.1013    constr:    0.0000
     atom:   15    charge:   14.3637    magn:    2.0995    constr:    0.0000
     atom:   16    charge:   14.3637    magn:    2.1017    constr:    0.0000

     total cpu time spent up to now is     1811.0 secs

     End of self-consistent calculation

     Number of k-points >= 100: set verbosity='high' to print the bands.

     the Fermi energy is    18.9743 ev

!    total energy              =   -5268.18948249 Ry
     Harris-Foulkes estimate   =   -5268.18948133 Ry
     estimated scf accuracy    <       0.00000066 Ry

     total all-electron energy =    -40728.934011 Ry

     The total energy is the sum of the following terms:

     one-electron contribution =   -1707.42907342 Ry
     hartree contribution      =    1022.27549013 Ry
     xc contribution           =    -444.25954040 Ry
     ewald contribution        =   -2814.22947241 Ry
     one-center paw contrib.   =   -1324.67104543 Ry
     smearing contrib. (-TS)   =       0.12415903 Ry

     total magnetization       =    32.90 Bohr mag/cell
     absolute magnetization    =    34.66 Bohr mag/cell

     convergence has been achieved in  23 iterations

     negative rho (up, down):  0.000E+00 2.467E-03

     Forces acting on atoms (cartesian axes, Ry/au):

     atom    1 type  1   force =     0.00000000    0.00000000    0.00000000
     atom    2 type  2   force =     0.00002821    0.00009689    0.00002821
     atom    3 type  1   force =     0.00000000    0.00000000    0.00000000
     atom    4 type  2   force =    -0.00004642    0.00005652    0.00004642
     atom    5 type  1   force =     0.00000000    0.00000000    0.00000000
     atom    6 type  2   force =     0.00002821   -0.00009689    0.00002821
     atom    7 type  1   force =     0.00000000    0.00000000    0.00000000
     atom    8 type  2   force =    -0.00004642   -0.00005652    0.00004642
     atom    9 type  1   force =     0.00000000    0.00000000    0.00000000
     atom   10 type  2   force =     0.00004642    0.00005652   -0.00004642
     atom   11 type  1   force =     0.00000000    0.00000000    0.00000000
     atom   12 type  2   force =    -0.00002821    0.00009689   -0.00002821
     atom   13 type  1   force =     0.00000000    0.00000000    0.00000000
     atom   14 type  2   force =     0.00004642   -0.00005652   -0.00004642
     atom   15 type  1   force =     0.00000000    0.00000000    0.00000000
     atom   16 type  2   force =    -0.00002821   -0.00009689   -0.00002821

     Total force =     0.000272     Total SCF correction =     0.003453
     SCF correction compared to forces is large: reduce conv_thr to get better values


     Computing stress (Cartesian axis) and pressure


     negative rho (up, down):  0.000E+00 2.467E-03
          total   stress  (Ry/bohr**3)                   (kbar)     P=   -3.20
  -0.00002174   0.00000000  -0.00001250         -3.20      0.00     -1.84
   0.00000000  -0.00002170   0.00000000          0.00     -3.19      0.00
  -0.00001250   0.00000000  -0.00002174         -1.84      0.00     -3.20


     Writing output data file ykEMzxSggcGyypSS.save/
 
     init_run     :     21.98s CPU     22.99s WALL (       1 calls)
     electrons    :   1732.73s CPU   1786.64s WALL (       1 calls)
     forces       :      7.75s CPU      8.43s WALL (       1 calls)
     stress       :     22.21s CPU     22.41s WALL (       1 calls)

     Called by init_run:
     wfcinit      :     21.48s CPU     22.37s WALL (       1 calls)
     potinit      :      0.23s CPU      0.25s WALL (       1 calls)
     hinit0       :      0.15s CPU      0.17s WALL (       1 calls)

     Called by electrons:
     c_bands      :   1562.72s CPU   1607.71s WALL (      24 calls)
     sum_band     :    165.22s CPU    173.51s WALL (      24 calls)
     v_of_rho     :      0.36s CPU      0.37s WALL (      24 calls)
     newd         :      0.76s CPU      0.97s WALL (      24 calls)
     PAW_pot      :      3.60s CPU      3.92s WALL (      24 calls)
     mix_rho      :      0.14s CPU      0.14s WALL (      24 calls)

     Called by c_bands:
     init_us_2    :      8.15s CPU      8.28s WALL (   12750 calls)
     cegterg      :   1520.02s CPU   1564.52s WALL (    6000 calls)

     Called by sum_band:
     sum_band:bec :      2.30s CPU      2.34s WALL (    6000 calls)
     addusdens    :      1.34s CPU      1.53s WALL (      24 calls)

     Called by *egterg:
     h_psi        :    653.10s CPU    680.25s WALL (   19525 calls)
     s_psi        :     34.49s CPU     34.72s WALL (   19525 calls)
     g_psi        :      1.40s CPU      1.42s WALL (   13275 calls)
     cdiaghg      :    682.25s CPU    684.59s WALL (   19025 calls)

     Called by h_psi:
     h_psi:pot    :    649.41s CPU    676.51s WALL (   19525 calls)
     h_psi:calbec :     53.55s CPU     61.87s WALL (   19525 calls)
     vloc_psi     :    560.30s CPU    578.84s WALL (   19525 calls)
     add_vuspsi   :     35.39s CPU     35.68s WALL (   19525 calls)

     General routines
     calbec       :     82.94s CPU     95.93s WALL (   26775 calls)
     fft          :      0.41s CPU      0.45s WALL (     642 calls)
     ffts         :      0.05s CPU      0.24s WALL (      96 calls)
     fftw         :    653.67s CPU    674.98s WALL ( 4952122 calls)
     interpolate  :      0.07s CPU      0.16s WALL (      48 calls)
 
     Parallel routines
     fft_scatt_xy :     42.43s CPU     43.80s WALL ( 4952860 calls)
     fft_scatt_yz :    441.71s CPU    456.63s WALL ( 4952860 calls)
 
     PWSCF        : 29m59.71s CPU    31m43.42s WALL

 
   This run was terminated on:  11:45:57   2Nov2020            

=------------------------------------------------------------------------------=
   JOB DONE.
=------------------------------------------------------------------------------=
