--------------------------------------------------------------------------
WARNING: No preset parameters were found for the device that Open MPI
detected:

  Local host:            bear-pg0206u17a
  Device name:           mlx5_0
  Device vendor ID:      0x02c9
  Device vendor part ID: 4123

Default device parameters will be used, which may result in lower
performance.  You can edit any of the files specified by the
btl_openib_device_param_files MCA parameter to set values for your
device.

NOTE: You can turn off this warning by setting the MCA parameter
      btl_openib_warn_no_device_params_found to 0.
--------------------------------------------------------------------------
--------------------------------------------------------------------------
WARNING: There was an error initializing an OpenFabrics device.

  Local host:   bear-pg0206u17a
  Local device: mlx5_0
--------------------------------------------------------------------------

     Program PWSCF v.6.3 starts on 12Nov2020 at 22: 9:26 

     This program is part of the open-source Quantum ESPRESSO suite
     for quantum simulation of materials; please cite
         "P. Giannozzi et al., J. Phys.:Condens. Matter 21 395502 (2009);
         "P. Giannozzi et al., J. Phys.:Condens. Matter 29 465901 (2017);
          URL http://www.quantum-espresso.org", 
     in publications or presentations arising from this work. More details at
     http://www.quantum-espresso.org/quote

     Parallel version (MPI & OpenMP), running on      40 processor cores
     Number of MPI processes:                40
     Threads/MPI process:                     1

     MPI processes distributed on     1 nodes
     R & G space division:  proc/nbgrp/npool/nimage =      40
     Reading input from wd/configs/1/config_0004.in
Warning: card &IONS ignored
Warning: card ION_DYNAMICS = 'BFGS', ignored
Warning: card / ignored
Warning: card &CELL ignored
Warning: card CELL_DYNAMICS = 'BFGS', ignored
Warning: card CELL_FACTOR = 2.0, ignored
Warning: card PRESS = 0.0, ignored
Warning: card / ignored

     Current dimensions of program PWSCF are:
     Max number of different atomic species (ntypx) = 10
     Max number of k-points (npk) =  40000
     Max angular momentum in pseudopotentials (lmaxx) =  3
               file Pd.pbe-spn-kjpaw_psl.1.0.0.UPF: wavefunction(s)  4S 5S 4D renormalized

     Subspace diagonalization in iterative solution of the eigenvalue problem:
     a serial algorithm will be used

 
     Parallelization info
     --------------------
     sticks:   dense  smooth     PW     G-vecs:    dense   smooth      PW
     Min         188     124     33                12325     6616     935
     Max         190     126     34                12331     6619     940
     Sum        7533    4989   1353               493047   264675   37529
 


     bravais-lattice index     =            0
     lattice parameter (alat)  =      14.8522  a.u.
     unit-cell volume          =    3276.1998 (a.u.)^3
     number of atoms/cell      =           32
     number of atomic types    =            1
     number of electrons       =       576.00
     number of Kohn-Sham states=          346
     kinetic-energy cutoff     =      71.0000  Ry
     charge density cutoff     =     430.0000  Ry
     convergence threshold     =      1.0E-06
     mixing beta               =       0.1000
     number of iterations used =           10  plain     mixing
     Exchange-correlation      = SLA PW PBX PBC ( 1  4  3  4 0 0)

     celldm(1)=  14.852177  celldm(2)=   0.000000  celldm(3)=   0.000000
     celldm(4)=   0.000000  celldm(5)=   0.000000  celldm(6)=   0.000000

     crystal axes: (cart. coord. in units of alat)
               a(1) = (   1.000000   0.000000   0.000000 )  
               a(2) = (   0.000000   1.000000   0.000000 )  
               a(3) = (   0.000000   0.000000   1.000000 )  

     reciprocal axes: (cart. coord. in units 2 pi/alat)
               b(1) = (  1.000000  0.000000  0.000000 )  
               b(2) = (  0.000000  1.000000  0.000000 )  
               b(3) = (  0.000000  0.000000  1.000000 )  


     PseudoPot. # 1 for Pd read from file:
     /rds/homes/b/bxp912/pp/Pd.pbe-spn-kjpaw_psl.1.0.0.UPF
     MD5 check sum: 790f2ebce206edfd9790dcb9844eca51
     Pseudo is Projector augmented-wave + core cor, Zval = 18.0
     Generated using "atomic" code by A. Dal Corso v.6.3
     Shape of augmentation charge: PSQ
     Using radial grid of 1235 points,  6 beta functions with: 
                l(1) =   0
                l(2) =   0
                l(3) =   1
                l(4) =   1
                l(5) =   2
                l(6) =   2
     Q(r) pseudized with 0 coefficients 


     atomic species   valence    mass     pseudopotential
        Pd            18.00   106.42000     Pd( 1.00)

     No symmetry found



   Cartesian axes

     site n.     atom                  positions (alat units)
         1           Pd  tau(   1) = (  -0.0007405  -0.0006537  -0.0005334  )
         2           Pd  tau(   2) = (   0.2494904   0.2489360  -0.0005287  )
         3           Pd  tau(   3) = (   0.2491357  -0.0006106   0.2499344  )
         4           Pd  tau(   4) = (  -0.0007144   0.2497765   0.2497044  )
         5           Pd  tau(   5) = (  -0.0001473  -0.0001548   0.4990820  )
         6           Pd  tau(   6) = (   0.2495723   0.2489824   0.4993341  )
         7           Pd  tau(   7) = (   0.2493838  -0.0003569   0.7490964  )
         8           Pd  tau(   8) = (  -0.0005604   0.2495604   0.7497588  )
         9           Pd  tau(   9) = (  -0.0001850   0.4995484  -0.0007050  )
        10           Pd  tau(  10) = (   0.2496138   0.7496891   0.0001603  )
        11           Pd  tau(  11) = (   0.2497156   0.4995505   0.2498430  )
        12           Pd  tau(  12) = (  -0.0005945   0.7494204   0.2493788  )
        13           Pd  tau(  13) = (  -0.0004468   0.4996478   0.4995303  )
        14           Pd  tau(  14) = (   0.2492527   0.7494568   0.4990607  )
        15           Pd  tau(  15) = (   0.2500188   0.4988935   0.7487016  )
        16           Pd  tau(  16) = (  -0.0013478   0.7487211   0.7493126  )
        17           Pd  tau(  17) = (   0.4997456  -0.0008798  -0.0007529  )
        18           Pd  tau(  18) = (   0.7491464   0.2495202  -0.0011528  )
        19           Pd  tau(  19) = (   0.7485769  -0.0008705   0.2494853  )
        20           Pd  tau(  20) = (   0.4992756   0.2492472   0.2489806  )
        21           Pd  tau(  21) = (   0.4991645  -0.0000709   0.4992703  )
        22           Pd  tau(  22) = (   0.7494673   0.2487012   0.4992286  )
        23           Pd  tau(  23) = (   0.7494002  -0.0008145   0.7493795  )
        24           Pd  tau(  24) = (   0.4993501   0.2490931   0.7493161  )
        25           Pd  tau(  25) = (   0.4990236   0.4995644  -0.0011241  )
        26           Pd  tau(  26) = (   0.7488585   0.7495279  -0.0001106  )
        27           Pd  tau(  27) = (   0.7495338   0.4989191   0.2492160  )
        28           Pd  tau(  28) = (   0.4995072   0.7488965   0.2497570  )
        29           Pd  tau(  29) = (   0.4986606   0.4995379   0.4994098  )
        30           Pd  tau(  30) = (   0.7496676   0.7493004   0.4990278  )
        31           Pd  tau(  31) = (   0.7492180   0.4993462   0.7496133  )
        32           Pd  tau(  32) = (   0.4993559   0.7492211   0.7491575  )

     number of k points=   365  Marzari-Vanderbilt smearing, width (Ry)=  0.0400

     Number of k-points >= 100: set verbosity='high' to print them.

     Dense  grid:   493047 G-vectors     FFT dimensions: ( 100, 100, 100)

     Smooth grid:   264675 G-vectors     FFT dimensions: (  80,  80,  80)

     Estimated max dynamical RAM per process >       1.72 GB

     Estimated total dynamical RAM >      68.76 GB

     Check: negative/imaginary core charge=   -0.000002    0.000000

     Initial potential from superposition of free atoms

     starting charge  575.98776, renormalised to  576.00000
     Starting wfcs are  320 randomized atomic wfcs +   26 random wfcs
     Checking if some PAW data can be deallocated... 

     total cpu time spent up to now is      141.2 secs

     Self-consistent Calculation

     iteration #  1     ecut=    71.00 Ry     beta= 0.10
     Davidson diagonalization with overlap
     ethr =  1.00E-02,  avg # of iterations =  3.1

     Threshold (ethr) on eigenvalues was too large:
     Diagonalizing with lowered threshold

     Davidson diagonalization with overlap
     ethr =  8.47E-05,  avg # of iterations =  3.2

     total cpu time spent up to now is     1912.8 secs

     total energy              =  -16385.02299886 Ry
     Harris-Foulkes estimate   =  -16385.09224684 Ry
     estimated scf accuracy    <       0.48219169 Ry

     iteration #  2     ecut=    71.00 Ry     beta= 0.10
     Davidson diagonalization with overlap
     ethr =  8.37E-05,  avg # of iterations =  1.0

     total cpu time spent up to now is     2390.5 secs

     total energy              =  -16384.93551422 Ry
     Harris-Foulkes estimate   =  -16385.03107064 Ry
     estimated scf accuracy    <       0.26250468 Ry

     iteration #  3     ecut=    71.00 Ry     beta= 0.10
     Davidson diagonalization with overlap
     ethr =  4.56E-05,  avg # of iterations =  2.2

     total cpu time spent up to now is     3077.2 secs

     total energy              =  -16384.96079903 Ry
     Harris-Foulkes estimate   =  -16384.97023227 Ry
     estimated scf accuracy    <       0.10247590 Ry

     iteration #  4     ecut=    71.00 Ry     beta= 0.10
     Davidson diagonalization with overlap
     c_bands:  1 eigenvalues not converged
     ethr =  1.78E-05,  avg # of iterations =  1.6

     total cpu time spent up to now is     3624.2 secs

     total energy              =  -16384.96350289 Ry
     Harris-Foulkes estimate   =  -16384.96541578 Ry
     estimated scf accuracy    <       0.02362142 Ry

     iteration #  5     ecut=    71.00 Ry     beta= 0.10
     Davidson diagonalization with overlap
     ethr =  4.10E-06,  avg # of iterations =  1.7

     total cpu time spent up to now is     4181.8 secs

     total energy              =  -16384.95777560 Ry
     Harris-Foulkes estimate   =  -16384.96375659 Ry
     estimated scf accuracy    <       0.01640432 Ry

     iteration #  6     ecut=    71.00 Ry     beta= 0.10
     Davidson diagonalization with overlap
     ethr =  2.85E-06,  avg # of iterations =  1.0

     total cpu time spent up to now is     4657.4 secs

     total energy              =  -16384.95855280 Ry
     Harris-Foulkes estimate   =  -16384.95870463 Ry
     estimated scf accuracy    <       0.00127216 Ry

     iteration #  7     ecut=    71.00 Ry     beta= 0.10
     Davidson diagonalization with overlap
     ethr =  2.21E-07,  avg # of iterations =  3.0

     total cpu time spent up to now is     5443.9 secs

     total energy              =  -16384.95871101 Ry
     Harris-Foulkes estimate   =  -16384.95875443 Ry
     estimated scf accuracy    <       0.00067937 Ry

     iteration #  8     ecut=    71.00 Ry     beta= 0.10
     Davidson diagonalization with overlap
     ethr =  1.18E-07,  avg # of iterations =  1.1

     total cpu time spent up to now is     5932.5 secs

     total energy              =  -16384.95873618 Ry
     Harris-Foulkes estimate   =  -16384.95873826 Ry
     estimated scf accuracy    <       0.00006051 Ry

     iteration #  9     ecut=    71.00 Ry     beta= 0.10
     Davidson diagonalization with overlap
     ethr =  1.05E-08,  avg # of iterations =  1.0

     total cpu time spent up to now is     6403.7 secs

     total energy              =  -16384.95873128 Ry
     Harris-Foulkes estimate   =  -16384.95873679 Ry
     estimated scf accuracy    <       0.00004709 Ry

     iteration # 10     ecut=    71.00 Ry     beta= 0.10
     Davidson diagonalization with overlap
     ethr =  8.18E-09,  avg # of iterations =  1.0

     total cpu time spent up to now is     6876.5 secs

     total energy              =  -16384.95873789 Ry
     Harris-Foulkes estimate   =  -16384.95873404 Ry
     estimated scf accuracy    <       0.00001353 Ry

     iteration # 11     ecut=    71.00 Ry     beta= 0.10
     Davidson diagonalization with overlap
     ethr =  2.35E-09,  avg # of iterations =  3.0

     total cpu time spent up to now is     7657.8 secs

     total energy              =  -16384.95874145 Ry
     Harris-Foulkes estimate   =  -16384.95873940 Ry
     estimated scf accuracy    <       0.00000416 Ry

     iteration # 12     ecut=    71.00 Ry     beta= 0.10
     Davidson diagonalization with overlap
     ethr =  7.23E-10,  avg # of iterations =  1.0

     total cpu time spent up to now is     8131.4 secs

     End of self-consistent calculation

     Number of k-points >= 100: set verbosity='high' to print the bands.

     the Fermi energy is    19.2314 ev

!    total energy              =  -16384.95875060 Ry
     Harris-Foulkes estimate   =  -16384.95874163 Ry
     estimated scf accuracy    <       0.00000079 Ry

     total all-electron energy =   -322945.812458 Ry

     The total energy is the sum of the following terms:

     one-electron contribution =   -2493.14691386 Ry
     hartree contribution      =    1663.21171686 Ry
     xc contribution           =    -986.46946076 Ry
     ewald contribution        =   -6401.16345062 Ry
     one-center paw contrib.   =   -8167.42436646 Ry
     smearing contrib. (-TS)   =       0.03372424 Ry

     convergence has been achieved in  12 iterations

     Forces acting on atoms (cartesian axes, Ry/au):

     atom    1 type  1   force =     0.00012860   -0.00021470    0.00009308
     atom    2 type  1   force =    -0.00032798    0.00083284    0.00040367
     atom    3 type  1   force =     0.00054042    0.00039123   -0.00190193
     atom    4 type  1   force =    -0.00009088   -0.00042723   -0.00137767
     atom    5 type  1   force =    -0.00159107   -0.00119146    0.00104279
     atom    6 type  1   force =    -0.00060342    0.00130776   -0.00030037
     atom    7 type  1   force =    -0.00058270   -0.00200105    0.00125289
     atom    8 type  1   force =    -0.00020938   -0.00008638   -0.00059806
     atom    9 type  1   force =     0.00018574   -0.00019503    0.00032027
     atom   10 type  1   force =    -0.00079867   -0.00046676   -0.00254173
     atom   11 type  1   force =    -0.00066819   -0.00111308   -0.00160422
     atom   12 type  1   force =    -0.00064070   -0.00017617   -0.00045285
     atom   13 type  1   force =    -0.00081761   -0.00128641   -0.00004906
     atom   14 type  1   force =    -0.00001671    0.00036753    0.00167718
     atom   15 type  1   force =    -0.00171681    0.00164704    0.00202085
     atom   16 type  1   force =     0.00242075    0.00144580    0.00070699
     atom   17 type  1   force =    -0.00153333    0.00013877    0.00029176
     atom   18 type  1   force =     0.00062682   -0.00020379    0.00141765
     atom   19 type  1   force =     0.00193102    0.00088980   -0.00037314
     atom   20 type  1   force =     0.00033140    0.00097649    0.00016998
     atom   21 type  1   force =     0.00074326   -0.00182543    0.00040176
     atom   22 type  1   force =    -0.00031216    0.00222696    0.00035377
     atom   23 type  1   force =     0.00044188    0.00007376   -0.00051370
     atom   24 type  1   force =     0.00067872    0.00067576   -0.00005700
     atom   25 type  1   force =     0.00001657   -0.00070989    0.00112497
     atom   26 type  1   force =     0.00126726   -0.00076293   -0.00057304
     atom   27 type  1   force =    -0.00068192    0.00025612    0.00058670
     atom   28 type  1   force =     0.00005690    0.00050990   -0.00029019
     atom   29 type  1   force =     0.00284746   -0.00115273   -0.00027515
     atom   30 type  1   force =    -0.00088953   -0.00020276    0.00046075
     atom   31 type  1   force =    -0.00016910   -0.00031938   -0.00131311
     atom   32 type  1   force =    -0.00056665    0.00059541   -0.00010384

     Total force =     0.009821     Total SCF correction =     0.007298
     SCF correction compared to forces is large: reduce conv_thr to get better values


     Computing stress (Cartesian axis) and pressure

          total   stress  (Ry/bohr**3)                   (kbar)     P=   -2.59
  -0.00001772  -0.00000033  -0.00000015         -2.61     -0.05     -0.02
  -0.00000033  -0.00001739   0.00000024         -0.05     -2.56      0.03
  -0.00000015   0.00000024  -0.00001765         -0.02      0.03     -2.60


     Writing output data file biMYVVLpIVMceYGi.save/
-------------------------------------------------------
Primary job  terminated normally, but 1 process returned
a non-zero exit code.. Per user-direction, the job has been aborted.
-------------------------------------------------------
--------------------------------------------------------------------------
mpirun detected that one or more processes exited with non-zero status, thus causing
the job to be terminated. The first process to do so was:

  Process name: [[29859,1],0]
  Exit code:    38
--------------------------------------------------------------------------
