--------------------------------------------------------------------------
WARNING: No preset parameters were found for the device that Open MPI
detected:

  Local host:            bear-pg0206u17a
  Device name:           mlx5_0
  Device vendor ID:      0x02c9
  Device vendor part ID: 4123

Default device parameters will be used, which may result in lower
performance.  You can edit any of the files specified by the
btl_openib_device_param_files MCA parameter to set values for your
device.

NOTE: You can turn off this warning by setting the MCA parameter
      btl_openib_warn_no_device_params_found to 0.
--------------------------------------------------------------------------
--------------------------------------------------------------------------
WARNING: There was an error initializing an OpenFabrics device.

  Local host:   bear-pg0206u17a
  Local device: mlx5_0
--------------------------------------------------------------------------

     Program PWSCF v.6.3 starts on 13Nov2020 at  8: 7: 0 

     This program is part of the open-source Quantum ESPRESSO suite
     for quantum simulation of materials; please cite
         "P. Giannozzi et al., J. Phys.:Condens. Matter 21 395502 (2009);
         "P. Giannozzi et al., J. Phys.:Condens. Matter 29 465901 (2017);
          URL http://www.quantum-espresso.org", 
     in publications or presentations arising from this work. More details at
     http://www.quantum-espresso.org/quote

     Parallel version (MPI & OpenMP), running on      40 processor cores
     Number of MPI processes:                40
     Threads/MPI process:                     1

     MPI processes distributed on     1 nodes
     R & G space division:  proc/nbgrp/npool/nimage =      40
     Reading input from wd/configs/2/config_0003.in
Warning: card &IONS ignored
Warning: card ION_DYNAMICS = 'BFGS', ignored
Warning: card / ignored
Warning: card &CELL ignored
Warning: card CELL_DYNAMICS = 'BFGS', ignored
Warning: card CELL_FACTOR = 2.0, ignored
Warning: card PRESS = 0.0, ignored
Warning: card / ignored

     Current dimensions of program PWSCF are:
     Max number of different atomic species (ntypx) = 10
     Max number of k-points (npk) =  40000
     Max angular momentum in pseudopotentials (lmaxx) =  3
               file Pd.pbe-spn-kjpaw_psl.1.0.0.UPF: wavefunction(s)  4S 5S 4D renormalized

     Subspace diagonalization in iterative solution of the eigenvalue problem:
     a serial algorithm will be used

 
     Parallelization info
     --------------------
     sticks:   dense  smooth     PW     G-vecs:    dense   smooth      PW
     Min         188     124     33                12336     6620     935
     Max         189     126     34                12341     6623     940
     Sum        7541    4989   1353               493479   264875   37561
 


     bravais-lattice index     =            0
     lattice parameter (alat)  =      14.8572  a.u.
     unit-cell volume          =    3279.4957 (a.u.)^3
     number of atoms/cell      =           32
     number of atomic types    =            1
     number of electrons       =       576.00
     number of Kohn-Sham states=          346
     kinetic-energy cutoff     =      71.0000  Ry
     charge density cutoff     =     430.0000  Ry
     convergence threshold     =      1.0E-06
     mixing beta               =       0.1000
     number of iterations used =           10  plain     mixing
     Exchange-correlation      = SLA PW PBX PBC ( 1  4  3  4 0 0)

     celldm(1)=  14.857156  celldm(2)=   0.000000  celldm(3)=   0.000000
     celldm(4)=   0.000000  celldm(5)=   0.000000  celldm(6)=   0.000000

     crystal axes: (cart. coord. in units of alat)
               a(1) = (   1.000000   0.000000   0.000000 )  
               a(2) = (   0.000000   1.000000   0.000000 )  
               a(3) = (   0.000000   0.000000   1.000000 )  

     reciprocal axes: (cart. coord. in units 2 pi/alat)
               b(1) = (  1.000000  0.000000  0.000000 )  
               b(2) = (  0.000000  1.000000  0.000000 )  
               b(3) = (  0.000000  0.000000  1.000000 )  


     PseudoPot. # 1 for Pd read from file:
     /rds/homes/b/bxp912/pp/Pd.pbe-spn-kjpaw_psl.1.0.0.UPF
     MD5 check sum: 790f2ebce206edfd9790dcb9844eca51
     Pseudo is Projector augmented-wave + core cor, Zval = 18.0
     Generated using "atomic" code by A. Dal Corso v.6.3
     Shape of augmentation charge: PSQ
     Using radial grid of 1235 points,  6 beta functions with: 
                l(1) =   0
                l(2) =   0
                l(3) =   1
                l(4) =   1
                l(5) =   2
                l(6) =   2
     Q(r) pseudized with 0 coefficients 


     atomic species   valence    mass     pseudopotential
        Pd            18.00   106.42000     Pd( 1.00)

     No symmetry found



   Cartesian axes

     site n.     atom                  positions (alat units)
         1           Pd  tau(   1) = (  -0.0007403  -0.0006535  -0.0005332  )
         2           Pd  tau(   2) = (   0.2494906   0.2489364  -0.0005285  )
         3           Pd  tau(   3) = (   0.2491360  -0.0006104   0.2499344  )
         4           Pd  tau(   4) = (  -0.0007142   0.2497765   0.2497045  )
         5           Pd  tau(   5) = (  -0.0001472  -0.0001548   0.4990823  )
         6           Pd  tau(   6) = (   0.2495724   0.2489828   0.4993343  )
         7           Pd  tau(   7) = (   0.2493840  -0.0003567   0.7490967  )
         8           Pd  tau(   8) = (  -0.0005602   0.2495605   0.7497589  )
         9           Pd  tau(   9) = (  -0.0001849   0.4995485  -0.0007048  )
        10           Pd  tau(  10) = (   0.2496139   0.7496892   0.0001602  )
        11           Pd  tau(  11) = (   0.2497156   0.4995507   0.2498430  )
        12           Pd  tau(  12) = (  -0.0005943   0.7494206   0.2493790  )
        13           Pd  tau(  13) = (  -0.0004466   0.4996480   0.4995305  )
        14           Pd  tau(  14) = (   0.2492530   0.7494569   0.4990610  )
        15           Pd  tau(  15) = (   0.2500188   0.4988939   0.7487020  )
        16           Pd  tau(  16) = (  -0.0013474   0.7487215   0.7493128  )
        17           Pd  tau(  17) = (   0.4997456  -0.0008795  -0.0007527  )
        18           Pd  tau(  18) = (   0.7491467   0.2495203  -0.0011524  )
        19           Pd  tau(  19) = (   0.7485774  -0.0008702   0.2494855  )
        20           Pd  tau(  20) = (   0.4992758   0.2492475   0.2489810  )
        21           Pd  tau(  21) = (   0.4991648  -0.0000709   0.4992706  )
        22           Pd  tau(  22) = (   0.7494675   0.2487016   0.4992288  )
        23           Pd  tau(  23) = (   0.7494004  -0.0008142   0.7493797  )
        24           Pd  tau(  24) = (   0.4993503   0.2490934   0.7493163  )
        25           Pd  tau(  25) = (   0.4990239   0.4995646  -0.0011238  )
        26           Pd  tau(  26) = (   0.7488589   0.7495280  -0.0001106  )
        27           Pd  tau(  27) = (   0.7495339   0.4989195   0.2492163  )
        28           Pd  tau(  28) = (   0.4995073   0.7488969   0.2497571  )
        29           Pd  tau(  29) = (   0.4986611   0.4995380   0.4994100  )
        30           Pd  tau(  30) = (   0.7496677   0.7493007   0.4990281  )
        31           Pd  tau(  31) = (   0.7492183   0.4993464   0.7496134  )
        32           Pd  tau(  32) = (   0.4993561   0.7492213   0.7491578  )

     number of k points=   365  Marzari-Vanderbilt smearing, width (Ry)=  0.0400

     Number of k-points >= 100: set verbosity='high' to print them.

     Dense  grid:   493479 G-vectors     FFT dimensions: ( 100, 100, 100)

     Smooth grid:   264875 G-vectors     FFT dimensions: (  80,  80,  80)

     Estimated max dynamical RAM per process >       1.72 GB

     Estimated total dynamical RAM >      68.84 GB

     Check: negative/imaginary core charge=   -0.000002    0.000000

     Initial potential from superposition of free atoms

     starting charge  575.98776, renormalised to  576.00000
     Starting wfcs are  320 randomized atomic wfcs +   26 random wfcs
     Checking if some PAW data can be deallocated... 

     total cpu time spent up to now is      141.0 secs

     Self-consistent Calculation

     iteration #  1     ecut=    71.00 Ry     beta= 0.10
     Davidson diagonalization with overlap
     ethr =  1.00E-02,  avg # of iterations =  3.1

     Threshold (ethr) on eigenvalues was too large:
     Diagonalizing with lowered threshold

     Davidson diagonalization with overlap
     ethr =  8.53E-05,  avg # of iterations =  3.3

     total cpu time spent up to now is     1911.1 secs

     total energy              =  -16385.02359624 Ry
     Harris-Foulkes estimate   =  -16385.09334780 Ry
     estimated scf accuracy    <       0.48544176 Ry

     iteration #  2     ecut=    71.00 Ry     beta= 0.10
     Davidson diagonalization with overlap
     ethr =  8.43E-05,  avg # of iterations =  1.0

     total cpu time spent up to now is     2391.5 secs

     total energy              =  -16384.93556380 Ry
     Harris-Foulkes estimate   =  -16385.03173705 Ry
     estimated scf accuracy    <       0.26406399 Ry

     iteration #  3     ecut=    71.00 Ry     beta= 0.10
     Davidson diagonalization with overlap
     ethr =  4.58E-05,  avg # of iterations =  2.2

     total cpu time spent up to now is     3079.4 secs

     total energy              =  -16384.96106385 Ry
     Harris-Foulkes estimate   =  -16384.97053954 Ry
     estimated scf accuracy    <       0.10311982 Ry

     iteration #  4     ecut=    71.00 Ry     beta= 0.10
     Davidson diagonalization with overlap
     ethr =  1.79E-05,  avg # of iterations =  1.6

     total cpu time spent up to now is     3625.9 secs

     total energy              =  -16384.96378656 Ry
     Harris-Foulkes estimate   =  -16384.96570479 Ry
     estimated scf accuracy    <       0.02370171 Ry

     iteration #  5     ecut=    71.00 Ry     beta= 0.10
     Davidson diagonalization with overlap
     ethr =  4.11E-06,  avg # of iterations =  1.5

     total cpu time spent up to now is     4160.6 secs

     total energy              =  -16384.95803518 Ry
     Harris-Foulkes estimate   =  -16384.96404162 Ry
     estimated scf accuracy    <       0.01646358 Ry

     iteration #  6     ecut=    71.00 Ry     beta= 0.10
     Davidson diagonalization with overlap
     ethr =  2.86E-06,  avg # of iterations =  1.0

     total cpu time spent up to now is     4633.7 secs

     total energy              =  -16384.95881352 Ry
     Harris-Foulkes estimate   =  -16384.95896804 Ry
     estimated scf accuracy    <       0.00129315 Ry

     iteration #  7     ecut=    71.00 Ry     beta= 0.10
     Davidson diagonalization with overlap
     ethr =  2.25E-07,  avg # of iterations =  3.2

     total cpu time spent up to now is     5443.0 secs

     total energy              =  -16384.95897335 Ry
     Harris-Foulkes estimate   =  -16384.95901731 Ry
     estimated scf accuracy    <       0.00068706 Ry

     iteration #  8     ecut=    71.00 Ry     beta= 0.10
     Davidson diagonalization with overlap
     ethr =  1.19E-07,  avg # of iterations =  1.1

     total cpu time spent up to now is     5929.4 secs

     total energy              =  -16384.95899881 Ry
     Harris-Foulkes estimate   =  -16384.95900092 Ry
     estimated scf accuracy    <       0.00006070 Ry

     iteration #  9     ecut=    71.00 Ry     beta= 0.10
     Davidson diagonalization with overlap
     ethr =  1.05E-08,  avg # of iterations =  1.0

     total cpu time spent up to now is     6397.7 secs

     total energy              =  -16384.95899394 Ry
     Harris-Foulkes estimate   =  -16384.95899942 Ry
     estimated scf accuracy    <       0.00004724 Ry

     iteration # 10     ecut=    71.00 Ry     beta= 0.10
     Davidson diagonalization with overlap
     ethr =  8.20E-09,  avg # of iterations =  1.0

     total cpu time spent up to now is     6887.9 secs

     total energy              =  -16384.95900052 Ry
     Harris-Foulkes estimate   =  -16384.95899666 Ry
     estimated scf accuracy    <       0.00001377 Ry

     iteration # 11     ecut=    71.00 Ry     beta= 0.10
     Davidson diagonalization with overlap
     ethr =  2.39E-09,  avg # of iterations =  3.0

     total cpu time spent up to now is     7679.2 secs

     total energy              =  -16384.95900411 Ry
     Harris-Foulkes estimate   =  -16384.95900206 Ry
     estimated scf accuracy    <       0.00000426 Ry

     iteration # 12     ecut=    71.00 Ry     beta= 0.10
     Davidson diagonalization with overlap
     ethr =  7.39E-10,  avg # of iterations =  1.0

     total cpu time spent up to now is     8148.5 secs

     End of self-consistent calculation

     Number of k-points >= 100: set verbosity='high' to print the bands.

     the Fermi energy is    19.2053 ev

!    total energy              =  -16384.95901326 Ry
     Harris-Foulkes estimate   =  -16384.95900429 Ry
     estimated scf accuracy    <       0.00000079 Ry

     total all-electron energy =   -322945.812720 Ry

     The total energy is the sum of the following terms:

     one-electron contribution =   -2496.49498312 Ry
     hartree contribution      =    1664.38962295 Ry
     xc contribution           =    -986.44615277 Ry
     ewald contribution        =   -6399.01834053 Ry
     one-center paw contrib.   =   -8167.42322119 Ry
     smearing contrib. (-TS)   =       0.03406140 Ry

     convergence has been achieved in  12 iterations

     Forces acting on atoms (cartesian axes, Ry/au):

     atom    1 type  1   force =     0.00012883   -0.00021337    0.00009288
     atom    2 type  1   force =    -0.00032689    0.00082916    0.00040158
     atom    3 type  1   force =     0.00053600    0.00039042   -0.00189290
     atom    4 type  1   force =    -0.00009045   -0.00042404   -0.00137042
     atom    5 type  1   force =    -0.00158251   -0.00118462    0.00103621
     atom    6 type  1   force =    -0.00060028    0.00130154   -0.00030000
     atom    7 type  1   force =    -0.00057936   -0.00199050    0.00124693
     atom    8 type  1   force =    -0.00020824   -0.00008470   -0.00059298
     atom    9 type  1   force =     0.00018576   -0.00019461    0.00031889
     atom   10 type  1   force =    -0.00079461   -0.00046539   -0.00252832
     atom   11 type  1   force =    -0.00066342   -0.00110738   -0.00159704
     atom   12 type  1   force =    -0.00063729   -0.00017556   -0.00045145
     atom   13 type  1   force =    -0.00081446   -0.00127976   -0.00004873
     atom   14 type  1   force =    -0.00001551    0.00036327    0.00166932
     atom   15 type  1   force =    -0.00170805    0.00163946    0.00201121
     atom   16 type  1   force =     0.00240842    0.00143640    0.00070370
     atom   17 type  1   force =    -0.00152584    0.00013799    0.00029088
     atom   18 type  1   force =     0.00062330   -0.00020170    0.00141046
     atom   19 type  1   force =     0.00192047    0.00088486   -0.00037157
     atom   20 type  1   force =     0.00033000    0.00097226    0.00016852
     atom   21 type  1   force =     0.00074006   -0.00181545    0.00039863
     atom   22 type  1   force =    -0.00031039    0.00221621    0.00034968
     atom   23 type  1   force =     0.00043960    0.00007448   -0.00051053
     atom   24 type  1   force =     0.00067548    0.00067365   -0.00005640
     atom   25 type  1   force =     0.00001627   -0.00070696    0.00111938
     atom   26 type  1   force =     0.00126068   -0.00075845   -0.00056762
     atom   27 type  1   force =    -0.00067855    0.00025425    0.00058470
     atom   28 type  1   force =     0.00005761    0.00050608   -0.00028889
     atom   29 type  1   force =     0.00283245   -0.00114564   -0.00027409
     atom   30 type  1   force =    -0.00088572   -0.00020414    0.00045695
     atom   31 type  1   force =    -0.00016794   -0.00031781   -0.00130657
     atom   32 type  1   force =    -0.00056542    0.00059005   -0.00010242

     Total force =     0.009770     Total SCF correction =     0.007308
     SCF correction compared to forces is large: reduce conv_thr to get better values


     Computing stress (Cartesian axis) and pressure

          total   stress  (Ry/bohr**3)                   (kbar)     P=   -4.37
  -0.00002985  -0.00000033  -0.00000015         -4.39     -0.05     -0.02
  -0.00000033  -0.00002952   0.00000024         -0.05     -4.34      0.03
  -0.00000015   0.00000024  -0.00002978         -0.02      0.03     -4.38


     Writing output data file AzWblRiGnUBpyMuG.save/
-------------------------------------------------------
Primary job  terminated normally, but 1 process returned
a non-zero exit code.. Per user-direction, the job has been aborted.
-------------------------------------------------------
--------------------------------------------------------------------------
mpirun detected that one or more processes exited with non-zero status, thus causing
the job to be terminated. The first process to do so was:

  Process name: [[48670,1],0]
  Exit code:    38
--------------------------------------------------------------------------
