--------------------------------------------------------------------------
WARNING: No preset parameters were found for the device that Open MPI
detected:

  Local host:            bear-pg0206u17a
  Device name:           mlx5_0
  Device vendor ID:      0x02c9
  Device vendor part ID: 4123

Default device parameters will be used, which may result in lower
performance.  You can edit any of the files specified by the
btl_openib_device_param_files MCA parameter to set values for your
device.

NOTE: You can turn off this warning by setting the MCA parameter
      btl_openib_warn_no_device_params_found to 0.
--------------------------------------------------------------------------
--------------------------------------------------------------------------
WARNING: There was an error initializing an OpenFabrics device.

  Local host:   bear-pg0206u17a
  Local device: mlx5_0
--------------------------------------------------------------------------

     Program PWSCF v.6.3 starts on 13Nov2020 at  0:39:12 

     This program is part of the open-source Quantum ESPRESSO suite
     for quantum simulation of materials; please cite
         "P. Giannozzi et al., J. Phys.:Condens. Matter 21 395502 (2009);
         "P. Giannozzi et al., J. Phys.:Condens. Matter 29 465901 (2017);
          URL http://www.quantum-espresso.org", 
     in publications or presentations arising from this work. More details at
     http://www.quantum-espresso.org/quote

     Parallel version (MPI & OpenMP), running on      40 processor cores
     Number of MPI processes:                40
     Threads/MPI process:                     1

     MPI processes distributed on     1 nodes
     R & G space division:  proc/nbgrp/npool/nimage =      40
     Reading input from wd/configs/1/config_0005.in
Warning: card &IONS ignored
Warning: card ION_DYNAMICS = 'BFGS', ignored
Warning: card / ignored
Warning: card &CELL ignored
Warning: card CELL_DYNAMICS = 'BFGS', ignored
Warning: card CELL_FACTOR = 2.0, ignored
Warning: card PRESS = 0.0, ignored
Warning: card / ignored

     Current dimensions of program PWSCF are:
     Max number of different atomic species (ntypx) = 10
     Max number of k-points (npk) =  40000
     Max angular momentum in pseudopotentials (lmaxx) =  3
               file Pd.pbe-spn-kjpaw_psl.1.0.0.UPF: wavefunction(s)  4S 5S 4D renormalized

     Subspace diagonalization in iterative solution of the eigenvalue problem:
     a serial algorithm will be used

 
     Parallelization info
     --------------------
     sticks:   dense  smooth     PW     G-vecs:    dense   smooth      PW
     Min         188     124     33                12330     6620     935
     Max         189     126     34                12335     6623     940
     Sum        7533    4989   1353               493239   264875   37561
 


     bravais-lattice index     =            0
     lattice parameter (alat)  =      14.8554  a.u.
     unit-cell volume          =    3278.3647 (a.u.)^3
     number of atoms/cell      =           32
     number of atomic types    =            1
     number of electrons       =       576.00
     number of Kohn-Sham states=          346
     kinetic-energy cutoff     =      71.0000  Ry
     charge density cutoff     =     430.0000  Ry
     convergence threshold     =      1.0E-06
     mixing beta               =       0.1000
     number of iterations used =           10  plain     mixing
     Exchange-correlation      = SLA PW PBX PBC ( 1  4  3  4 0 0)

     celldm(1)=  14.855448  celldm(2)=   0.000000  celldm(3)=   0.000000
     celldm(4)=   0.000000  celldm(5)=   0.000000  celldm(6)=   0.000000

     crystal axes: (cart. coord. in units of alat)
               a(1) = (   1.000000   0.000000   0.000000 )  
               a(2) = (   0.000000   1.000000   0.000000 )  
               a(3) = (   0.000000   0.000000   1.000000 )  

     reciprocal axes: (cart. coord. in units 2 pi/alat)
               b(1) = (  1.000000  0.000000  0.000000 )  
               b(2) = (  0.000000  1.000000  0.000000 )  
               b(3) = (  0.000000  0.000000  1.000000 )  


     PseudoPot. # 1 for Pd read from file:
     /rds/homes/b/bxp912/pp/Pd.pbe-spn-kjpaw_psl.1.0.0.UPF
     MD5 check sum: 790f2ebce206edfd9790dcb9844eca51
     Pseudo is Projector augmented-wave + core cor, Zval = 18.0
     Generated using "atomic" code by A. Dal Corso v.6.3
     Shape of augmentation charge: PSQ
     Using radial grid of 1235 points,  6 beta functions with: 
                l(1) =   0
                l(2) =   0
                l(3) =   1
                l(4) =   1
                l(5) =   2
                l(6) =   2
     Q(r) pseudized with 0 coefficients 


     atomic species   valence    mass     pseudopotential
        Pd            18.00   106.42000     Pd( 1.00)

     No symmetry found



   Cartesian axes

     site n.     atom                  positions (alat units)
         1           Pd  tau(   1) = (  -0.0007403  -0.0006536  -0.0005333  )
         2           Pd  tau(   2) = (   0.2494905   0.2489363  -0.0005286  )
         3           Pd  tau(   3) = (   0.2491359  -0.0006105   0.2499344  )
         4           Pd  tau(   4) = (  -0.0007143   0.2497765   0.2497045  )
         5           Pd  tau(   5) = (  -0.0001472  -0.0001548   0.4990822  )
         6           Pd  tau(   6) = (   0.2495724   0.2489826   0.4993342  )
         7           Pd  tau(   7) = (   0.2493840  -0.0003568   0.7490966  )
         8           Pd  tau(   8) = (  -0.0005602   0.2495605   0.7497588  )
         9           Pd  tau(   9) = (  -0.0001849   0.4995485  -0.0007049  )
        10           Pd  tau(  10) = (   0.2496139   0.7496891   0.0001603  )
        11           Pd  tau(  11) = (   0.2497156   0.4995506   0.2498430  )
        12           Pd  tau(  12) = (  -0.0005943   0.7494205   0.2493789  )
        13           Pd  tau(  13) = (  -0.0004467   0.4996479   0.4995304  )
        14           Pd  tau(  14) = (   0.2492529   0.7494569   0.4990609  )
        15           Pd  tau(  15) = (   0.2500188   0.4988938   0.7487019  )
        16           Pd  tau(  16) = (  -0.0013475   0.7487214   0.7493128  )
        17           Pd  tau(  17) = (   0.4997456  -0.0008796  -0.0007528  )
        18           Pd  tau(  18) = (   0.7491466   0.2495203  -0.0011525  )
        19           Pd  tau(  19) = (   0.7485772  -0.0008703   0.2494854  )
        20           Pd  tau(  20) = (   0.4992758   0.2492474   0.2489809  )
        21           Pd  tau(  21) = (   0.4991647  -0.0000709   0.4992705  )
        22           Pd  tau(  22) = (   0.7494674   0.2487015   0.4992287  )
        23           Pd  tau(  23) = (   0.7494003  -0.0008143   0.7493796  )
        24           Pd  tau(  24) = (   0.4993503   0.2490933   0.7493162  )
        25           Pd  tau(  25) = (   0.4990238   0.4995645  -0.0011239  )
        26           Pd  tau(  26) = (   0.7488588   0.7495280  -0.0001106  )
        27           Pd  tau(  27) = (   0.7495339   0.4989193   0.2492162  )
        28           Pd  tau(  28) = (   0.4995073   0.7488967   0.2497571  )
        29           Pd  tau(  29) = (   0.4986609   0.4995380   0.4994099  )
        30           Pd  tau(  30) = (   0.7496677   0.7493006   0.4990280  )
        31           Pd  tau(  31) = (   0.7492182   0.4993463   0.7496133  )
        32           Pd  tau(  32) = (   0.4993560   0.7492212   0.7491577  )

     number of k points=   365  Marzari-Vanderbilt smearing, width (Ry)=  0.0400

     Number of k-points >= 100: set verbosity='high' to print them.

     Dense  grid:   493239 G-vectors     FFT dimensions: ( 100, 100, 100)

     Smooth grid:   264875 G-vectors     FFT dimensions: (  80,  80,  80)

     Estimated max dynamical RAM per process >       1.72 GB

     Estimated total dynamical RAM >      68.84 GB

     Check: negative/imaginary core charge=   -0.000002    0.000000

     Initial potential from superposition of free atoms

     starting charge  575.98776, renormalised to  576.00000
     Starting wfcs are  320 randomized atomic wfcs +   26 random wfcs
     Checking if some PAW data can be deallocated... 

     total cpu time spent up to now is      142.5 secs

     Self-consistent Calculation

     iteration #  1     ecut=    71.00 Ry     beta= 0.10
     Davidson diagonalization with overlap
     ethr =  1.00E-02,  avg # of iterations =  3.1

     Threshold (ethr) on eigenvalues was too large:
     Diagonalizing with lowered threshold

     Davidson diagonalization with overlap
     ethr =  8.51E-05,  avg # of iterations =  3.2

     total cpu time spent up to now is     1908.5 secs

     total energy              =  -16385.02337564 Ry
     Harris-Foulkes estimate   =  -16385.09295377 Ry
     estimated scf accuracy    <       0.48432281 Ry

     iteration #  2     ecut=    71.00 Ry     beta= 0.10
     Davidson diagonalization with overlap
     ethr =  8.41E-05,  avg # of iterations =  1.0

     total cpu time spent up to now is     2380.3 secs

     total energy              =  -16384.93553174 Ry
     Harris-Foulkes estimate   =  -16385.03149200 Ry
     estimated scf accuracy    <       0.26352692 Ry

     iteration #  3     ecut=    71.00 Ry     beta= 0.10
     Davidson diagonalization with overlap
     ethr =  4.58E-05,  avg # of iterations =  2.1

     total cpu time spent up to now is     3060.7 secs

     total energy              =  -16384.96095692 Ry
     Harris-Foulkes estimate   =  -16384.97041828 Ry
     estimated scf accuracy    <       0.10290106 Ry

     iteration #  4     ecut=    71.00 Ry     beta= 0.10
     Davidson diagonalization with overlap
     c_bands:  1 eigenvalues not converged
     ethr =  1.79E-05,  avg # of iterations =  1.6

     total cpu time spent up to now is     3608.9 secs

     total energy              =  -16384.96367324 Ry
     Harris-Foulkes estimate   =  -16384.96558954 Ry
     estimated scf accuracy    <       0.02367410 Ry

     iteration #  5     ecut=    71.00 Ry     beta= 0.10
     Davidson diagonalization with overlap
     ethr =  4.11E-06,  avg # of iterations =  1.5

     total cpu time spent up to now is     4144.9 secs

     total energy              =  -16384.95793026 Ry
     Harris-Foulkes estimate   =  -16384.96392778 Ry
     estimated scf accuracy    <       0.01644321 Ry

     iteration #  6     ecut=    71.00 Ry     beta= 0.10
     Davidson diagonalization with overlap
     ethr =  2.85E-06,  avg # of iterations =  1.0

     total cpu time spent up to now is     4618.4 secs

     total energy              =  -16384.95870813 Ry
     Harris-Foulkes estimate   =  -16384.95886174 Ry
     estimated scf accuracy    <       0.00128612 Ry

     iteration #  7     ecut=    71.00 Ry     beta= 0.10
     Davidson diagonalization with overlap
     ethr =  2.23E-07,  avg # of iterations =  3.0

     total cpu time spent up to now is     5401.0 secs

     total energy              =  -16384.95886742 Ry
     Harris-Foulkes estimate   =  -16384.95891119 Ry
     estimated scf accuracy    <       0.00068442 Ry

     iteration #  8     ecut=    71.00 Ry     beta= 0.10
     Davidson diagonalization with overlap
     ethr =  1.19E-07,  avg # of iterations =  1.2

     total cpu time spent up to now is     5897.2 secs

     total energy              =  -16384.95889277 Ry
     Harris-Foulkes estimate   =  -16384.95889487 Ry
     estimated scf accuracy    <       0.00006064 Ry

     iteration #  9     ecut=    71.00 Ry     beta= 0.10
     Davidson diagonalization with overlap
     ethr =  1.05E-08,  avg # of iterations =  1.0

     total cpu time spent up to now is     6367.1 secs

     total energy              =  -16384.95888789 Ry
     Harris-Foulkes estimate   =  -16384.95889338 Ry
     estimated scf accuracy    <       0.00004719 Ry

     iteration # 10     ecut=    71.00 Ry     beta= 0.10
     Davidson diagonalization with overlap
     ethr =  8.19E-09,  avg # of iterations =  1.0

     total cpu time spent up to now is     6836.1 secs

     total energy              =  -16384.95889448 Ry
     Harris-Foulkes estimate   =  -16384.95889063 Ry
     estimated scf accuracy    <       0.00001369 Ry

     iteration # 11     ecut=    71.00 Ry     beta= 0.10
     Davidson diagonalization with overlap
     ethr =  2.38E-09,  avg # of iterations =  3.0

     total cpu time spent up to now is     7612.8 secs

     total energy              =  -16384.95889806 Ry
     Harris-Foulkes estimate   =  -16384.95889601 Ry
     estimated scf accuracy    <       0.00000423 Ry

     iteration # 12     ecut=    71.00 Ry     beta= 0.10
     Davidson diagonalization with overlap
     ethr =  7.34E-10,  avg # of iterations =  1.0

     total cpu time spent up to now is     8083.3 secs

     End of self-consistent calculation

     Number of k-points >= 100: set verbosity='high' to print the bands.

     the Fermi energy is    19.2142 ev

!    total energy              =  -16384.95890721 Ry
     Harris-Foulkes estimate   =  -16384.95889824 Ry
     estimated scf accuracy    <       0.00000079 Ry

     total all-electron energy =   -322945.812614 Ry

     The total energy is the sum of the following terms:

     one-electron contribution =   -2495.34639734 Ry
     hartree contribution      =    1663.98547286 Ry
     xc contribution           =    -986.45413274 Ry
     ewald contribution        =   -6399.75416133 Ry
     one-center paw contrib.   =   -8167.42363426 Ry
     smearing contrib. (-TS)   =       0.03394560 Ry

     convergence has been achieved in  12 iterations

     Forces acting on atoms (cartesian axes, Ry/au):

     atom    1 type  1   force =     0.00012878   -0.00021379    0.00009288
     atom    2 type  1   force =    -0.00032741    0.00083039    0.00040243
     atom    3 type  1   force =     0.00053735    0.00039082   -0.00189603
     atom    4 type  1   force =    -0.00009045   -0.00042511   -0.00137306
     atom    5 type  1   force =    -0.00158544   -0.00118711    0.00103882
     atom    6 type  1   force =    -0.00060148    0.00130374   -0.00030012
     atom    7 type  1   force =    -0.00058075   -0.00199405    0.00124904
     atom    8 type  1   force =    -0.00020881   -0.00008538   -0.00059484
     atom    9 type  1   force =     0.00018569   -0.00019476    0.00031928
     atom   10 type  1   force =    -0.00079611   -0.00046595   -0.00253295
     atom   11 type  1   force =    -0.00066519   -0.00110936   -0.00159952
     atom   12 type  1   force =    -0.00063864   -0.00017579   -0.00045202
     atom   13 type  1   force =    -0.00081558   -0.00128206   -0.00004877
     atom   14 type  1   force =    -0.00001608    0.00036465    0.00167211
     atom   15 type  1   force =    -0.00171129    0.00164217    0.00201457
     atom   16 type  1   force =     0.00241256    0.00143978    0.00070469
     atom   17 type  1   force =    -0.00152834    0.00013821    0.00029108
     atom   18 type  1   force =     0.00062460   -0.00020238    0.00141276
     atom   19 type  1   force =     0.00192410    0.00088634   -0.00037214
     atom   20 type  1   force =     0.00033042    0.00097371    0.00016899
     atom   21 type  1   force =     0.00074131   -0.00181885    0.00039975
     atom   22 type  1   force =    -0.00031094    0.00222005    0.00035133
     atom   23 type  1   force =     0.00044054    0.00007420   -0.00051163
     atom   24 type  1   force =     0.00067681    0.00067427   -0.00005658
     atom   25 type  1   force =     0.00001649   -0.00070786    0.00112124
     atom   26 type  1   force =     0.00126293   -0.00076003   -0.00056957
     atom   27 type  1   force =    -0.00067963    0.00025515    0.00058541
     atom   28 type  1   force =     0.00005766    0.00050728   -0.00028928
     atom   29 type  1   force =     0.00283772   -0.00114804   -0.00027453
     atom   30 type  1   force =    -0.00088698   -0.00020367    0.00045823
     atom   31 type  1   force =    -0.00016822   -0.00031843   -0.00130874
     atom   32 type  1   force =    -0.00056561    0.00059187   -0.00010284

     Total force =     0.009788     Total SCF correction =     0.007304
     SCF correction compared to forces is large: reduce conv_thr to get better values


     Computing stress (Cartesian axis) and pressure

          total   stress  (Ry/bohr**3)                   (kbar)     P=   -3.76
  -0.00002571  -0.00000033  -0.00000015         -3.78     -0.05     -0.02
  -0.00000033  -0.00002538   0.00000024         -0.05     -3.73      0.03
  -0.00000015   0.00000024  -0.00002565         -0.02      0.03     -3.77


     Writing output data file TCIHApuOoBUIwqAW.save/
-------------------------------------------------------
Primary job  terminated normally, but 1 process returned
a non-zero exit code.. Per user-direction, the job has been aborted.
-------------------------------------------------------
--------------------------------------------------------------------------
mpirun detected that one or more processes exited with non-zero status, thus causing
the job to be terminated. The first process to do so was:

  Process name: [[8703,1],0]
  Exit code:    38
--------------------------------------------------------------------------
