--------------------------------------------------------------------------
WARNING: No preset parameters were found for the device that Open MPI
detected:

  Local host:            bear-pg0206u17a
  Device name:           mlx5_0
  Device vendor ID:      0x02c9
  Device vendor part ID: 4123

Default device parameters will be used, which may result in lower
performance.  You can edit any of the files specified by the
btl_openib_device_param_files MCA parameter to set values for your
device.

NOTE: You can turn off this warning by setting the MCA parameter
      btl_openib_warn_no_device_params_found to 0.
--------------------------------------------------------------------------
--------------------------------------------------------------------------
WARNING: There was an error initializing an OpenFabrics device.

  Local host:   bear-pg0206u17a
  Local device: mlx5_0
--------------------------------------------------------------------------

     Program PWSCF v.6.3 starts on 13Nov2020 at 13: 6:16 

     This program is part of the open-source Quantum ESPRESSO suite
     for quantum simulation of materials; please cite
         "P. Giannozzi et al., J. Phys.:Condens. Matter 21 395502 (2009);
         "P. Giannozzi et al., J. Phys.:Condens. Matter 29 465901 (2017);
          URL http://www.quantum-espresso.org", 
     in publications or presentations arising from this work. More details at
     http://www.quantum-espresso.org/quote

     Parallel version (MPI & OpenMP), running on      40 processor cores
     Number of MPI processes:                40
     Threads/MPI process:                     1

     MPI processes distributed on     1 nodes
     R & G space division:  proc/nbgrp/npool/nimage =      40
     Reading input from wd/configs/2/config_0005.in
Warning: card &IONS ignored
Warning: card ION_DYNAMICS = 'BFGS', ignored
Warning: card / ignored
Warning: card &CELL ignored
Warning: card CELL_DYNAMICS = 'BFGS', ignored
Warning: card CELL_FACTOR = 2.0, ignored
Warning: card PRESS = 0.0, ignored
Warning: card / ignored

     Current dimensions of program PWSCF are:
     Max number of different atomic species (ntypx) = 10
     Max number of k-points (npk) =  40000
     Max angular momentum in pseudopotentials (lmaxx) =  3
               file Pd.pbe-spn-kjpaw_psl.1.0.0.UPF: wavefunction(s)  4S 5S 4D renormalized

     Subspace diagonalization in iterative solution of the eigenvalue problem:
     a serial algorithm will be used

 
     Parallelization info
     --------------------
     sticks:   dense  smooth     PW     G-vecs:    dense   smooth      PW
     Min         188     123     33                12300     6591     935
     Max         189     124     34                12305     6598     940
     Sum        7521    4957   1353               492057   263859   37529
 


     bravais-lattice index     =            0
     lattice parameter (alat)  =      14.8422  a.u.
     unit-cell volume          =    3269.6089 (a.u.)^3
     number of atoms/cell      =           32
     number of atomic types    =            1
     number of electrons       =       576.00
     number of Kohn-Sham states=          346
     kinetic-energy cutoff     =      71.0000  Ry
     charge density cutoff     =     430.0000  Ry
     convergence threshold     =      1.0E-06
     mixing beta               =       0.1000
     number of iterations used =           10  plain     mixing
     Exchange-correlation      = SLA PW PBX PBC ( 1  4  3  4 0 0)

     celldm(1)=  14.842211  celldm(2)=   0.000000  celldm(3)=   0.000000
     celldm(4)=   0.000000  celldm(5)=   0.000000  celldm(6)=   0.000000

     crystal axes: (cart. coord. in units of alat)
               a(1) = (   1.000000   0.000000   0.000000 )  
               a(2) = (   0.000000   1.000000   0.000000 )  
               a(3) = (   0.000000   0.000000   1.000000 )  

     reciprocal axes: (cart. coord. in units 2 pi/alat)
               b(1) = (  1.000000  0.000000  0.000000 )  
               b(2) = (  0.000000  1.000000  0.000000 )  
               b(3) = (  0.000000  0.000000  1.000000 )  


     PseudoPot. # 1 for Pd read from file:
     /rds/homes/b/bxp912/pp/Pd.pbe-spn-kjpaw_psl.1.0.0.UPF
     MD5 check sum: 790f2ebce206edfd9790dcb9844eca51
     Pseudo is Projector augmented-wave + core cor, Zval = 18.0
     Generated using "atomic" code by A. Dal Corso v.6.3
     Shape of augmentation charge: PSQ
     Using radial grid of 1235 points,  6 beta functions with: 
                l(1) =   0
                l(2) =   0
                l(3) =   1
                l(4) =   1
                l(5) =   2
                l(6) =   2
     Q(r) pseudized with 0 coefficients 


     atomic species   valence    mass     pseudopotential
        Pd            18.00   106.42000     Pd( 1.00)

     No symmetry found



   Cartesian axes

     site n.     atom                  positions (alat units)
         1           Pd  tau(   1) = (  -0.0007410  -0.0006542  -0.0005338  )
         2           Pd  tau(   2) = (   0.2494900   0.2489353  -0.0005290  )
         3           Pd  tau(   3) = (   0.2491351  -0.0006110   0.2499343  )
         4           Pd  tau(   4) = (  -0.0007149   0.2497763   0.2497042  )
         5           Pd  tau(   5) = (  -0.0001474  -0.0001549   0.4990813  )
         6           Pd  tau(   6) = (   0.2495720   0.2489817   0.4993336  )
         7           Pd  tau(   7) = (   0.2493834  -0.0003571   0.7490958  )
         8           Pd  tau(   8) = (  -0.0005607   0.2495601   0.7497586  )
         9           Pd  tau(   9) = (  -0.0001851   0.4995481  -0.0007055  )
        10           Pd  tau(  10) = (   0.2496135   0.7496889   0.0001604  )
        11           Pd  tau(  11) = (   0.2497154   0.4995502   0.2498429  )
        12           Pd  tau(  12) = (  -0.0005949   0.7494200   0.2493784  )
        13           Pd  tau(  13) = (  -0.0004471   0.4996476   0.4995300  )
        14           Pd  tau(  14) = (   0.2492522   0.7494564   0.4990601  )
        15           Pd  tau(  15) = (   0.2500188   0.4988928   0.7487007  )
        16           Pd  tau(  16) = (  -0.0013487   0.7487203   0.7493121  )
        17           Pd  tau(  17) = (   0.4997454  -0.0008804  -0.0007534  )
        18           Pd  tau(  18) = (   0.7491459   0.2495198  -0.0011535  )
        19           Pd  tau(  19) = (   0.7485759  -0.0008711   0.2494850  )
        20           Pd  tau(  20) = (   0.4992751   0.2492467   0.2489799  )
        21           Pd  tau(  21) = (   0.4991639  -0.0000710   0.4992698  )
        22           Pd  tau(  22) = (   0.7494669   0.2487003   0.4992280  )
        23           Pd  tau(  23) = (   0.7493998  -0.0008150   0.7493790  )
        24           Pd  tau(  24) = (   0.4993497   0.2490925   0.7493156  )
        25           Pd  tau(  25) = (   0.4990229   0.4995641  -0.0011249  )
        26           Pd  tau(  26) = (   0.7488577   0.7495275  -0.0001107  )
        27           Pd  tau(  27) = (   0.7495335   0.4989184   0.2492155  )
        28           Pd  tau(  28) = (   0.4995068   0.7488958   0.2497569  )
        29           Pd  tau(  29) = (   0.4986597   0.4995376   0.4994094  )
        30           Pd  tau(  30) = (   0.7496674   0.7493000   0.4990272  )
        31           Pd  tau(  31) = (   0.7492175   0.4993457   0.7496130  )
        32           Pd  tau(  32) = (   0.4993555   0.7492206   0.7491569  )

     number of k points=   365  Marzari-Vanderbilt smearing, width (Ry)=  0.0400

     Number of k-points >= 100: set verbosity='high' to print them.

     Dense  grid:   492057 G-vectors     FFT dimensions: ( 100, 100, 100)

     Smooth grid:   263859 G-vectors     FFT dimensions: (  80,  80,  80)

     Estimated max dynamical RAM per process >       1.72 GB

     Estimated total dynamical RAM >      68.60 GB

     Check: negative/imaginary core charge=   -0.000002    0.000000

     Initial potential from superposition of free atoms

     starting charge  575.98776, renormalised to  576.00000
     Starting wfcs are  320 randomized atomic wfcs +   26 random wfcs
     Checking if some PAW data can be deallocated... 

     total cpu time spent up to now is      143.1 secs

     Self-consistent Calculation

     iteration #  1     ecut=    71.00 Ry     beta= 0.10
     Davidson diagonalization with overlap
     ethr =  1.00E-02,  avg # of iterations =  3.1

     Threshold (ethr) on eigenvalues was too large:
     Diagonalizing with lowered threshold

     Davidson diagonalization with overlap
     ethr =  8.36E-05,  avg # of iterations =  3.3

     total cpu time spent up to now is     1914.4 secs

     total energy              =  -16385.02174371 Ry
     Harris-Foulkes estimate   =  -16385.08999585 Ry
     estimated scf accuracy    <       0.47576511 Ry

     iteration #  2     ecut=    71.00 Ry     beta= 0.10
     Davidson diagonalization with overlap
     ethr =  8.26E-05,  avg # of iterations =  1.0

     total cpu time spent up to now is     2390.8 secs

     total energy              =  -16384.93536265 Ry
     Harris-Foulkes estimate   =  -16385.02968571 Ry
     estimated scf accuracy    <       0.25940422 Ry

     iteration #  3     ecut=    71.00 Ry     beta= 0.10
     Davidson diagonalization with overlap
     ethr =  4.50E-05,  avg # of iterations =  2.2

     total cpu time spent up to now is     3077.6 secs

     total energy              =  -16384.96021414 Ry
     Harris-Foulkes estimate   =  -16384.96956595 Ry
     estimated scf accuracy    <       0.10122946 Ry

     iteration #  4     ecut=    71.00 Ry     beta= 0.10
     Davidson diagonalization with overlap
     ethr =  1.76E-05,  avg # of iterations =  1.6

     total cpu time spent up to now is     3624.4 secs

     total energy              =  -16384.96288086 Ry
     Harris-Foulkes estimate   =  -16384.96478347 Ry
     estimated scf accuracy    <       0.02346058 Ry

     iteration #  5     ecut=    71.00 Ry     beta= 0.10
     Davidson diagonalization with overlap
     ethr =  4.07E-06,  avg # of iterations =  1.5

     total cpu time spent up to now is     4167.3 secs

     total energy              =  -16384.95720199 Ry
     Harris-Foulkes estimate   =  -16384.96313187 Ry
     estimated scf accuracy    <       0.01628587 Ry

     iteration #  6     ecut=    71.00 Ry     beta= 0.10
     Davidson diagonalization with overlap
     ethr =  2.83E-06,  avg # of iterations =  1.0

     total cpu time spent up to now is     4639.1 secs

     total energy              =  -16384.95797641 Ry
     Harris-Foulkes estimate   =  -16384.95812289 Ry
     estimated scf accuracy    <       0.00123132 Ry

     iteration #  7     ecut=    71.00 Ry     beta= 0.10
     Davidson diagonalization with overlap
     ethr =  2.14E-07,  avg # of iterations =  3.1

     total cpu time spent up to now is     5435.3 secs

     total energy              =  -16384.95813168 Ry
     Harris-Foulkes estimate   =  -16384.95817388 Ry
     estimated scf accuracy    <       0.00066416 Ry

     iteration #  8     ecut=    71.00 Ry     beta= 0.10
     Davidson diagonalization with overlap
     ethr =  1.15E-07,  avg # of iterations =  1.1

     total cpu time spent up to now is     5919.4 secs

     total energy              =  -16384.95815640 Ry
     Harris-Foulkes estimate   =  -16384.95815830 Ry
     estimated scf accuracy    <       0.00006011 Ry

     iteration #  9     ecut=    71.00 Ry     beta= 0.10
     Davidson diagonalization with overlap
     ethr =  1.04E-08,  avg # of iterations =  1.0

     total cpu time spent up to now is     6386.8 secs

     total energy              =  -16384.95815154 Ry
     Harris-Foulkes estimate   =  -16384.95815699 Ry
     estimated scf accuracy    <       0.00004679 Ry

     iteration # 10     ecut=    71.00 Ry     beta= 0.10
     Davidson diagonalization with overlap
     ethr =  8.12E-09,  avg # of iterations =  1.1

     total cpu time spent up to now is     6864.5 secs

     total energy              =  -16384.95815825 Ry
     Harris-Foulkes estimate   =  -16384.95815436 Ry
     estimated scf accuracy    <       0.00001305 Ry

     iteration # 11     ecut=    71.00 Ry     beta= 0.10
     Davidson diagonalization with overlap
     ethr =  2.27E-09,  avg # of iterations =  3.0

     total cpu time spent up to now is     7651.3 secs

     total energy              =  -16384.95816183 Ry
     Harris-Foulkes estimate   =  -16384.95815972 Ry
     estimated scf accuracy    <       0.00000398 Ry

     iteration # 12     ecut=    71.00 Ry     beta= 0.10
     Davidson diagonalization with overlap
     ethr =  6.91E-10,  avg # of iterations =  1.0

     total cpu time spent up to now is     8121.4 secs

     End of self-consistent calculation

     Number of k-points >= 100: set verbosity='high' to print the bands.

     the Fermi energy is    19.2838 ev

!    total energy              =  -16384.95817123 Ry
     Harris-Foulkes estimate   =  -16384.95816201 Ry
     estimated scf accuracy    <       0.00000078 Ry

     total all-electron energy =   -322945.811878 Ry

     The total energy is the sum of the following terms:

     one-electron contribution =   -2486.44008498 Ry
     hartree contribution      =    1660.85348824 Ry
     xc contribution           =    -986.51634060 Ry
     ewald contribution        =   -6405.46168243 Ry
     one-center paw contrib.   =   -8167.42660302 Ry
     smearing contrib. (-TS)   =       0.03305158 Ry

     convergence has been achieved in  12 iterations

     Forces acting on atoms (cartesian axes, Ry/au):

     atom    1 type  1   force =     0.00012849   -0.00021652    0.00009276
     atom    2 type  1   force =    -0.00033030    0.00083957    0.00040763
     atom    3 type  1   force =     0.00054956    0.00039338   -0.00192022
     atom    4 type  1   force =    -0.00009148   -0.00043336   -0.00139179
     atom    5 type  1   force =    -0.00160807   -0.00120507    0.00105659
     atom    6 type  1   force =    -0.00061042    0.00132053   -0.00030142
     atom    7 type  1   force =    -0.00058992   -0.00202172    0.00126498
     atom    8 type  1   force =    -0.00021174   -0.00009072   -0.00060813
     atom    9 type  1   force =     0.00018610   -0.00019625    0.00032314
     atom   10 type  1   force =    -0.00080644   -0.00046940   -0.00256885
     atom   11 type  1   force =    -0.00067727   -0.00112509   -0.00161812
     atom   12 type  1   force =    -0.00064760   -0.00017715   -0.00045492
     atom   13 type  1   force =    -0.00082405   -0.00130012   -0.00004992
     atom   14 type  1   force =    -0.00001854    0.00037618    0.00169276
     atom   15 type  1   force =    -0.00173385    0.00166247    0.00203999
     atom   16 type  1   force =     0.00244563    0.00146554    0.00071274
     atom   17 type  1   force =    -0.00154873    0.00014085    0.00029378
     atom   18 type  1   force =     0.00063372   -0.00020872    0.00143203
     atom   19 type  1   force =     0.00195194    0.00089965   -0.00037597
     atom   20 type  1   force =     0.00033398    0.00098531    0.00017297
     atom   21 type  1   force =     0.00074973   -0.00184656    0.00040812
     atom   22 type  1   force =    -0.00031524    0.00224869    0.00036173
     atom   23 type  1   force =     0.00044737    0.00007323   -0.00052002
     atom   24 type  1   force =     0.00068528    0.00067951   -0.00005787
     atom   25 type  1   force =     0.00001676   -0.00071547    0.00113657
     atom   26 type  1   force =     0.00128025   -0.00077152   -0.00058360
     atom   27 type  1   force =    -0.00068947    0.00025980    0.00059166
     atom   28 type  1   force =     0.00005554    0.00051661   -0.00029134
     atom   29 type  1   force =     0.00287808   -0.00116551   -0.00027801
     atom   30 type  1   force =    -0.00089788   -0.00020077    0.00046785
     atom   31 type  1   force =    -0.00017193   -0.00032247   -0.00132744
     atom   32 type  1   force =    -0.00056949    0.00060510   -0.00010769

     Total force =     0.009923     Total SCF correction =     0.007278
     SCF correction compared to forces is large: reduce conv_thr to get better values


     Computing stress (Cartesian axis) and pressure

          total   stress  (Ry/bohr**3)                   (kbar)     P=    1.04
   0.00000691  -0.00000033  -0.00000015          1.02     -0.05     -0.02
  -0.00000033   0.00000725   0.00000024         -0.05      1.07      0.03
  -0.00000015   0.00000024   0.00000698         -0.02      0.03      1.03


     Writing output data file EGiNONgVxuDoDigI.save/
-------------------------------------------------------
Primary job  terminated normally, but 1 process returned
a non-zero exit code.. Per user-direction, the job has been aborted.
-------------------------------------------------------
--------------------------------------------------------------------------
mpirun detected that one or more processes exited with non-zero status, thus causing
the job to be terminated. The first process to do so was:

  Process name: [[54049,1],0]
  Exit code:    38
--------------------------------------------------------------------------
