--------------------------------------------------------------------------
WARNING: No preset parameters were found for the device that Open MPI
detected:

  Local host:            bear-pg0206u17a
  Device name:           mlx5_0
  Device vendor ID:      0x02c9
  Device vendor part ID: 4123

Default device parameters will be used, which may result in lower
performance.  You can edit any of the files specified by the
btl_openib_device_param_files MCA parameter to set values for your
device.

NOTE: You can turn off this warning by setting the MCA parameter
      btl_openib_warn_no_device_params_found to 0.
--------------------------------------------------------------------------
--------------------------------------------------------------------------
WARNING: There was an error initializing an OpenFabrics device.

  Local host:   bear-pg0206u17a
  Local device: mlx5_0
--------------------------------------------------------------------------

     Program PWSCF v.6.3 starts on 12Nov2020 at 19:40: 7 

     This program is part of the open-source Quantum ESPRESSO suite
     for quantum simulation of materials; please cite
         "P. Giannozzi et al., J. Phys.:Condens. Matter 21 395502 (2009);
         "P. Giannozzi et al., J. Phys.:Condens. Matter 29 465901 (2017);
          URL http://www.quantum-espresso.org", 
     in publications or presentations arising from this work. More details at
     http://www.quantum-espresso.org/quote

     Parallel version (MPI & OpenMP), running on      40 processor cores
     Number of MPI processes:                40
     Threads/MPI process:                     1

     MPI processes distributed on     1 nodes
     R & G space division:  proc/nbgrp/npool/nimage =      40
     Reading input from wd/configs/1/config_0003.in
Warning: card &IONS ignored
Warning: card ION_DYNAMICS = 'BFGS', ignored
Warning: card / ignored
Warning: card &CELL ignored
Warning: card CELL_DYNAMICS = 'BFGS', ignored
Warning: card CELL_FACTOR = 2.0, ignored
Warning: card PRESS = 0.0, ignored
Warning: card / ignored

     Current dimensions of program PWSCF are:
     Max number of different atomic species (ntypx) = 10
     Max number of k-points (npk) =  40000
     Max angular momentum in pseudopotentials (lmaxx) =  3
               file Pd.pbe-spn-kjpaw_psl.1.0.0.UPF: wavefunction(s)  4S 5S 4D renormalized

     Subspace diagonalization in iterative solution of the eigenvalue problem:
     a serial algorithm will be used

 
     Parallelization info
     --------------------
     sticks:   dense  smooth     PW     G-vecs:    dense   smooth      PW
     Min         188     124     33                12312     6616     935
     Max         189     126     34                12317     6619     940
     Sum        7525    4989   1353               492567   264675   37529
 


     bravais-lattice index     =            0
     lattice parameter (alat)  =      14.8488  a.u.
     unit-cell volume          =    3273.9809 (a.u.)^3
     number of atoms/cell      =           32
     number of atomic types    =            1
     number of electrons       =       576.00
     number of Kohn-Sham states=          346
     kinetic-energy cutoff     =      71.0000  Ry
     charge density cutoff     =     430.0000  Ry
     convergence threshold     =      1.0E-06
     mixing beta               =       0.1000
     number of iterations used =           10  plain     mixing
     Exchange-correlation      = SLA PW PBX PBC ( 1  4  3  4 0 0)

     celldm(1)=  14.848824  celldm(2)=   0.000000  celldm(3)=   0.000000
     celldm(4)=   0.000000  celldm(5)=   0.000000  celldm(6)=   0.000000

     crystal axes: (cart. coord. in units of alat)
               a(1) = (   1.000000   0.000000   0.000000 )  
               a(2) = (   0.000000   1.000000   0.000000 )  
               a(3) = (   0.000000   0.000000   1.000000 )  

     reciprocal axes: (cart. coord. in units 2 pi/alat)
               b(1) = (  1.000000  0.000000  0.000000 )  
               b(2) = (  0.000000  1.000000  0.000000 )  
               b(3) = (  0.000000  0.000000  1.000000 )  


     PseudoPot. # 1 for Pd read from file:
     /rds/homes/b/bxp912/pp/Pd.pbe-spn-kjpaw_psl.1.0.0.UPF
     MD5 check sum: 790f2ebce206edfd9790dcb9844eca51
     Pseudo is Projector augmented-wave + core cor, Zval = 18.0
     Generated using "atomic" code by A. Dal Corso v.6.3
     Shape of augmentation charge: PSQ
     Using radial grid of 1235 points,  6 beta functions with: 
                l(1) =   0
                l(2) =   0
                l(3) =   1
                l(4) =   1
                l(5) =   2
                l(6) =   2
     Q(r) pseudized with 0 coefficients 


     atomic species   valence    mass     pseudopotential
        Pd            18.00   106.42000     Pd( 1.00)

     No symmetry found



   Cartesian axes

     site n.     atom                  positions (alat units)
         1           Pd  tau(   1) = (  -0.0007407  -0.0006539  -0.0005335  )
         2           Pd  tau(   2) = (   0.2494903   0.2489358  -0.0005288  )
         3           Pd  tau(   3) = (   0.2491355  -0.0006107   0.2499343  )
         4           Pd  tau(   4) = (  -0.0007146   0.2497764   0.2497044  )
         5           Pd  tau(   5) = (  -0.0001473  -0.0001549   0.4990817  )
         6           Pd  tau(   6) = (   0.2495722   0.2489822   0.4993339  )
         7           Pd  tau(   7) = (   0.2493837  -0.0003569   0.7490962  )
         8           Pd  tau(   8) = (  -0.0005605   0.2495603   0.7497587  )
         9           Pd  tau(   9) = (  -0.0001850   0.4995483  -0.0007052  )
        10           Pd  tau(  10) = (   0.2496137   0.7496890   0.0001603  )
        11           Pd  tau(  11) = (   0.2497155   0.4995504   0.2498429  )
        12           Pd  tau(  12) = (  -0.0005946   0.7494202   0.2493787  )
        13           Pd  tau(  13) = (  -0.0004469   0.4996478   0.4995302  )
        14           Pd  tau(  14) = (   0.2492526   0.7494566   0.4990605  )
        15           Pd  tau(  15) = (   0.2500188   0.4988933   0.7487013  )
        16           Pd  tau(  16) = (  -0.0013481   0.7487208   0.7493125  )
        17           Pd  tau(  17) = (   0.4997455  -0.0008800  -0.0007531  )
        18           Pd  tau(  18) = (   0.7491462   0.2495200  -0.0011530  )
        19           Pd  tau(  19) = (   0.7485766  -0.0008707   0.2494852  )
        20           Pd  tau(  20) = (   0.4992754   0.2492471   0.2489804  )
        21           Pd  tau(  21) = (   0.4991643  -0.0000709   0.4992702  )
        22           Pd  tau(  22) = (   0.7494672   0.2487009   0.4992284  )
        23           Pd  tau(  23) = (   0.7494001  -0.0008147   0.7493793  )
        24           Pd  tau(  24) = (   0.4993500   0.2490929   0.7493159  )
        25           Pd  tau(  25) = (   0.4990233   0.4995643  -0.0011244  )
        26           Pd  tau(  26) = (   0.7488582   0.7495277  -0.0001106  )
        27           Pd  tau(  27) = (   0.7495337   0.4989188   0.2492158  )
        28           Pd  tau(  28) = (   0.4995071   0.7488963   0.2497570  )
        29           Pd  tau(  29) = (   0.4986603   0.4995378   0.4994097  )
        30           Pd  tau(  30) = (   0.7496675   0.7493003   0.4990276  )
        31           Pd  tau(  31) = (   0.7492178   0.4993460   0.7496132  )
        32           Pd  tau(  32) = (   0.4993557   0.7492209   0.7491573  )

     number of k points=   365  Marzari-Vanderbilt smearing, width (Ry)=  0.0400

     Number of k-points >= 100: set verbosity='high' to print them.

     Dense  grid:   492567 G-vectors     FFT dimensions: ( 100, 100, 100)

     Smooth grid:   264675 G-vectors     FFT dimensions: (  80,  80,  80)

     Estimated max dynamical RAM per process >       1.72 GB

     Estimated total dynamical RAM >      68.68 GB

     Check: negative/imaginary core charge=   -0.000002    0.000000

     Initial potential from superposition of free atoms

     starting charge  575.98776, renormalised to  576.00000
     Starting wfcs are  320 randomized atomic wfcs +   26 random wfcs
     Checking if some PAW data can be deallocated... 

     total cpu time spent up to now is      141.2 secs

     Self-consistent Calculation

     iteration #  1     ecut=    71.00 Ry     beta= 0.10
     Davidson diagonalization with overlap
     ethr =  1.00E-02,  avg # of iterations =  3.1

     Threshold (ethr) on eigenvalues was too large:
     Diagonalizing with lowered threshold

     Davidson diagonalization with overlap
     ethr =  8.43E-05,  avg # of iterations =  3.3

     total cpu time spent up to now is     1915.4 secs

     total energy              =  -16385.02259087 Ry
     Harris-Foulkes estimate   =  -16385.09150208 Ry
     estimated scf accuracy    <       0.48001795 Ry

     iteration #  2     ecut=    71.00 Ry     beta= 0.10
     Davidson diagonalization with overlap
     ethr =  8.33E-05,  avg # of iterations =  1.0

     total cpu time spent up to now is     2388.6 secs

     total energy              =  -16384.93547589 Ry
     Harris-Foulkes estimate   =  -16385.03061752 Ry
     estimated scf accuracy    <       0.26145873 Ry

     iteration #  3     ecut=    71.00 Ry     beta= 0.10
     Davidson diagonalization with overlap
     ethr =  4.54E-05,  avg # of iterations =  2.2

     total cpu time spent up to now is     3077.2 secs

     total energy              =  -16384.96061569 Ry
     Harris-Foulkes estimate   =  -16384.97002084 Ry
     estimated scf accuracy    <       0.10204923 Ry

     iteration #  4     ecut=    71.00 Ry     beta= 0.10
     Davidson diagonalization with overlap
     ethr =  1.77E-05,  avg # of iterations =  1.6

     total cpu time spent up to now is     3629.2 secs

     total energy              =  -16384.96330648 Ry
     Harris-Foulkes estimate   =  -16384.96521601 Ry
     estimated scf accuracy    <       0.02356721 Ry

     iteration #  5     ecut=    71.00 Ry     beta= 0.10
     Davidson diagonalization with overlap
     ethr =  4.09E-06,  avg # of iterations =  1.4

     total cpu time spent up to now is     4156.4 secs

     total energy              =  -16384.95759556 Ry
     Harris-Foulkes estimate   =  -16384.96355919 Ry
     estimated scf accuracy    <       0.01636414 Ry

     iteration #  6     ecut=    71.00 Ry     beta= 0.10
     Davidson diagonalization with overlap
     ethr =  2.84E-06,  avg # of iterations =  1.0

     total cpu time spent up to now is     4629.2 secs

     total energy              =  -16384.95837176 Ry
     Harris-Foulkes estimate   =  -16384.95852182 Ry
     estimated scf accuracy    <       0.00125824 Ry

     iteration #  7     ecut=    71.00 Ry     beta= 0.10
     Davidson diagonalization with overlap
     ethr =  2.18E-07,  avg # of iterations =  3.1

     total cpu time spent up to now is     5427.8 secs

     total energy              =  -16384.95852891 Ry
     Harris-Foulkes estimate   =  -16384.95857196 Ry
     estimated scf accuracy    <       0.00067418 Ry

     iteration #  8     ecut=    71.00 Ry     beta= 0.10
     Davidson diagonalization with overlap
     ethr =  1.17E-07,  avg # of iterations =  1.1

     total cpu time spent up to now is     5913.2 secs

     total energy              =  -16384.95855388 Ry
     Harris-Foulkes estimate   =  -16384.95855594 Ry
     estimated scf accuracy    <       0.00006037 Ry

     iteration #  9     ecut=    71.00 Ry     beta= 0.10
     Davidson diagonalization with overlap
     ethr =  1.05E-08,  avg # of iterations =  1.0

     total cpu time spent up to now is     6382.3 secs

     total energy              =  -16384.95854896 Ry
     Harris-Foulkes estimate   =  -16384.95855448 Ry
     estimated scf accuracy    <       0.00004699 Ry

     iteration # 10     ecut=    71.00 Ry     beta= 0.10
     Davidson diagonalization with overlap
     ethr =  8.16E-09,  avg # of iterations =  1.0

     total cpu time spent up to now is     6852.2 secs

     total energy              =  -16384.95855558 Ry
     Harris-Foulkes estimate   =  -16384.95855174 Ry
     estimated scf accuracy    <       0.00001336 Ry

     iteration # 11     ecut=    71.00 Ry     beta= 0.10
     Davidson diagonalization with overlap
     ethr =  2.32E-09,  avg # of iterations =  3.0

     total cpu time spent up to now is     7630.3 secs

     total energy              =  -16384.95855913 Ry
     Harris-Foulkes estimate   =  -16384.95855708 Ry
     estimated scf accuracy    <       0.00000410 Ry

     iteration # 12     ecut=    71.00 Ry     beta= 0.10
     Davidson diagonalization with overlap
     ethr =  7.12E-10,  avg # of iterations =  1.0

     total cpu time spent up to now is     8102.9 secs

     End of self-consistent calculation

     Number of k-points >= 100: set verbosity='high' to print the bands.

     the Fermi energy is    19.2490 ev

!    total energy              =  -16384.95856827 Ry
     Harris-Foulkes estimate   =  -16384.95855931 Ry
     estimated scf accuracy    <       0.00000079 Ry

     total all-electron energy =   -322945.812275 Ry

     The total energy is the sum of the following terms:

     one-electron contribution =   -2490.89077993 Ry
     hartree contribution      =    1662.41822868 Ry
     xc contribution           =    -986.48520555 Ry
     ewald contribution        =   -6402.60918742 Ry
     one-center paw contrib.   =   -8167.42512180 Ry
     smearing contrib. (-TS)   =       0.03349775 Ry

     convergence has been achieved in  12 iterations

     Forces acting on atoms (cartesian axes, Ry/au):

     atom    1 type  1   force =     0.00012866   -0.00021532    0.00009300
     atom    2 type  1   force =    -0.00032876    0.00083509    0.00040512
     atom    3 type  1   force =     0.00054330    0.00039222   -0.00190840
     atom    4 type  1   force =    -0.00009105   -0.00042913   -0.00138245
     atom    5 type  1   force =    -0.00159695   -0.00119602    0.00104751
     atom    6 type  1   force =    -0.00060578    0.00131232   -0.00030093
     atom    7 type  1   force =    -0.00058525   -0.00200798    0.00125722
     atom    8 type  1   force =    -0.00021023   -0.00008799   -0.00060155
     atom    9 type  1   force =     0.00018587   -0.00019543    0.00032142
     atom   10 type  1   force =    -0.00080129   -0.00046764   -0.00255090
     atom   11 type  1   force =    -0.00067131   -0.00111735   -0.00160892
     atom   12 type  1   force =    -0.00064323   -0.00017663   -0.00045359
     atom   13 type  1   force =    -0.00081989   -0.00129097   -0.00004945
     atom   14 type  1   force =    -0.00001756    0.00037026    0.00168256
     atom   15 type  1   force =    -0.00172242    0.00165225    0.00202734
     atom   16 type  1   force =     0.00242904    0.00145244    0.00070889
     atom   17 type  1   force =    -0.00153863    0.00013941    0.00029244
     atom   18 type  1   force =     0.00062925   -0.00020546    0.00142260
     atom   19 type  1   force =     0.00193814    0.00089297   -0.00037411
     atom   20 type  1   force =     0.00033215    0.00097963    0.00017097
     atom   21 type  1   force =     0.00074566   -0.00183238    0.00040404
     atom   22 type  1   force =    -0.00031308    0.00223440    0.00035651
     atom   23 type  1   force =     0.00044391    0.00007365   -0.00051587
     atom   24 type  1   force =     0.00068090    0.00067722   -0.00005724
     atom   25 type  1   force =     0.00001641   -0.00071193    0.00112881
     atom   26 type  1   force =     0.00127179   -0.00076572   -0.00057656
     atom   27 type  1   force =    -0.00068431    0.00025734    0.00058846
     atom   28 type  1   force =     0.00005672    0.00051208   -0.00029062
     atom   29 type  1   force =     0.00285786   -0.00115710   -0.00027610
     atom   30 type  1   force =    -0.00089213   -0.00020224    0.00046305
     atom   31 type  1   force =    -0.00017011   -0.00032047   -0.00131819
     atom   32 type  1   force =    -0.00056769    0.00059848   -0.00010505

     Total force =     0.009856     Total SCF correction =     0.007294
     SCF correction compared to forces is large: reduce conv_thr to get better values


     Computing stress (Cartesian axis) and pressure

          total   stress  (Ry/bohr**3)                   (kbar)     P=   -1.38
  -0.00000950  -0.00000033  -0.00000015         -1.40     -0.05     -0.02
  -0.00000033  -0.00000916   0.00000024         -0.05     -1.35      0.03
  -0.00000015   0.00000024  -0.00000943         -0.02      0.03     -1.39


     Writing output data file tpNsaOcBFivFyQNu.save/
-------------------------------------------------------
Primary job  terminated normally, but 1 process returned
a non-zero exit code.. Per user-direction, the job has been aborted.
-------------------------------------------------------
--------------------------------------------------------------------------
mpirun detected that one or more processes exited with non-zero status, thus causing
the job to be terminated. The first process to do so was:

  Process name: [[27782,1],0]
  Exit code:    38
--------------------------------------------------------------------------
