--------------------------------------------------------------------------
WARNING: No preset parameters were found for the device that Open MPI
detected:

  Local host:            bear-pg0206u17a
  Device name:           mlx5_0
  Device vendor ID:      0x02c9
  Device vendor part ID: 4123

Default device parameters will be used, which may result in lower
performance.  You can edit any of the files specified by the
btl_openib_device_param_files MCA parameter to set values for your
device.

NOTE: You can turn off this warning by setting the MCA parameter
      btl_openib_warn_no_device_params_found to 0.
--------------------------------------------------------------------------
--------------------------------------------------------------------------
WARNING: There was an error initializing an OpenFabrics device.

  Local host:   bear-pg0206u17a
  Local device: mlx5_0
--------------------------------------------------------------------------

     Program PWSCF v.6.3 starts on 13Nov2020 at 10:37: 5 

     This program is part of the open-source Quantum ESPRESSO suite
     for quantum simulation of materials; please cite
         "P. Giannozzi et al., J. Phys.:Condens. Matter 21 395502 (2009);
         "P. Giannozzi et al., J. Phys.:Condens. Matter 29 465901 (2017);
          URL http://www.quantum-espresso.org", 
     in publications or presentations arising from this work. More details at
     http://www.quantum-espresso.org/quote

     Parallel version (MPI & OpenMP), running on      40 processor cores
     Number of MPI processes:                40
     Threads/MPI process:                     1

     MPI processes distributed on     1 nodes
     R & G space division:  proc/nbgrp/npool/nimage =      40
     Reading input from wd/configs/2/config_0004.in
Warning: card &IONS ignored
Warning: card ION_DYNAMICS = 'BFGS', ignored
Warning: card / ignored
Warning: card &CELL ignored
Warning: card CELL_DYNAMICS = 'BFGS', ignored
Warning: card CELL_FACTOR = 2.0, ignored
Warning: card PRESS = 0.0, ignored
Warning: card / ignored

     Current dimensions of program PWSCF are:
     Max number of different atomic species (ntypx) = 10
     Max number of k-points (npk) =  40000
     Max angular momentum in pseudopotentials (lmaxx) =  3
               file Pd.pbe-spn-kjpaw_psl.1.0.0.UPF: wavefunction(s)  4S 5S 4D renormalized

     Subspace diagonalization in iterative solution of the eigenvalue problem:
     a serial algorithm will be used

 
     Parallelization info
     --------------------
     sticks:   dense  smooth     PW     G-vecs:    dense   smooth      PW
     Min         188     124     33                12336     6622     935
     Max         189     126     34                12341     6625     940
     Sum        7541    4997   1353               493479   264947   37561
 


     bravais-lattice index     =            0
     lattice parameter (alat)  =      14.8583  a.u.
     unit-cell volume          =    3280.2445 (a.u.)^3
     number of atoms/cell      =           32
     number of atomic types    =            1
     number of electrons       =       576.00
     number of Kohn-Sham states=          346
     kinetic-energy cutoff     =      71.0000  Ry
     charge density cutoff     =     430.0000  Ry
     convergence threshold     =      1.0E-06
     mixing beta               =       0.1000
     number of iterations used =           10  plain     mixing
     Exchange-correlation      = SLA PW PBX PBC ( 1  4  3  4 0 0)

     celldm(1)=  14.858287  celldm(2)=   0.000000  celldm(3)=   0.000000
     celldm(4)=   0.000000  celldm(5)=   0.000000  celldm(6)=   0.000000

     crystal axes: (cart. coord. in units of alat)
               a(1) = (   1.000000   0.000000   0.000000 )  
               a(2) = (   0.000000   1.000000   0.000000 )  
               a(3) = (   0.000000   0.000000   1.000000 )  

     reciprocal axes: (cart. coord. in units 2 pi/alat)
               b(1) = (  1.000000  0.000000  0.000000 )  
               b(2) = (  0.000000  1.000000  0.000000 )  
               b(3) = (  0.000000  0.000000  1.000000 )  


     PseudoPot. # 1 for Pd read from file:
     /rds/homes/b/bxp912/pp/Pd.pbe-spn-kjpaw_psl.1.0.0.UPF
     MD5 check sum: 790f2ebce206edfd9790dcb9844eca51
     Pseudo is Projector augmented-wave + core cor, Zval = 18.0
     Generated using "atomic" code by A. Dal Corso v.6.3
     Shape of augmentation charge: PSQ
     Using radial grid of 1235 points,  6 beta functions with: 
                l(1) =   0
                l(2) =   0
                l(3) =   1
                l(4) =   1
                l(5) =   2
                l(6) =   2
     Q(r) pseudized with 0 coefficients 


     atomic species   valence    mass     pseudopotential
        Pd            18.00   106.42000     Pd( 1.00)

     No symmetry found



   Cartesian axes

     site n.     atom                  positions (alat units)
         1           Pd  tau(   1) = (  -0.0007402  -0.0006535  -0.0005332  )
         2           Pd  tau(   2) = (   0.2494906   0.2489365  -0.0005285  )
         3           Pd  tau(   3) = (   0.2491361  -0.0006103   0.2499344  )
         4           Pd  tau(   4) = (  -0.0007141   0.2497765   0.2497046  )
         5           Pd  tau(   5) = (  -0.0001472  -0.0001548   0.4990823  )
         6           Pd  tau(   6) = (   0.2495725   0.2489828   0.4993343  )
         7           Pd  tau(   7) = (   0.2493841  -0.0003567   0.7490968  )
         8           Pd  tau(   8) = (  -0.0005601   0.2495606   0.7497589  )
         9           Pd  tau(   9) = (  -0.0001849   0.4995486  -0.0007048  )
        10           Pd  tau(  10) = (   0.2496139   0.7496892   0.0001602  )
        11           Pd  tau(  11) = (   0.2497157   0.4995507   0.2498430  )
        12           Pd  tau(  12) = (  -0.0005942   0.7494206   0.2493791  )
        13           Pd  tau(  13) = (  -0.0004466   0.4996480   0.4995305  )
        14           Pd  tau(  14) = (   0.2492530   0.7494570   0.4990611  )
        15           Pd  tau(  15) = (   0.2500188   0.4988940   0.7487021  )
        16           Pd  tau(  16) = (  -0.0013473   0.7487216   0.7493129  )
        17           Pd  tau(  17) = (   0.4997457  -0.0008794  -0.0007526  )
        18           Pd  tau(  18) = (   0.7491468   0.2495204  -0.0011523  )
        19           Pd  tau(  19) = (   0.7485775  -0.0008701   0.2494855  )
        20           Pd  tau(  20) = (   0.4992759   0.2492476   0.2489810  )
        21           Pd  tau(  21) = (   0.4991648  -0.0000709   0.4992706  )
        22           Pd  tau(  22) = (   0.7494675   0.2487017   0.4992289  )
        23           Pd  tau(  23) = (   0.7494004  -0.0008141   0.7493797  )
        24           Pd  tau(  24) = (   0.4993504   0.2490935   0.7493164  )
        25           Pd  tau(  25) = (   0.4990240   0.4995646  -0.0011237  )
        26           Pd  tau(  26) = (   0.7488590   0.7495280  -0.0001106  )
        27           Pd  tau(  27) = (   0.7495340   0.4989195   0.2492163  )
        28           Pd  tau(  28) = (   0.4995074   0.7488970   0.2497571  )
        29           Pd  tau(  29) = (   0.4986612   0.4995381   0.4994100  )
        30           Pd  tau(  30) = (   0.7496677   0.7493007   0.4990282  )
        31           Pd  tau(  31) = (   0.7492183   0.4993464   0.7496134  )
        32           Pd  tau(  32) = (   0.4993562   0.7492214   0.7491578  )

     number of k points=   365  Marzari-Vanderbilt smearing, width (Ry)=  0.0400

     Number of k-points >= 100: set verbosity='high' to print them.

     Dense  grid:   493479 G-vectors     FFT dimensions: ( 100, 100, 100)

     Smooth grid:   264947 G-vectors     FFT dimensions: (  80,  80,  80)

     Estimated max dynamical RAM per process >       1.72 GB

     Estimated total dynamical RAM >      68.84 GB

     Check: negative/imaginary core charge=   -0.000002    0.000000

     Initial potential from superposition of free atoms

     starting charge  575.98776, renormalised to  576.00000
     Starting wfcs are  320 randomized atomic wfcs +   26 random wfcs
     Checking if some PAW data can be deallocated... 

     total cpu time spent up to now is      141.9 secs

     Self-consistent Calculation

     iteration #  1     ecut=    71.00 Ry     beta= 0.10
     Davidson diagonalization with overlap
     ethr =  1.00E-02,  avg # of iterations =  3.1

     Threshold (ethr) on eigenvalues was too large:
     Diagonalizing with lowered threshold

     Davidson diagonalization with overlap
     ethr =  8.54E-05,  avg # of iterations =  3.3

     total cpu time spent up to now is     1916.0 secs

     total energy              =  -16385.02369545 Ry
     Harris-Foulkes estimate   =  -16385.09356116 Ry
     estimated scf accuracy    <       0.48617864 Ry

     iteration #  2     ecut=    71.00 Ry     beta= 0.10
     Davidson diagonalization with overlap
     ethr =  8.44E-05,  avg # of iterations =  1.0

     total cpu time spent up to now is     2394.7 secs

     total energy              =  -16384.93553869 Ry
     Harris-Foulkes estimate   =  -16385.03185104 Ry
     estimated scf accuracy    <       0.26441826 Ry

     iteration #  3     ecut=    71.00 Ry     beta= 0.10
     Davidson diagonalization with overlap
     ethr =  4.59E-05,  avg # of iterations =  2.2

     total cpu time spent up to now is     3082.0 secs

     total energy              =  -16384.96108591 Ry
     Harris-Foulkes estimate   =  -16384.97057205 Ry
     estimated scf accuracy    <       0.10327311 Ry

     iteration #  4     ecut=    71.00 Ry     beta= 0.10
     Davidson diagonalization with overlap
     ethr =  1.79E-05,  avg # of iterations =  1.7

     total cpu time spent up to now is     3636.3 secs

     total energy              =  -16384.96381345 Ry
     Harris-Foulkes estimate   =  -16384.96573269 Ry
     estimated scf accuracy    <       0.02371989 Ry

     iteration #  5     ecut=    71.00 Ry     beta= 0.10
     Davidson diagonalization with overlap
     ethr =  4.12E-06,  avg # of iterations =  1.5

     total cpu time spent up to now is     4171.4 secs

     total energy              =  -16384.95805676 Ry
     Harris-Foulkes estimate   =  -16384.96406879 Ry
     estimated scf accuracy    <       0.01647709 Ry

     iteration #  6     ecut=    71.00 Ry     beta= 0.10
     Davidson diagonalization with overlap
     ethr =  2.86E-06,  avg # of iterations =  1.0

     total cpu time spent up to now is     4643.5 secs

     total energy              =  -16384.95883530 Ry
     Harris-Foulkes estimate   =  -16384.95899045 Ry
     estimated scf accuracy    <       0.00129817 Ry

     iteration #  7     ecut=    71.00 Ry     beta= 0.10
     Davidson diagonalization with overlap
     ethr =  2.25E-07,  avg # of iterations =  3.0

     total cpu time spent up to now is     5419.2 secs

     total energy              =  -16384.95899549 Ry
     Harris-Foulkes estimate   =  -16384.95903957 Ry
     estimated scf accuracy    <       0.00068882 Ry

     iteration #  8     ecut=    71.00 Ry     beta= 0.10
     Davidson diagonalization with overlap
     ethr =  1.20E-07,  avg # of iterations =  1.1

     total cpu time spent up to now is     5909.3 secs

     total energy              =  -16384.95902101 Ry
     Harris-Foulkes estimate   =  -16384.95902313 Ry
     estimated scf accuracy    <       0.00006075 Ry

     iteration #  9     ecut=    71.00 Ry     beta= 0.10
     Davidson diagonalization with overlap
     ethr =  1.05E-08,  avg # of iterations =  1.0

     total cpu time spent up to now is     6377.2 secs

     total energy              =  -16384.95901615 Ry
     Harris-Foulkes estimate   =  -16384.95902162 Ry
     estimated scf accuracy    <       0.00004728 Ry

     iteration # 10     ecut=    71.00 Ry     beta= 0.10
     Davidson diagonalization with overlap
     ethr =  8.21E-09,  avg # of iterations =  1.0

     total cpu time spent up to now is     6846.4 secs

     total energy              =  -16384.95902272 Ry
     Harris-Foulkes estimate   =  -16384.95901887 Ry
     estimated scf accuracy    <       0.00001384 Ry

     iteration # 11     ecut=    71.00 Ry     beta= 0.10
     Davidson diagonalization with overlap
     ethr =  2.40E-09,  avg # of iterations =  3.0

     total cpu time spent up to now is     7619.5 secs

     total energy              =  -16384.95902632 Ry
     Harris-Foulkes estimate   =  -16384.95902427 Ry
     estimated scf accuracy    <       0.00000428 Ry

     iteration # 12     ecut=    71.00 Ry     beta= 0.10
     Davidson diagonalization with overlap
     ethr =  7.43E-10,  avg # of iterations =  1.0

     total cpu time spent up to now is     8090.7 secs

     End of self-consistent calculation

     Number of k-points >= 100: set verbosity='high' to print the bands.

     the Fermi energy is    19.1993 ev

!    total energy              =  -16384.95903547 Ry
     Harris-Foulkes estimate   =  -16384.95902650 Ry
     estimated scf accuracy    <       0.00000079 Ry

     total all-electron energy =   -322945.812743 Ry

     The total energy is the sum of the following terms:

     one-electron contribution =   -2497.25499819 Ry
     hartree contribution      =    1664.65705815 Ry
     xc contribution           =    -986.44085391 Ry
     ewald contribution        =   -6398.53138693 Ry
     one-center paw contrib.   =   -8167.42299283 Ry
     smearing contrib. (-TS)   =       0.03413823 Ry

     convergence has been achieved in  12 iterations

     Forces acting on atoms (cartesian axes, Ry/au):

     atom    1 type  1   force =     0.00012892   -0.00021298    0.00009278
     atom    2 type  1   force =    -0.00032666    0.00082835    0.00040098
     atom    3 type  1   force =     0.00053506    0.00039020   -0.00189076
     atom    4 type  1   force =    -0.00009031   -0.00042331   -0.00136893
     atom    5 type  1   force =    -0.00158065   -0.00118320    0.00103487
     atom    6 type  1   force =    -0.00059950    0.00129993   -0.00029975
     atom    7 type  1   force =    -0.00057878   -0.00198777    0.00124554
     atom    8 type  1   force =    -0.00020808   -0.00008425   -0.00059170
     atom    9 type  1   force =     0.00018543   -0.00019462    0.00031840
     atom   10 type  1   force =    -0.00079381   -0.00046517   -0.00252496
     atom   11 type  1   force =    -0.00066257   -0.00110581   -0.00159546
     atom   12 type  1   force =    -0.00063649   -0.00017550   -0.00045113
     atom   13 type  1   force =    -0.00081357   -0.00127812   -0.00004856
     atom   14 type  1   force =    -0.00001551    0.00036218    0.00166741
     atom   15 type  1   force =    -0.00170626    0.00163749    0.00200904
     atom   16 type  1   force =     0.00240542    0.00143420    0.00070287
     atom   17 type  1   force =    -0.00152408    0.00013773    0.00029081
     atom   18 type  1   force =     0.00062278   -0.00020083    0.00140851
     atom   19 type  1   force =     0.00191796    0.00088354   -0.00037110
     atom   20 type  1   force =     0.00032950    0.00097094    0.00016823
     atom   21 type  1   force =     0.00073941   -0.00181286    0.00039778
     atom   22 type  1   force =    -0.00031001    0.00221346    0.00034917
     atom   23 type  1   force =     0.00043909    0.00007462   -0.00051011
     atom   24 type  1   force =     0.00067492    0.00067321   -0.00005630
     atom   25 type  1   force =     0.00001639   -0.00070628    0.00111778
     atom   26 type  1   force =     0.00125912   -0.00075773   -0.00056634
     atom   27 type  1   force =    -0.00067741    0.00025418    0.00058382
     atom   28 type  1   force =     0.00005782    0.00050556   -0.00028893
     atom   29 type  1   force =     0.00282882   -0.00114419   -0.00027362
     atom   30 type  1   force =    -0.00088464   -0.00020413    0.00045618
     atom   31 type  1   force =    -0.00016751   -0.00031766   -0.00130458
     atom   32 type  1   force =    -0.00056480    0.00058882   -0.00010193

     Total force =     0.009758     Total SCF correction =     0.007307
     SCF correction compared to forces is large: reduce conv_thr to get better values


     Computing stress (Cartesian axis) and pressure

          total   stress  (Ry/bohr**3)                   (kbar)     P=   -4.78
  -0.00003262  -0.00000033  -0.00000015         -4.80     -0.05     -0.02
  -0.00000033  -0.00003229   0.00000024         -0.05     -4.75      0.03
  -0.00000015   0.00000024  -0.00003255         -0.02      0.03     -4.79


     Writing output data file UMLWFWhrxEtMGlTx.save/
-------------------------------------------------------
Primary job  terminated normally, but 1 process returned
a non-zero exit code.. Per user-direction, the job has been aborted.
-------------------------------------------------------
--------------------------------------------------------------------------
mpirun detected that one or more processes exited with non-zero status, thus causing
the job to be terminated. The first process to do so was:

  Process name: [[60928,1],0]
  Exit code:    38
--------------------------------------------------------------------------
