--------------------------------------------------------------------------
WARNING: No preset parameters were found for the device that Open MPI
detected:

  Local host:            bear-pg0206u14b
  Device name:           mlx5_0
  Device vendor ID:      0x02c9
  Device vendor part ID: 4123

Default device parameters will be used, which may result in lower
performance.  You can edit any of the files specified by the
btl_openib_device_param_files MCA parameter to set values for your
device.

NOTE: You can turn off this warning by setting the MCA parameter
      btl_openib_warn_no_device_params_found to 0.
--------------------------------------------------------------------------
--------------------------------------------------------------------------
WARNING: There was an error initializing an OpenFabrics device.

  Local host:   bear-pg0206u14b
  Local device: mlx5_0
--------------------------------------------------------------------------

     Program PWSCF v.6.3 starts on 11Nov2020 at  9:37:45 

     This program is part of the open-source Quantum ESPRESSO suite
     for quantum simulation of materials; please cite
         "P. Giannozzi et al., J. Phys.:Condens. Matter 21 395502 (2009);
         "P. Giannozzi et al., J. Phys.:Condens. Matter 29 465901 (2017);
          URL http://www.quantum-espresso.org", 
     in publications or presentations arising from this work. More details at
     http://www.quantum-espresso.org/quote

     Parallel version (MPI & OpenMP), running on      20 processor cores
     Number of MPI processes:                20
     Threads/MPI process:                     1

     MPI processes distributed on     1 nodes
     R & G space division:  proc/nbgrp/npool/nimage =      20
     Reading input from wd/eos/eos_007.in
Warning: card &IONS ignored
Warning: card ION_DYNAMICS = 'BFGS', ignored
Warning: card / ignored
Warning: card &CELL ignored
Warning: card CELL_DYNAMICS = 'BFGS', ignored
Warning: card CELL_FACTOR = 2.0, ignored
Warning: card PRESS = 0.0, ignored
Warning: card / ignored

     Current dimensions of program PWSCF are:
     Max number of different atomic species (ntypx) = 10
     Max number of k-points (npk) =  40000
     Max angular momentum in pseudopotentials (lmaxx) =  3
               file Pd.pbe-spn-kjpaw_psl.1.0.0.UPF: wavefunction(s)  4S 5S 4D renormalized

     Subspace diagonalization in iterative solution of the eigenvalue problem:
     a serial algorithm will be used

 
     Parallelization info
     --------------------
     sticks:   dense  smooth     PW     G-vecs:    dense   smooth      PW
     Min         380     251     68                24984    13387    1902
     Max         381     252     69                24987    13389    1906
     Sum        7613    5025   1361               499719   267761   38089
 


     bravais-lattice index     =            0
     lattice parameter (alat)  =      14.8394  a.u.
     unit-cell volume          =    3317.0266 (a.u.)^3
     number of atoms/cell      =           32
     number of atomic types    =            1
     number of electrons       =       576.00
     number of Kohn-Sham states=          346
     kinetic-energy cutoff     =      71.0000  Ry
     charge density cutoff     =     430.0000  Ry
     convergence threshold     =      1.0E-06
     mixing beta               =       0.1000
     number of iterations used =           10  plain     mixing
     Exchange-correlation      = SLA PW PBX PBC ( 1  4  3  4 0 0)

     celldm(1)=  14.839420  celldm(2)=   0.000000  celldm(3)=   0.000000
     celldm(4)=   0.000000  celldm(5)=   0.000000  celldm(6)=   0.000000

     crystal axes: (cart. coord. in units of alat)
               a(1) = (   1.005000   0.000000   0.000000 )  
               a(2) = (   0.000000   1.005000   0.000000 )  
               a(3) = (   0.000000   0.000000   1.005000 )  

     reciprocal axes: (cart. coord. in units 2 pi/alat)
               b(1) = (  0.995025  0.000000  0.000000 )  
               b(2) = (  0.000000  0.995025  0.000000 )  
               b(3) = (  0.000000  0.000000  0.995025 )  


     PseudoPot. # 1 for Pd read from file:
     /rds/homes/b/bxp912/pp/Pd.pbe-spn-kjpaw_psl.1.0.0.UPF
     MD5 check sum: 790f2ebce206edfd9790dcb9844eca51
     Pseudo is Projector augmented-wave + core cor, Zval = 18.0
     Generated using "atomic" code by A. Dal Corso v.6.3
     Shape of augmentation charge: PSQ
     Using radial grid of 1235 points,  6 beta functions with: 
                l(1) =   0
                l(2) =   0
                l(3) =   1
                l(4) =   1
                l(5) =   2
                l(6) =   2
     Q(r) pseudized with 0 coefficients 


     atomic species   valence    mass     pseudopotential
        Pd            18.00   106.42000     Pd( 1.00)

     48 Sym. Ops., with inversion, found



   Cartesian axes

     site n.     atom                  positions (alat units)
         1           Pd  tau(   1) = (   0.0000000   0.0000000   0.0000000  )
         2           Pd  tau(   2) = (   0.2512545   0.2512545   0.0000000  )
         3           Pd  tau(   3) = (   0.2512545   0.0000000   0.2512540  )
         4           Pd  tau(   4) = (   0.0000000   0.2512545   0.2512540  )
         5           Pd  tau(   5) = (   0.0000000   0.0000000   0.5024990  )
         6           Pd  tau(   6) = (   0.2512617   0.2512617   0.5024990  )
         7           Pd  tau(   7) = (   0.2512545   0.0000000   0.7537450  )
         8           Pd  tau(   8) = (   0.0000000   0.2512545   0.7537450  )
         9           Pd  tau(   9) = (   0.0000000   0.5024998   0.0000000  )
        10           Pd  tau(  10) = (   0.2512545   0.7537452   0.0000000  )
        11           Pd  tau(  11) = (   0.2512617   0.5024998   0.2512610  )
        12           Pd  tau(  12) = (   0.0000000   0.7537452   0.2512540  )
        13           Pd  tau(  13) = (   0.0000000   0.5024998   0.5024990  )
        14           Pd  tau(  14) = (   0.2512617   0.7537380   0.5024990  )
        15           Pd  tau(  15) = (   0.2512617   0.5024998   0.7537380  )
        16           Pd  tau(  16) = (   0.0000000   0.7537452   0.7537450  )
        17           Pd  tau(  17) = (   0.5024998   0.0000000   0.0000000  )
        18           Pd  tau(  18) = (   0.7537452   0.2512545   0.0000000  )
        19           Pd  tau(  19) = (   0.7537452   0.0000000   0.2512540  )
        20           Pd  tau(  20) = (   0.5024998   0.2512617   0.2512610  )
        21           Pd  tau(  21) = (   0.5024998   0.0000000   0.5024990  )
        22           Pd  tau(  22) = (   0.7537380   0.2512617   0.5024990  )
        23           Pd  tau(  23) = (   0.7537452   0.0000000   0.7537450  )
        24           Pd  tau(  24) = (   0.5024998   0.2512617   0.7537380  )
        25           Pd  tau(  25) = (   0.5024998   0.5024998   0.0000000  )
        26           Pd  tau(  26) = (   0.7537452   0.7537452   0.0000000  )
        27           Pd  tau(  27) = (   0.7537380   0.5024998   0.2512610  )
        28           Pd  tau(  28) = (   0.5024998   0.7537380   0.2512610  )
        29           Pd  tau(  29) = (   0.5024998   0.5024998   0.5024990  )
        30           Pd  tau(  30) = (   0.7537380   0.7537380   0.5024990  )
        31           Pd  tau(  31) = (   0.7537380   0.5024998   0.7537380  )
        32           Pd  tau(  32) = (   0.5024998   0.7537380   0.7537380  )

     number of k points=    35  Marzari-Vanderbilt smearing, width (Ry)=  0.0400
                       cart. coord. in units 2pi/alat
        k(    1) = (   0.0552792   0.0552792   0.0552792), wk =   0.0219479
        k(    2) = (   0.0552792   0.0552792   0.1658375), wk =   0.0658436
        k(    3) = (   0.0552792   0.0552792   0.2763958), wk =   0.0658436
        k(    4) = (   0.0552792   0.0552792   0.3869541), wk =   0.0658436
        k(    5) = (   0.0552792   0.0552792  -0.4975124), wk =   0.0329218
        k(    6) = (   0.0552792   0.1658375   0.1658375), wk =   0.0658436
        k(    7) = (   0.0552792   0.1658375   0.2763958), wk =   0.1316872
        k(    8) = (   0.0552792   0.1658375   0.3869541), wk =   0.1316872
        k(    9) = (   0.0552792   0.1658375  -0.4975124), wk =   0.0658436
        k(   10) = (   0.0552792   0.2763958   0.2763958), wk =   0.0658436
        k(   11) = (   0.0552792   0.2763958   0.3869541), wk =   0.1316872
        k(   12) = (   0.0552792   0.2763958  -0.4975124), wk =   0.0658436
        k(   13) = (   0.0552792   0.3869541   0.3869541), wk =   0.0658436
        k(   14) = (   0.0552792   0.3869541  -0.4975124), wk =   0.0658436
        k(   15) = (   0.0552792  -0.4975124  -0.4975124), wk =   0.0164609
        k(   16) = (   0.1658375   0.1658375   0.1658375), wk =   0.0219479
        k(   17) = (   0.1658375   0.1658375   0.2763958), wk =   0.0658436
        k(   18) = (   0.1658375   0.1658375   0.3869541), wk =   0.0658436
        k(   19) = (   0.1658375   0.1658375  -0.4975124), wk =   0.0329218
        k(   20) = (   0.1658375   0.2763958   0.2763958), wk =   0.0658436
        k(   21) = (   0.1658375   0.2763958   0.3869541), wk =   0.1316872
        k(   22) = (   0.1658375   0.2763958  -0.4975124), wk =   0.0658436
        k(   23) = (   0.1658375   0.3869541   0.3869541), wk =   0.0658436
        k(   24) = (   0.1658375   0.3869541  -0.4975124), wk =   0.0658436
        k(   25) = (   0.1658375  -0.4975124  -0.4975124), wk =   0.0164609
        k(   26) = (   0.2763958   0.2763958   0.2763958), wk =   0.0219479
        k(   27) = (   0.2763958   0.2763958   0.3869541), wk =   0.0658436
        k(   28) = (   0.2763958   0.2763958  -0.4975124), wk =   0.0329218
        k(   29) = (   0.2763958   0.3869541   0.3869541), wk =   0.0658436
        k(   30) = (   0.2763958   0.3869541  -0.4975124), wk =   0.0658436
        k(   31) = (   0.2763958  -0.4975124  -0.4975124), wk =   0.0164609
        k(   32) = (   0.3869541   0.3869541   0.3869541), wk =   0.0219479
        k(   33) = (   0.3869541   0.3869541  -0.4975124), wk =   0.0329218
        k(   34) = (   0.3869541  -0.4975124  -0.4975124), wk =   0.0164609
        k(   35) = (  -0.4975124  -0.4975124  -0.4975124), wk =   0.0027435

     Dense  grid:   499719 G-vectors     FFT dimensions: ( 100, 100, 100)

     Smooth grid:   267761 G-vectors     FFT dimensions: (  81,  81,  81)

     Estimated max dynamical RAM per process >     549.11 MB

     Estimated total dynamical RAM >      10.72 GB

     Check: negative/imaginary core charge=   -0.000002    0.000000

     Initial potential from superposition of free atoms

     starting charge  575.98776, renormalised to  576.00000
     Starting wfcs are  320 randomized atomic wfcs +   26 random wfcs
     Checking if some PAW data can be deallocated... 

     total cpu time spent up to now is       25.9 secs

     Self-consistent Calculation

     iteration #  1     ecut=    71.00 Ry     beta= 0.10
     Davidson diagonalization with overlap
     ethr =  1.00E-02,  avg # of iterations =  3.1

     Threshold (ethr) on eigenvalues was too large:
     Diagonalizing with lowered threshold

     Davidson diagonalization with overlap
     ethr =  9.17E-05,  avg # of iterations =  3.0

     total cpu time spent up to now is      252.9 secs

     total energy              =  -16385.02620270 Ry
     Harris-Foulkes estimate   =  -16385.10108881 Ry
     estimated scf accuracy    <       0.52189745 Ry

     iteration #  2     ecut=    71.00 Ry     beta= 0.10
     Davidson diagonalization with overlap
     ethr =  9.06E-05,  avg # of iterations =  1.0

     total cpu time spent up to now is      326.4 secs

     total energy              =  -16384.92504168 Ry
     Harris-Foulkes estimate   =  -16385.03486885 Ry
     estimated scf accuracy    <       0.28076606 Ry

     iteration #  3     ecut=    71.00 Ry     beta= 0.10
     Davidson diagonalization with overlap
     ethr =  4.87E-05,  avg # of iterations =  2.1

     total cpu time spent up to now is      424.8 secs

     total energy              =  -16384.96340708 Ry
     Harris-Foulkes estimate   =  -16384.96764781 Ry
     estimated scf accuracy    <       0.06107824 Ry

     iteration #  4     ecut=    71.00 Ry     beta= 0.10
     Davidson diagonalization with overlap
     c_bands:  1 eigenvalues not converged
     ethr =  1.06E-05,  avg # of iterations =  2.3

     total cpu time spent up to now is      513.2 secs

     total energy              =  -16384.96300413 Ry
     Harris-Foulkes estimate   =  -16384.96552003 Ry
     estimated scf accuracy    <       0.02267254 Ry

     iteration #  5     ecut=    71.00 Ry     beta= 0.10
     Davidson diagonalization with overlap
     ethr =  3.94E-06,  avg # of iterations =  1.1

     total cpu time spent up to now is      587.6 secs

     total energy              =  -16384.95798625 Ry
     Harris-Foulkes estimate   =  -16384.96321729 Ry
     estimated scf accuracy    <       0.01487895 Ry

     iteration #  6     ecut=    71.00 Ry     beta= 0.10
     Davidson diagonalization with overlap
     ethr =  2.58E-06,  avg # of iterations =  2.0

     total cpu time spent up to now is      681.0 secs

     total energy              =  -16384.95912189 Ry
     Harris-Foulkes estimate   =  -16384.95920137 Ry
     estimated scf accuracy    <       0.00016092 Ry

     iteration #  7     ecut=    71.00 Ry     beta= 0.10
     Davidson diagonalization with overlap
     ethr =  2.79E-08,  avg # of iterations =  3.0

     total cpu time spent up to now is      816.1 secs

     total energy              =  -16384.95917987 Ry
     Harris-Foulkes estimate   =  -16384.95918182 Ry
     estimated scf accuracy    <       0.00006109 Ry

     iteration #  8     ecut=    71.00 Ry     beta= 0.10
     Davidson diagonalization with overlap
     ethr =  1.06E-08,  avg # of iterations =  1.1

     total cpu time spent up to now is      891.1 secs

     total energy              =  -16384.95917502 Ry
     Harris-Foulkes estimate   =  -16384.95918323 Ry
     estimated scf accuracy    <       0.00004320 Ry

     iteration #  9     ecut=    71.00 Ry     beta= 0.10
     Davidson diagonalization with overlap
     ethr =  7.50E-09,  avg # of iterations =  2.0

     total cpu time spent up to now is      991.3 secs

     total energy              =  -16384.95918271 Ry
     Harris-Foulkes estimate   =  -16384.95917980 Ry
     estimated scf accuracy    <       0.00000872 Ry

     iteration # 10     ecut=    71.00 Ry     beta= 0.10
     Davidson diagonalization with overlap
     ethr =  1.51E-09,  avg # of iterations =  1.3

     total cpu time spent up to now is     1069.3 secs

     total energy              =  -16384.95918564 Ry
     Harris-Foulkes estimate   =  -16384.95918339 Ry
     estimated scf accuracy    <       0.00000101 Ry

     iteration # 11     ecut=    71.00 Ry     beta= 0.10
     Davidson diagonalization with overlap
     ethr =  1.75E-10,  avg # of iterations =  1.6

     total cpu time spent up to now is     1151.1 secs

     End of self-consistent calculation

          k = 0.0553 0.0553 0.0553 ( 33458 PWs)   bands (ev):

   -65.2120 -65.1849 -65.1848 -65.1848 -65.1797 -65.1796 -65.1796 -65.1701
   -65.1700 -65.1700 -65.1679 -65.1676 -65.1674 -65.1674 -65.1672 -65.1672
   -65.1671 -65.1669 -65.1669 -65.1664 -65.1648 -65.1648 -65.1647 -65.1532
   -65.1527 -65.1527 -65.1525 -65.1524 -65.1523 -65.1522 -65.1522 -65.1517
   -31.0868 -31.0867 -31.0867 -31.0853 -31.0672 -31.0672 -31.0672 -30.9936
   -30.9935 -30.9935 -30.9894 -30.9894 -30.9894 -30.9894 -30.9894 -30.9893
   -30.9820 -30.9819 -30.9819 -30.9771 -30.9771 -30.9771 -30.9770 -30.9770
   -30.9770 -30.9594 -30.9594 -30.9594 -30.9594 -30.9594 -30.9594 -30.9204
   -30.9204 -30.9204 -30.8975 -30.8975 -30.8975 -30.8918 -30.8918 -30.8918
   -30.8829 -30.8828 -30.8828 -30.8828 -30.8828 -30.8828 -30.8686 -30.8686
   -30.8686 -30.8680 -30.8677 -30.8677 -30.8676 -30.8676 -30.8676 -30.8671
   -30.8671 -30.8669 -30.8656 -30.8656 -30.8655 -30.8057 -30.8057 -30.8057
   -30.8054 -30.8054 -30.8053 -30.7939 -30.7939 -30.7939 -30.7938 -30.7938
   -30.7938 -30.7908 -30.7907 -30.7907 -30.7869 -30.7865 -30.7864 -30.7859
   -30.7859 -30.7858 -30.7858 -30.7857 -30.7855 -30.7852 -30.7852 -30.7850
   -30.7842 -30.7842 -30.7791 -30.7791 -30.7791 -30.7361 -30.7338 -30.7338
    12.0193  13.7851  13.7851  13.7851  13.8440  13.8576  13.8576  13.8576
    14.0305  14.0306  14.0306  14.0538  14.0538  14.0538  14.2276  14.2277
    14.2277  14.7782  14.7782  14.7782  14.7782  14.7782  14.7784  14.9267
    14.9268  14.9268  15.0652  15.0653  15.0653  15.1091  15.1092  15.1092
    15.1479  15.1479  15.1479  15.1480  15.1480  15.1480  15.1513  15.1514
    15.1514  15.4893  15.4893  15.4893  15.4893  15.4893  15.4893  15.5940
    15.5941  15.5941  15.6158  15.6158  15.6158  15.6159  15.6159  15.6159
    15.6718  15.6719  15.6719  15.8373  15.8373  15.8373  15.8374  15.8374
    15.8374  15.9425  15.9426  15.9426  15.9472  15.9472  15.9472  15.9473
    15.9473  15.9474  16.0525  16.0526  16.0526  16.1132  16.1132  16.1132
    16.1335  16.1335  16.1439  16.1439  16.1439  16.1602  16.1793  16.1793
    16.9595  16.9596  16.9596  17.0191  17.0191  17.0191  17.0901  17.0902
    17.0902  17.0902  17.0902  17.0903  17.0960  17.0961  17.0962  17.1435
    17.1436  17.1437  17.2426  17.2426  17.2427  17.3589  17.3590  17.3590
    17.4808  17.4808  17.4810  17.5370  17.5370  17.5371  17.6101  17.6103
    17.6103  17.6103  17.6103  17.6103  17.6284  17.6284  17.6284  17.6726
    17.6726  17.6814  17.6814  17.6814  17.6814  17.6814  17.6815  17.7879
    17.7879  17.7880  18.1650  18.1650  18.1650  18.2642  18.2642  18.2643
    18.6419  18.6419  18.6419  18.7588  18.7588  18.7588  18.7850  18.7850
    18.8047  18.8047  18.8047  19.0297  19.0297  19.0297  19.0818  19.0818
    19.0819  19.0819  19.0819  19.0819  19.0849  19.0849  19.0850  19.7891
    20.0870  20.0870  20.0870  20.5623  20.5623  20.5623  21.0665  21.0665
    21.0665  21.0665  21.0665  21.0666  21.5901  21.5902  21.5902  22.2078
    22.2078  22.2078  25.8511  25.8511  25.8511  26.0079  27.0340  27.0340
    27.0341  27.0341  27.0341  27.0342  27.7198  27.7199  27.7199  27.7200
    27.7200  27.7200  29.0976  29.0976  29.0976  29.0976  29.0976  29.0977
    29.2361  29.2361  29.2361  30.2206  30.2665  30.2667  30.2667  30.2667
    30.2667  30.2668

          k = 0.0553 0.0553 0.1658 ( 33479 PWs)   bands (ev):

   -65.2111 -65.1900 -65.1844 -65.1843 -65.1793 -65.1792 -65.1745 -65.1728
   -65.1728 -65.1700 -65.1696 -65.1695 -65.1680 -65.1679 -65.1673 -65.1670
   -65.1667 -65.1664 -65.1647 -65.1644 -65.1643 -65.1625 -65.1624 -65.1535
   -65.1532 -65.1529 -65.1529 -65.1528 -65.1528 -65.1526 -65.1522 -65.1517
   -31.0842 -31.0826 -31.0826 -31.0794 -31.0644 -31.0644 -31.0628 -31.0044
   -30.9996 -30.9996 -30.9954 -30.9954 -30.9944 -30.9943 -30.9942 -30.9942
   -30.9919 -30.9830 -30.9830 -30.9807 -30.9806 -30.9759 -30.9759 -30.9724
   -30.9723 -30.9622 -30.9621 -30.9562 -30.9561 -30.9486 -30.9423 -30.9423
   -30.9249 -30.9249 -30.9119 -30.9119 -30.8975 -30.8975 -30.8968 -30.8968
   -30.8860 -30.8726 -30.8726 -30.8710 -30.8710 -30.8683 -30.8683 -30.8676
   -30.8675 -30.8654 -30.8653 -30.8652 -30.8638 -30.8631 -30.8626 -30.8626
   -30.8621 -30.8621 -30.8593 -30.8546 -30.8546 -30.8173 -30.8168 -30.8082
   -30.8082 -30.8028 -30.8028 -30.7977 -30.7977 -30.7964 -30.7964 -30.7946
   -30.7946 -30.7923 -30.7907 -30.7906 -30.7906 -30.7899 -30.7899 -30.7864
   -30.7862 -30.7862 -30.7859 -30.7855 -30.7850 -30.7833 -30.7832 -30.7831
   -30.7825 -30.7822 -30.7793 -30.7747 -30.7747 -30.7417 -30.7357 -30.7350
    12.0917  13.7320  13.8185  13.8305  13.8305  13.8713  13.8983  13.8983
    13.9116  14.0810  14.0811  14.0812  14.0950  14.0950  14.2788  14.2789
    14.3005  14.6940  14.6940  14.7524  14.8123  14.8124  14.8189  14.8190
    14.8389  14.9195  14.9195  14.9523  14.9523  14.9589  14.9604  14.9605
    15.1065  15.1066  15.1305  15.1306  15.1404  15.1404  15.1780  15.1780
    15.2202  15.2202  15.2943  15.4759  15.4760  15.4921  15.4922  15.5364
    15.5365  15.5461  15.5462  15.6049  15.6049  15.6911  15.6912  15.7067
    15.7511  15.7511  15.7964  15.8026  15.8027  15.8068  15.8069  15.8419
    15.8420  15.8871  15.8872  15.9171  15.9171  16.0737  16.0915  16.0915
    16.0942  16.0942  16.1134  16.1134  16.1248  16.1340  16.1561  16.1590
    16.1678  16.1792  16.1792  16.1869  16.2084  16.2108  16.2174  16.2174
    16.7728  16.7728  16.8817  16.8873  16.9061  16.9062  16.9598  16.9598
    16.9771  17.0205  17.0431  17.0431  17.1579  17.1706  17.1707  17.1834
    17.1835  17.2211  17.2212  17.2288  17.2288  17.4365  17.4366  17.4577
    17.4623  17.4624  17.5280  17.5281  17.6065  17.6065  17.6152  17.6152
    17.6155  17.6156  17.6331  17.6884  17.6916  17.7042  17.7042  17.7292
    17.8202  17.8202  17.8261  17.8261  17.8612  17.8613  17.9149  17.9321
    17.9321  17.9670  18.0690  18.2095  18.2096  18.3355  18.3356  18.3390
    18.3643  18.3888  18.3888  18.5962  18.6989  18.6989  18.7199  18.7360
    18.7780  18.7784  18.7784  18.8055  18.8055  18.9617  19.0122  19.0122
    19.0131  19.0131  19.0248  19.0808  19.0813  19.0818  19.0823  19.7699
    20.1046  20.1046  20.2478  20.2478  20.4760  20.5347  20.5824  20.5824
    21.0451  21.0451  21.5726  21.6287  21.6287  21.8460  22.1647  22.1647
    22.4913  22.4913  25.8504  26.0104  26.0104  26.3051  26.3248  26.3248
    26.3263  26.3263  26.9149  26.9150  27.1637  27.1638  27.8422  27.8424
    28.3526  28.3526  29.1454  29.1454  29.2232  29.2232  29.2652  29.4056
    29.4056  29.4843  29.4843  29.6905  29.6974  29.6974  29.8057  29.8057
    30.2428  30.2435

          k = 0.0553 0.0553 0.2764 ( 33505 PWs)   bands (ev):

   -65.2093 -65.1949 -65.1834 -65.1834 -65.1785 -65.1784 -65.1755 -65.1754
   -65.1718 -65.1717 -65.1699 -65.1696 -65.1684 -65.1679 -65.1673 -65.1670
   -65.1664 -65.1663 -65.1649 -65.1617 -65.1617 -65.1602 -65.1602 -65.1552
   -65.1539 -65.1538 -65.1536 -65.1536 -65.1532 -65.1526 -65.1523 -65.1517
   -31.0775 -31.0746 -31.0746 -31.0701 -31.0585 -31.0585 -31.0534 -31.0207
   -31.0152 -31.0152 -31.0105 -31.0105 -31.0076 -30.9968 -30.9968 -30.9950
   -30.9949 -30.9857 -30.9857 -30.9768 -30.9767 -30.9753 -30.9746 -30.9746
   -30.9629 -30.9629 -30.9608 -30.9608 -30.9506 -30.9506 -30.9330 -30.9329
   -30.9260 -30.9260 -30.9256 -30.9256 -30.9102 -30.9102 -30.9076 -30.9076
   -30.8772 -30.8772 -30.8687 -30.8675 -30.8673 -30.8656 -30.8654 -30.8613
   -30.8598 -30.8571 -30.8570 -30.8545 -30.8545 -30.8537 -30.8537 -30.8527
   -30.8527 -30.8450 -30.8411 -30.8411 -30.8352 -30.8284 -30.8276 -30.8133
   -30.8133 -30.8068 -30.8067 -30.8052 -30.8052 -30.8021 -30.8013 -30.8013
   -30.7982 -30.7981 -30.7977 -30.7977 -30.7921 -30.7903 -30.7872 -30.7864
   -30.7859 -30.7856 -30.7856 -30.7855 -30.7850 -30.7829 -30.7828 -30.7823
   -30.7796 -30.7728 -30.7728 -30.7716 -30.7710 -30.7522 -30.7394 -30.7385
    12.2350  13.3842  13.8829  13.9190  13.9190  13.9393  13.9792  13.9792
    14.0050  14.1349  14.1773  14.1773  14.1790  14.1791  14.2729  14.3779
    14.3780  14.5495  14.5495  14.5904  14.5968  14.6739  14.6739  14.7251
    14.8238  14.8239  14.8762  14.8763  14.8986  14.8987  14.9029  14.9029
    15.0028  15.0029  15.0075  15.0076  15.1243  15.1244  15.1723  15.1724
    15.2845  15.2846  15.4235  15.4235  15.4566  15.4567  15.4750  15.4751
    15.4765  15.4943  15.4944  15.5232  15.5232  15.6323  15.6324  15.7013
    15.7014  15.7533  15.7555  15.7555  15.8267  15.8267  15.8488  15.8489
    15.8549  15.8550  15.9201  15.9362  15.9363  16.0181  16.0503  16.0540
    16.0540  16.1137  16.1138  16.1160  16.2111  16.2452  16.2452  16.2615
    16.2716  16.2736  16.4221  16.4221  16.4396  16.4880  16.5723  16.5723
    16.6278  16.6278  16.6449  16.6450  16.7137  16.7906  16.7974  16.7975
    16.8142  16.8189  17.1097  17.1279  17.1279  17.2218  17.2218  17.2890
    17.2891  17.3045  17.3046  17.3615  17.3615  17.3912  17.3913  17.4528
    17.4529  17.5570  17.5937  17.5937  17.5939  17.5940  17.6177  17.6177
    17.6233  17.6234  17.7197  17.8177  17.8673  17.8673  17.8830  17.8830
    17.8925  17.9789  17.9801  17.9808  18.0197  18.0197  18.0274  18.0274
    18.0659  18.0659  18.0925  18.1077  18.1077  18.1871  18.3515  18.3516
    18.4143  18.4143  18.4282  18.4630  18.5605  18.5606  18.6074  18.6074
    18.6125  18.6870  18.6947  18.6947  18.7065  18.8307  18.8825  18.8825
    18.8837  18.8837  18.9143  19.0804  19.0809  19.0816  19.0820  19.6831
    19.6832  19.9292  20.1277  20.1278  20.4606  20.4606  20.4781  20.8356
    20.9994  20.9994  21.2380  21.5315  22.2584  22.2585  22.8005  22.8005
    22.9686  22.9686  25.4496  25.4496  25.6087  25.6087  26.0054  26.0054
    26.0222  26.3263  26.3263  26.7297  27.4081  27.4082  28.0766  28.0767
    28.3758  28.8343  28.8343  28.9183  28.9183  29.1720  29.1721  29.1978
    29.1978  29.3157  29.3157  29.4741  29.5711  29.5712  29.7381  29.7381
    29.7482  29.7483

          k = 0.0553 0.0553 0.3870 ( 33490 PWs)   bands (ev):

   -65.2067 -65.1994 -65.1820 -65.1820 -65.1779 -65.1779 -65.1773 -65.1772
   -65.1738 -65.1738 -65.1697 -65.1687 -65.1679 -65.1673 -65.1670 -65.1664
   -65.1660 -65.1651 -65.1650 -65.1593 -65.1593 -65.1582 -65.1582 -65.1578
   -65.1553 -65.1552 -65.1548 -65.1547 -65.1532 -65.1526 -65.1523 -65.1517
   -31.0672 -31.0631 -31.0631 -31.0575 -31.0499 -31.0499 -31.0393 -31.0378
   -31.0324 -31.0324 -31.0254 -31.0254 -31.0250 -30.9998 -30.9969 -30.9969
   -30.9922 -30.9922 -30.9908 -30.9908 -30.9818 -30.9817 -30.9648 -30.9647
   -30.9578 -30.9578 -30.9479 -30.9479 -30.9431 -30.9431 -30.9430 -30.9430
   -30.9381 -30.9381 -30.9225 -30.9225 -30.9204 -30.9204 -30.9108 -30.9108
   -30.8861 -30.8861 -30.8672 -30.8669 -30.8659 -30.8656 -30.8553 -30.8539
   -30.8499 -30.8423 -30.8423 -30.8416 -30.8416 -30.8413 -30.8413 -30.8398
   -30.8398 -30.8387 -30.8376 -30.8291 -30.8287 -30.8287 -30.8207 -30.8207
   -30.8174 -30.8174 -30.8172 -30.8172 -30.8154 -30.8096 -30.8091 -30.8090
   -30.8085 -30.8085 -30.8016 -30.7930 -30.7929 -30.7899 -30.7880 -30.7865
   -30.7859 -30.7855 -30.7850 -30.7845 -30.7845 -30.7815 -30.7803 -30.7802
   -30.7800 -30.7732 -30.7732 -30.7673 -30.7616 -30.7608 -30.7452 -30.7442
    12.4452  13.0349  13.9730  14.0457  14.0457  14.0475  14.0994  14.0994
    14.1363  14.1873  14.2146  14.3002  14.3002  14.3169  14.3170  14.3765
    14.3765  14.3791  14.4447  14.4500  14.4500  14.5014  14.5175  14.5176
    14.6589  14.6590  14.6644  14.6644  14.8579  14.8580  14.9591  14.9592
    15.0133  15.0134  15.0777  15.0777  15.0962  15.0963  15.2324  15.2324
    15.2880  15.2881  15.2942  15.2942  15.3911  15.3911  15.4287  15.4288
    15.4458  15.4458  15.4867  15.4867  15.5332  15.5333  15.6495  15.6711
    15.6712  15.7023  15.7024  15.8126  15.8549  15.8550  15.8556  15.8557
    15.8870  15.8870  15.9426  15.9517  15.9865  16.0041  16.0041  16.0353
    16.0354  16.0828  16.1620  16.1621  16.2973  16.3411  16.3411  16.3656
    16.3657  16.3669  16.3960  16.3961  16.4039  16.4040  16.5532  16.5975
    16.5975  16.6361  16.6412  16.6484  16.8281  16.8309  16.8309  16.8451
    17.0637  17.0637  17.1917  17.1917  17.1981  17.2157  17.2157  17.3826
    17.3827  17.4188  17.4189  17.4265  17.4267  17.4417  17.4418  17.4506
    17.4792  17.4793  17.5633  17.5634  17.6024  17.6036  17.6036  17.6056
    17.6057  17.6256  17.6256  17.6344  17.6344  17.7244  17.7657  17.8300
    17.8300  17.8969  17.9760  17.9760  18.0656  18.0656  18.0987  18.1389
    18.2188  18.2188  18.2225  18.2770  18.2839  18.2839  18.3048  18.3048
    18.4542  18.4543  18.4681  18.5597  18.5670  18.5670  18.5945  18.5973
    18.6062  18.6063  18.6450  18.7080  18.7080  18.7090  18.7090  18.7785
    18.8992  18.8992  19.0410  19.0803  19.0808  19.0814  19.0819  19.2916
    19.2916  19.6960  19.6960  20.1102  20.3897  20.5111  20.6562  20.6562
    20.9238  20.9238  21.1217  21.4547  22.9607  22.9608  23.5043  23.5043
    23.5572  23.5572  24.5701  24.5701  24.8992  24.8992  25.1154  25.1155
    26.3749  26.7908  26.7908  27.2709  27.5781  27.7537  27.7537  28.1063
    28.1063  28.4063  28.4064  28.6566  28.6585  28.6585  29.0302  29.0302
    29.1602  29.1602  29.2650  29.2651  29.7147  29.7147  29.7251  29.7251
    29.9409  29.9409

          k = 0.0553 0.0553-0.4975 ( 33480 PWs)   bands (ev):

   -65.2038 -65.2030 -65.1805 -65.1805 -65.1798 -65.1797 -65.1761 -65.1760
   -65.1753 -65.1753 -65.1696 -65.1689 -65.1679 -65.1673 -65.1670 -65.1664
   -65.1659 -65.1651 -65.1615 -65.1607 -65.1575 -65.1575 -65.1567 -65.1567
   -65.1567 -65.1567 -65.1560 -65.1559 -65.1532 -65.1526 -65.1523 -65.1517
   -31.0539 -31.0536 -31.0494 -31.0490 -31.0486 -31.0483 -31.0423 -31.0420
   -31.0392 -31.0392 -31.0384 -31.0384 -31.0217 -31.0209 -30.9949 -30.9949
   -30.9946 -30.9945 -30.9877 -30.9876 -30.9875 -30.9874 -30.9542 -30.9542
   -30.9538 -30.9538 -30.9494 -30.9494 -30.9488 -30.9488 -30.9343 -30.9343
   -30.9340 -30.9340 -30.9340 -30.9340 -30.9333 -30.9333 -30.8977 -30.8977
   -30.8970 -30.8970 -30.8670 -30.8665 -30.8662 -30.8656 -30.8481 -30.8473
   -30.8469 -30.8461 -30.8317 -30.8314 -30.8307 -30.8307 -30.8300 -30.8300
   -30.8299 -30.8299 -30.8296 -30.8296 -30.8293 -30.8293 -30.8290 -30.8289
   -30.8239 -30.8236 -30.8231 -30.8228 -30.8181 -30.8181 -30.8173 -30.8173
   -30.8143 -30.8140 -30.7893 -30.7886 -30.7883 -30.7882 -30.7879 -30.7879
   -30.7871 -30.7865 -30.7864 -30.7859 -30.7855 -30.7850 -30.7810 -30.7802
   -30.7761 -30.7760 -30.7758 -30.7757 -30.7530 -30.7522 -30.7521 -30.7514
    12.7151  12.7160  14.0790  14.0798  14.1947  14.1948  14.2016  14.2022
    14.2024  14.2030  14.2566  14.2567  14.2575  14.2575  14.3030  14.3030
    14.3182  14.3190  14.4626  14.4627  14.4634  14.4634  14.4824  14.4825
    14.4832  14.4833  14.6843  14.6844  14.6850  14.6852  15.0403  15.0404
    15.0406  15.0407  15.1541  15.1542  15.1548  15.1549  15.1753  15.1753
    15.1759  15.1759  15.3068  15.3069  15.3074  15.3075  15.4566  15.4567
    15.4568  15.4569  15.4649  15.4650  15.4650  15.4651  15.6714  15.6715
    15.6715  15.6715  15.8067  15.8074  15.8573  15.8574  15.8580  15.8580
    15.8806  15.8812  15.9461  15.9465  15.9468  15.9473  16.0384  16.0390
    16.1968  16.1969  16.1969  16.1970  16.2566  16.2567  16.2568  16.2568
    16.4124  16.4126  16.4631  16.4633  16.4638  16.4641  16.4884  16.4891
    16.4895  16.4903  16.4961  16.4963  17.2093  17.2093  17.2099  17.2099
    17.2167  17.2168  17.2170  17.2171  17.2201  17.2204  17.2637  17.2640
    17.3244  17.3252  17.4238  17.4239  17.4244  17.4245  17.5062  17.5063
    17.5069  17.5070  17.5171  17.5171  17.5176  17.5176  17.5213  17.5215
    17.5220  17.5221  17.5598  17.5599  17.5605  17.5606  17.7305  17.7305
    17.7312  17.7312  17.8249  17.8257  18.2683  18.2686  18.2691  18.2694
    18.2940  18.2942  18.4047  18.4049  18.4054  18.4056  18.4126  18.4133
    18.4385  18.4388  18.4483  18.4485  18.5024  18.5024  18.5029  18.5030
    18.5102  18.5102  18.5107  18.5107  18.6590  18.6594  18.9294  18.9294
    18.9295  18.9296  19.0803  19.0809  19.0812  19.0818  19.2848  19.2848
    19.2849  19.2850  19.7561  19.7568  20.2666  20.2674  20.8109  20.8110
    20.8117  20.8117  21.3241  21.3248  23.7339  23.7340  23.7343  23.7343
    24.2093  24.2094  24.2099  24.2099  24.2773  24.2774  24.2777  24.2777
    26.9012  26.9013  27.3898  27.3900  27.3906  27.3908  27.9173  27.9174
    28.1776  28.1777  28.1784  28.1784  28.8098  28.8099  28.8106  28.8107
    29.1083  29.1086  29.1091  29.1094  29.8871  29.8872  29.8880  29.8881
    30.1710  30.1711

          k = 0.0553 0.1658 0.1658 ( 33482 PWs)   bands (ev):

   -65.2102 -65.1894 -65.1894 -65.1839 -65.1788 -65.1760 -65.1742 -65.1742
   -65.1727 -65.1726 -65.1696 -65.1694 -65.1689 -65.1675 -65.1665 -65.1664
   -65.1661 -65.1661 -65.1644 -65.1643 -65.1626 -65.1625 -65.1605 -65.1538
   -65.1535 -65.1533 -65.1532 -65.1531 -65.1529 -65.1527 -65.1526 -65.1520
   -31.0816 -31.0816 -31.0771 -31.0724 -31.0614 -31.0598 -31.0598 -31.0071
   -31.0070 -31.0047 -31.0047 -30.9959 -30.9959 -30.9944 -30.9924 -30.9924
   -30.9918 -30.9918 -30.9912 -30.9912 -30.9840 -30.9839 -30.9819 -30.9818
   -30.9597 -30.9538 -30.9537 -30.9517 -30.9517 -30.9474 -30.9474 -30.9396
   -30.9395 -30.9298 -30.9265 -30.9036 -30.8991 -30.8991 -30.8860 -30.8860
   -30.8819 -30.8819 -30.8767 -30.8700 -30.8700 -30.8688 -30.8688 -30.8636
   -30.8634 -30.8631 -30.8630 -30.8626 -30.8616 -30.8615 -30.8595 -30.8595
   -30.8579 -30.8579 -30.8462 -30.8462 -30.8410 -30.8199 -30.8199 -30.8148
   -30.8148 -30.8059 -30.8044 -30.8031 -30.7974 -30.7974 -30.7972 -30.7971
   -30.7944 -30.7944 -30.7935 -30.7935 -30.7932 -30.7926 -30.7892 -30.7883
   -30.7883 -30.7871 -30.7848 -30.7848 -30.7840 -30.7834 -30.7833 -30.7833
   -30.7787 -30.7786 -30.7751 -30.7751 -30.7688 -30.7491 -30.7374 -30.7347
    12.1633  13.7838  13.7839  13.8642  13.8642  13.8713  13.8836  13.9243
    13.9638  13.9638  14.1214  14.1218  14.1218  14.1393  14.3167  14.3520
    14.3521  14.7156  14.7157  14.7356  14.7356  14.7518  14.7518  14.7816
    14.7816  14.7909  14.8524  14.8524  14.8648  14.8648  14.9891  14.9915
    14.9916  14.9991  14.9992  15.0519  15.1616  15.1895  15.1895  15.1956
    15.1957  15.2211  15.2211  15.3113  15.3114  15.4516  15.4516  15.5323
    15.5323  15.5438  15.6386  15.6387  15.6536  15.6537  15.7137  15.7137
    15.7230  15.7805  15.7806  15.7893  15.7893  15.8426  15.8426  15.9388
    15.9875  15.9876  16.0304  16.0304  16.0377  16.0377  16.0833  16.1057
    16.1423  16.1431  16.1432  16.1467  16.1468  16.1633  16.1633  16.1803
    16.2114  16.2114  16.2118  16.2133  16.2228  16.2349  16.2349  16.2393
    16.6751  16.7322  16.7322  16.7820  16.8859  16.8859  16.9912  17.0113
    17.0114  17.0123  17.0123  17.0692  17.0693  17.0919  17.0920  17.1449
    17.1524  17.1525  17.2311  17.3009  17.3109  17.3110  17.3309  17.3309
    17.3524  17.6021  17.6021  17.6176  17.6177  17.6221  17.6788  17.6917
    17.6918  17.7069  17.7070  17.7084  17.7172  17.7172  17.7953  17.7954
    17.8228  17.8228  17.9979  17.9979  18.0373  18.0487  18.0487  18.0544
    18.0966  18.0966  18.0978  18.0978  18.1575  18.1576  18.1918  18.2247
    18.3447  18.4557  18.5024  18.5024  18.6324  18.6324  18.6337  18.6493
    18.7438  18.7756  18.7756  18.7905  18.7905  18.8014  18.9557  18.9557
    19.0115  19.0116  19.0139  19.0140  19.0236  19.0236  19.0457  19.4892
    19.6793  20.0741  20.0741  20.1440  20.5597  20.5597  20.7655  20.7655
    21.1246  21.1246  21.6172  21.6172  22.1280  22.1280  22.1539  22.1539
    22.7441  22.7470  25.7072  25.7072  25.8489  25.8489  26.3120  26.4145
    26.4146  26.4584  26.4585  26.7112  27.0391  27.0391  27.4772  27.4773
    28.4791  28.4791  28.7491  28.7492  29.1401  29.2062  29.2850  29.2850
    29.3632  29.3633  29.5956  29.5956  29.6817  29.6817  30.0849  30.0849
    30.3742  30.3805

          k = 0.0553 0.1658 0.2764 ( 33509 PWs)   bands (ev):

   -65.2085 -65.1942 -65.1883 -65.1830 -65.1791 -65.1781 -65.1752 -65.1735
   -65.1724 -65.1716 -65.1697 -65.1694 -65.1694 -65.1681 -65.1679 -65.1659
   -65.1654 -65.1644 -65.1632 -65.1628 -65.1619 -65.1605 -65.1587 -65.1552
   -65.1542 -65.1541 -65.1540 -65.1537 -65.1534 -65.1531 -65.1527 -65.1520
   -31.0765 -31.0751 -31.0680 -31.0619 -31.0555 -31.0544 -31.0511 -31.0235
   -31.0201 -31.0107 -31.0079 -31.0074 -31.0073 -31.0070 -30.9983 -30.9972
   -30.9969 -30.9921 -30.9915 -30.9894 -30.9876 -30.9863 -30.9833 -30.9772
   -30.9698 -30.9574 -30.9550 -30.9489 -30.9452 -30.9442 -30.9405 -30.9384
   -30.9343 -30.9323 -30.9233 -30.9143 -30.9117 -30.8989 -30.8949 -30.8843
   -30.8821 -30.8804 -30.8750 -30.8695 -30.8676 -30.8647 -30.8637 -30.8631
   -30.8612 -30.8608 -30.8594 -30.8547 -30.8519 -30.8502 -30.8496 -30.8470
   -30.8457 -30.8434 -30.8338 -30.8333 -30.8311 -30.8280 -30.8262 -30.8251
   -30.8110 -30.8101 -30.8098 -30.8086 -30.8062 -30.8060 -30.8054 -30.8046
   -30.8000 -30.7975 -30.7967 -30.7945 -30.7945 -30.7939 -30.7906 -30.7900
   -30.7895 -30.7878 -30.7875 -30.7867 -30.7836 -30.7833 -30.7816 -30.7758
   -30.7738 -30.7735 -30.7733 -30.7675 -30.7649 -30.7610 -30.7413 -30.7369
    12.3048  13.4395  13.8847  13.9291  13.9355  13.9513  13.9532  13.9895
    14.0542  14.0664  14.1749  14.1976  14.2032  14.2271  14.3235  14.3877
    14.4522  14.5259  14.5594  14.5893  14.6016  14.6228  14.6248  14.6529
    14.7542  14.7590  14.7819  14.7896  14.8173  14.8401  14.9141  14.9194
    14.9307  14.9456  14.9747  15.0225  15.0638  15.0817  15.1100  15.2116
    15.2240  15.2357  15.2746  15.3437  15.3794  15.3957  15.4034  15.4890
    15.4989  15.5102  15.5231  15.5399  15.5838  15.6493  15.6586  15.7017
    15.7020  15.7130  15.8001  15.8485  15.8927  15.8942  15.9467  15.9556
    15.9714  15.9731  15.9847  16.0104  16.0425  16.0615  16.0664  16.0990
    16.1262  16.1411  16.1979  16.2277  16.2528  16.2704  16.2732  16.2765
    16.2971  16.3150  16.3208  16.3342  16.3488  16.4494  16.5265  16.5568
    16.5795  16.5869  16.6110  16.6983  16.7186  16.8138  16.8250  16.8395
    16.9085  16.9254  16.9361  17.0073  17.0128  17.0866  17.0927  17.1957
    17.2091  17.2304  17.2374  17.2872  17.3319  17.4130  17.4652  17.4688
    17.4855  17.5581  17.5710  17.5860  17.6155  17.6636  17.6955  17.7044
    17.7307  17.7791  17.7823  17.8177  17.8243  17.8355  17.8370  17.8467
    17.8622  17.8851  17.9554  17.9933  18.0152  18.0469  18.0857  18.1411
    18.1506  18.1762  18.1814  18.1840  18.1881  18.2088  18.2137  18.3014
    18.3087  18.3281  18.4202  18.5013  18.5297  18.5504  18.6260  18.6412
    18.7114  18.7488  18.7497  18.7541  18.8439  18.8499  18.8507  18.8612
    18.8827  18.8858  18.9202  19.0112  19.0149  19.0211  19.0254  19.2958
    19.5116  19.6520  20.0127  20.1056  20.1649  20.5138  20.6428  21.0463
    21.2434  21.5238  21.5888  21.7405  22.1216  22.2601  22.5947  22.7989
    23.1905  23.3780  24.8790  25.0679  25.5182  25.7523  25.8525  26.0231
    26.0250  26.5345  26.7173  26.7395  26.7409  27.2159  27.2471  27.8652
    28.0032  28.2573  28.3934  28.5800  28.7078  28.7917  29.0299  29.1668
    29.3604  29.4611  29.4943  29.6630  29.7438  29.9702  30.0610  30.0800
    30.3078  30.3994

          k = 0.0553 0.1658 0.3870 ( 33482 PWs)   bands (ev):

   -65.2059 -65.1987 -65.1867 -65.1820 -65.1816 -65.1776 -65.1769 -65.1736
   -65.1726 -65.1720 -65.1705 -65.1698 -65.1693 -65.1682 -65.1656 -65.1649
   -65.1647 -65.1646 -65.1632 -65.1604 -65.1595 -65.1585 -65.1577 -65.1571
   -65.1557 -65.1556 -65.1552 -65.1543 -65.1538 -65.1531 -65.1527 -65.1520
   -31.0676 -31.0652 -31.0557 -31.0484 -31.0469 -31.0465 -31.0402 -31.0378
   -31.0366 -31.0243 -31.0243 -31.0227 -31.0148 -31.0070 -31.0052 -31.0006
   -31.0004 -31.0001 -30.9990 -30.9955 -30.9868 -30.9827 -30.9798 -30.9726
   -30.9646 -30.9615 -30.9564 -30.9525 -30.9493 -30.9422 -30.9340 -30.9294
   -30.9276 -30.9270 -30.9232 -30.9181 -30.9114 -30.9083 -30.9069 -30.8970
   -30.8937 -30.8837 -30.8638 -30.8631 -30.8607 -30.8603 -30.8602 -30.8586
   -30.8544 -30.8534 -30.8514 -30.8438 -30.8415 -30.8407 -30.8399 -30.8391
   -30.8365 -30.8354 -30.8328 -30.8304 -30.8233 -30.8224 -30.8191 -30.8191
   -30.8185 -30.8185 -30.8182 -30.8165 -30.8163 -30.8163 -30.8160 -30.8059
   -30.8040 -30.8037 -30.7970 -30.7964 -30.7957 -30.7953 -30.7943 -30.7933
   -30.7925 -30.7913 -30.7858 -30.7853 -30.7840 -30.7818 -30.7797 -30.7768
   -30.7767 -30.7741 -30.7685 -30.7637 -30.7636 -30.7571 -30.7470 -30.7414
    12.5123  13.0944  14.0199  14.0270  14.0284  14.0670  14.0807  14.0935
    14.1813  14.2039  14.2366  14.2533  14.3011  14.3246  14.3249  14.3563
    14.3827  14.4015  14.4131  14.4143  14.4797  14.4827  14.5373  14.5407
    14.5687  14.5942  14.6845  14.6954  14.7211  14.8019  14.9099  14.9281
    14.9355  14.9466  14.9894  15.0437  15.0476  15.1674  15.1780  15.1999
    15.2297  15.2430  15.3047  15.3176  15.3351  15.3458  15.3461  15.3515
    15.3877  15.4307  15.4855  15.5147  15.5274  15.5813  15.6575  15.6795
    15.7147  15.7617  15.8636  15.8729  15.9029  15.9251  15.9410  15.9429
    15.9437  15.9482  15.9941  16.0291  16.0440  16.0495  16.0589  16.0814
    16.1272  16.1635  16.1740  16.3028  16.3075  16.3619  16.3670  16.3766
    16.3811  16.3820  16.4232  16.4347  16.4545  16.5169  16.5239  16.5321
    16.6066  16.6222  16.6388  16.7092  16.7417  16.7641  16.8031  16.8221
    16.9790  16.9859  17.0071  17.0259  17.0333  17.0572  17.1514  17.2417
    17.2435  17.2621  17.3232  17.3706  17.4189  17.4377  17.4440  17.4480
    17.4588  17.4753  17.5161  17.5471  17.5858  17.6092  17.6150  17.6275
    17.6732  17.6796  17.7268  17.7540  17.7827  17.8316  17.8576  17.8712
    17.8997  17.9006  17.9034  18.0368  18.0555  18.0571  18.0852  18.0915
    18.1977  18.2362  18.2769  18.3113  18.3434  18.3663  18.3692  18.3741
    18.3792  18.3838  18.4081  18.4684  18.4721  18.5681  18.5742  18.5965
    18.6201  18.6630  18.6649  18.7095  18.7099  18.7101  18.7144  18.7990
    18.8766  18.9479  19.0115  19.0158  19.0169  19.0190  19.2606  19.2814
    19.4049  19.6522  19.6752  19.9202  20.1764  20.2525  20.4446  20.8107
    21.2737  21.5328  21.6279  22.0454  22.4332  22.9778  23.1608  23.5136
    23.7509  24.0223  24.0746  24.4202  24.6208  25.0551  25.1446  25.6653
    26.0559  26.3804  26.9988  27.0867  27.0925  27.2857  27.5436  27.5928
    27.7940  27.8111  28.0365  28.3304  28.4878  28.6756  29.0251  29.0818
    29.2429  29.4028  29.4113  29.5573  29.6295  29.8448  29.8523  29.9402
    29.9895  30.2489

          k = 0.0553 0.1658-0.4975 ( 33478 PWs)   bands (ev):

   -65.2030 -65.2022 -65.1849 -65.1841 -65.1801 -65.1794 -65.1758 -65.1750
   -65.1717 -65.1717 -65.1709 -65.1709 -65.1692 -65.1684 -65.1654 -65.1647
   -65.1643 -65.1635 -65.1614 -65.1606 -65.1582 -65.1578 -65.1575 -65.1571
   -65.1570 -65.1563 -65.1560 -65.1552 -65.1538 -65.1531 -65.1527 -65.1520
   -31.0554 -31.0551 -31.0523 -31.0519 -31.0410 -31.0407 -31.0368 -31.0363
   -31.0361 -31.0356 -31.0325 -31.0321 -31.0211 -31.0204 -31.0042 -31.0040
   -31.0016 -31.0012 -31.0011 -31.0011 -30.9823 -30.9822 -30.9726 -30.9721
   -30.9613 -30.9612 -30.9609 -30.9608 -30.9421 -30.9418 -30.9337 -30.9332
   -30.9234 -30.9228 -30.9181 -30.9174 -30.9132 -30.9130 -30.9054 -30.9049
   -30.8954 -30.8946 -30.8638 -30.8631 -30.8605 -30.8600 -30.8511 -30.8503
   -30.8461 -30.8453 -30.8431 -30.8423 -30.8409 -30.8406 -30.8340 -30.8338
   -30.8316 -30.8311 -30.8295 -30.8293 -30.8285 -30.8281 -30.8278 -30.8275
   -30.8255 -30.8247 -30.8161 -30.8158 -30.8127 -30.8120 -30.8063 -30.8059
   -30.8057 -30.8050 -30.8013 -30.8009 -30.7964 -30.7960 -30.7946 -30.7938
   -30.7928 -30.7921 -30.7893 -30.7889 -30.7852 -30.7845 -30.7785 -30.7778
   -30.7772 -30.7769 -30.7651 -30.7649 -30.7549 -30.7542 -30.7486 -30.7482
    12.7787  12.7796  14.1270  14.1278  14.1571  14.1572  14.2047  14.2055
    14.2132  14.2139  14.2351  14.2352  14.2380  14.2388  14.3433  14.3433
    14.3552  14.3560  14.3729  14.3730  14.4196  14.4202  14.4854  14.4862
    14.5226  14.5232  14.5893  14.5897  14.7655  14.7661  14.8537  14.8538
    15.0439  15.0440  15.0469  15.0475  15.0827  15.0835  15.1848  15.1856
    15.2541  15.2541  15.2823  15.2830  15.3308  15.3311  15.3553  15.3556
    15.4048  15.4048  15.4373  15.4378  15.4399  15.4403  15.7894  15.7900
    15.8082  15.8088  15.8101  15.8107  15.8304  15.8310  15.8890  15.8891
    15.9884  15.9890  15.9999  16.0003  16.0995  16.1000  16.1359  16.1366
    16.1949  16.1950  16.2376  16.2376  16.2510  16.2512  16.3640  16.3641
    16.4067  16.4069  16.4724  16.4727  16.4872  16.4879  16.4903  16.4911
    16.5521  16.5523  16.5725  16.5728  17.0141  17.0146  17.0241  17.0246
    17.0772  17.0774  17.0883  17.0885  17.1138  17.1141  17.1629  17.1631
    17.2014  17.2020  17.3436  17.3443  17.3512  17.3518  17.4214  17.4218
    17.4328  17.4334  17.4689  17.4693  17.4759  17.4764  17.5413  17.5420
    17.6500  17.6507  17.6893  17.6899  17.7581  17.7588  17.8198  17.8206
    17.9481  17.9489  17.9970  17.9977  18.0691  18.0696  18.2313  18.2320
    18.2706  18.2707  18.2876  18.2883  18.4188  18.4191  18.4426  18.4426
    18.5019  18.5025  18.5278  18.5283  18.5318  18.5320  18.5378  18.5380
    18.5461  18.5466  18.5487  18.5492  18.6364  18.6366  18.6844  18.6846
    18.8982  18.8983  19.0126  19.0133  19.0169  19.0177  19.2647  19.2648
    19.7223  19.7224  19.7973  19.7981  20.0818  20.0824  20.3539  20.3547
    21.4329  21.4336  21.8916  21.8923  23.1980  23.1984  23.7676  23.7679
    23.7781  23.7787  24.2977  24.2980  24.3815  24.3821  24.8377  24.8380
    26.4754  26.4755  26.9117  26.9119  27.3687  27.3694  27.5310  27.5317
    27.9097  27.9105  27.9347  27.9348  28.4894  28.4895  28.8754  28.8757
    29.4109  29.4117  29.5636  29.5641  29.5760  29.5766  29.6822  29.6831
    30.5435  30.5447

          k = 0.0553 0.2764 0.2764 ( 33517 PWs)   bands (ev):

   -65.2068 -65.1930 -65.1929 -65.1826 -65.1821 -65.1773 -65.1748 -65.1748
   -65.1714 -65.1713 -65.1710 -65.1689 -65.1688 -65.1688 -65.1648 -65.1647
   -65.1645 -65.1644 -65.1622 -65.1621 -65.1609 -65.1608 -65.1574 -65.1553
   -65.1552 -65.1549 -65.1548 -65.1543 -65.1542 -65.1533 -65.1531 -65.1523
   -31.0716 -31.0716 -31.0581 -31.0505 -31.0497 -31.0467 -31.0467 -31.0237
   -31.0237 -31.0221 -31.0221 -31.0106 -31.0106 -31.0029 -31.0029 -31.0007
   -31.0006 -30.9974 -30.9973 -30.9955 -30.9955 -30.9867 -30.9847 -30.9847
   -30.9805 -30.9804 -30.9536 -30.9481 -30.9418 -30.9418 -30.9350 -30.9350
   -30.9281 -30.9258 -30.9184 -30.9184 -30.8934 -30.8921 -30.8921 -30.8822
   -30.8822 -30.8802 -30.8802 -30.8707 -30.8707 -30.8590 -30.8590 -30.8572
   -30.8569 -30.8569 -30.8558 -30.8557 -30.8515 -30.8515 -30.8436 -30.8436
   -30.8366 -30.8365 -30.8351 -30.8350 -30.8230 -30.8230 -30.8224 -30.8224
   -30.8178 -30.8178 -30.8156 -30.8155 -30.8073 -30.8073 -30.8056 -30.8049
   -30.8048 -30.8037 -30.8037 -30.8025 -30.7943 -30.7943 -30.7930 -30.7919
   -30.7907 -30.7898 -30.7848 -30.7841 -30.7841 -30.7833 -30.7783 -30.7783
   -30.7745 -30.7745 -30.7743 -30.7624 -30.7623 -30.7595 -30.7453 -30.7369
    12.4426  13.5475  13.5475  13.9685  14.0165  14.0191  14.0191  14.0361
    14.1624  14.1624  14.2322  14.2546  14.2546  14.3235  14.3626  14.4082
    14.4221  14.4221  14.4591  14.4591  14.5756  14.5756  14.5814  14.5815
    14.6668  14.6669  14.6878  14.6879  14.8474  14.8474  14.8499  14.8531
    14.8531  14.9521  14.9521  14.9871  14.9871  15.0274  15.0274  15.1034
    15.1034  15.1815  15.2972  15.2972  15.3021  15.3021  15.3261  15.5113
    15.5114  15.5412  15.5412  15.5528  15.5529  15.5559  15.5653  15.8032
    15.8032  15.8766  15.8766  15.9605  15.9605  15.9651  15.9652  16.0049
    16.0077  16.0078  16.0343  16.0344  16.0533  16.1450  16.1706  16.1790
    16.1791  16.2669  16.2670  16.2797  16.3084  16.3335  16.3446  16.3703
    16.3703  16.3714  16.4147  16.4147  16.4311  16.4312  16.4416  16.4760
    16.5752  16.5752  16.5973  16.5973  16.7603  16.7603  16.8126  16.8127
    16.8931  16.8931  16.9449  16.9836  17.0354  17.0355  17.0657  17.0658
    17.0838  17.0839  17.1492  17.1536  17.2930  17.2931  17.4218  17.5115
    17.5115  17.5221  17.5221  17.5299  17.5614  17.6382  17.6382  17.7074
    17.7573  17.8038  17.8038  17.8574  17.8574  17.9038  17.9039  17.9419
    17.9420  18.0497  18.0497  18.0500  18.0500  18.0727  18.0728  18.0751
    18.0779  18.1269  18.1269  18.2752  18.3167  18.3432  18.3432  18.3509
    18.3509  18.3527  18.3527  18.4525  18.4544  18.4983  18.6112  18.6112
    18.6832  18.7590  18.7590  18.7746  18.7896  18.7896  18.8850  18.8851
    18.8886  18.8886  18.9113  18.9113  18.9540  18.9651  19.2823  19.3006
    19.3006  19.5903  19.5904  19.9830  20.0632  20.0632  21.2375  21.2375
    21.6264  21.6264  21.9820  21.9820  22.2537  22.2538  22.7775  22.7776
    23.5883  24.0024  24.2939  24.2939  25.5415  25.5415  25.8532  25.8532
    26.0238  26.0238  26.4723  26.4723  27.1088  27.1090  27.2522  27.3884
    27.3884  27.7769  27.9015  27.9015  27.9887  29.0628  29.2794  29.2794
    29.3980  29.3981  29.8403  29.8504  30.1064  30.1065  30.2620  30.2620
    30.4527  30.4527

          k = 0.0553 0.2764 0.3870 ( 33494 PWs)   bands (ev):

   -65.2043 -65.1972 -65.1911 -65.1858 -65.1808 -65.1770 -65.1763 -65.1742
   -65.1731 -65.1721 -65.1710 -65.1695 -65.1682 -65.1659 -65.1646 -65.1639
   -65.1635 -65.1625 -65.1615 -65.1614 -65.1599 -65.1591 -65.1575 -65.1562
   -65.1561 -65.1561 -65.1560 -65.1552 -65.1544 -65.1539 -65.1532 -65.1523
   -31.0643 -31.0632 -31.0453 -31.0412 -31.0401 -31.0396 -31.0376 -31.0361
   -31.0349 -31.0219 -31.0211 -31.0210 -31.0174 -31.0137 -31.0100 -31.0096
   -31.0090 -31.0025 -31.0021 -31.0014 -30.9959 -30.9927 -30.9857 -30.9846
   -30.9836 -30.9705 -30.9622 -30.9601 -30.9520 -30.9400 -30.9286 -30.9250
   -30.9214 -30.9114 -30.9099 -30.9041 -30.9036 -30.9034 -30.8950 -30.8919
   -30.8793 -30.8734 -30.8713 -30.8666 -30.8644 -30.8638 -30.8584 -30.8569
   -30.8543 -30.8525 -30.8517 -30.8471 -30.8457 -30.8444 -30.8412 -30.8352
   -30.8348 -30.8342 -30.8331 -30.8329 -30.8304 -30.8253 -30.8227 -30.8218
   -30.8206 -30.8188 -30.8144 -30.8144 -30.8126 -30.8104 -30.8101 -30.8097
   -30.8038 -30.8032 -30.8022 -30.7993 -30.7978 -30.7975 -30.7971 -30.7968
   -30.7911 -30.7901 -30.7887 -30.7867 -30.7852 -30.7849 -30.7848 -30.7809
   -30.7760 -30.7757 -30.7679 -30.7581 -30.7565 -30.7527 -30.7512 -30.7396
    12.6447  13.2113  13.7033  14.0385  14.1115  14.1149  14.1188  14.1233
    14.1481  14.2793  14.2862  14.2915  14.3012  14.3306  14.3326  14.3737
    14.3899  14.3953  14.4042  14.4395  14.4607  14.4873  14.5264  14.5499
    14.5624  14.6187  14.6402  14.6528  14.7246  14.7504  14.7770  14.7864
    14.8235  14.9180  14.9217  14.9552  15.0011  15.0279  15.0324  15.0817
    15.0935  15.1423  15.1703  15.2056  15.2431  15.3487  15.3957  15.4127
    15.4298  15.4753  15.5376  15.5677  15.5966  15.6195  15.6690  15.7765
    15.7879  15.7891  15.8688  15.9248  15.9303  15.9897  16.0336  16.0370
    16.0699  16.0720  16.0767  16.1140  16.1441  16.1652  16.1867  16.2720
    16.2781  16.3144  16.3351  16.3380  16.3513  16.3773  16.3829  16.4125
    16.4183  16.4218  16.4354  16.5165  16.5165  16.5361  16.5409  16.5590
    16.5664  16.6411  16.6445  16.6482  16.7208  16.7399  16.8053  16.8196
    16.8314  16.8670  16.8872  16.8990  16.9082  16.9461  16.9691  17.0645
    17.1729  17.1766  17.2015  17.2065  17.2187  17.2304  17.2870  17.3061
    17.3445  17.3716  17.4274  17.4435  17.4547  17.5359  17.6962  17.7368
    17.7479  17.7536  17.7736  17.7794  17.9018  17.9077  17.9195  17.9311
    17.9340  17.9792  18.0815  18.1028  18.1030  18.1148  18.1686  18.1801
    18.1824  18.2560  18.2823  18.3156  18.3207  18.3810  18.4048  18.4738
    18.4867  18.4867  18.4977  18.4982  18.5105  18.5118  18.5387  18.5598
    18.6515  18.7007  18.7066  18.7078  18.7125  18.7146  18.7173  18.7263
    18.7752  18.8495  18.8909  18.8921  18.9028  18.9254  19.2005  19.2860
    19.5007  19.6385  19.7734  19.8745  19.9239  20.0063  20.7434  21.2685
    21.9136  21.9285  22.1318  22.2184  22.5239  22.6960  22.9949  23.4679
    23.5005  23.6992  24.1069  24.6714  24.6832  25.0634  25.3496  25.8706
    26.0617  26.2001  26.3095  26.4533  26.6567  26.7027  26.9521  27.1203
    27.4182  27.4482  27.6633  27.8517  28.4082  28.7451  29.2874  29.3751
    29.4548  29.5026  29.5971  29.6651  29.7736  29.8665  30.3776  30.4048
    30.5641  30.6399

          k = 0.0553 0.2764-0.4975 ( 33510 PWs)   bands (ev):

   -65.2015 -65.2007 -65.1891 -65.1883 -65.1794 -65.1787 -65.1752 -65.1744
   -65.1736 -65.1729 -65.1707 -65.1699 -65.1675 -65.1667 -65.1635 -65.1628
   -65.1627 -65.1620 -65.1611 -65.1603 -65.1589 -65.1583 -65.1582 -65.1578
   -65.1575 -65.1570 -65.1553 -65.1552 -65.1545 -65.1544 -65.1531 -65.1524
   -31.0536 -31.0533 -31.0518 -31.0515 -31.0322 -31.0315 -31.0307 -31.0303
   -31.0300 -31.0299 -31.0200 -31.0199 -31.0195 -31.0193 -31.0169 -31.0169
   -31.0161 -31.0160 -31.0073 -31.0068 -30.9892 -30.9886 -30.9883 -30.9877
   -30.9732 -30.9728 -30.9603 -30.9603 -30.9555 -30.9551 -30.9161 -30.9158
   -30.9145 -30.9143 -30.9082 -30.9079 -30.9028 -30.9020 -30.8916 -30.8914
   -30.8908 -30.8900 -30.8581 -30.8575 -30.8568 -30.8560 -30.8549 -30.8542
   -30.8526 -30.8523 -30.8514 -30.8512 -30.8463 -30.8461 -30.8445 -30.8438
   -30.8339 -30.8334 -30.8314 -30.8313 -30.8255 -30.8250 -30.8249 -30.8246
   -30.8171 -30.8164 -30.8146 -30.8142 -30.8110 -30.8107 -30.8096 -30.8093
   -30.8044 -30.8036 -30.8012 -30.8005 -30.8005 -30.7998 -30.7991 -30.7987
   -30.7940 -30.7932 -30.7914 -30.7911 -30.7872 -30.7864 -30.7794 -30.7791
   -30.7786 -30.7779 -30.7592 -30.7585 -30.7562 -30.7560 -30.7452 -30.7449
    12.9040  12.9050  13.8985  13.8993  14.1448  14.1449  14.2206  14.2214
    14.2371  14.2371  14.2453  14.2457  14.3077  14.3085  14.3345  14.3349
    14.4293  14.4301  14.4516  14.4517  14.4666  14.4668  14.4798  14.4800
    14.5306  14.5314  14.6305  14.6309  14.6740  14.6741  14.7328  14.7334
    14.9070  14.9078  14.9205  14.9210  14.9969  14.9971  15.0589  15.0591
    15.0691  15.0699  15.2493  15.2499  15.2811  15.2811  15.2954  15.2961
    15.5554  15.5555  15.5592  15.5596  15.6628  15.6630  15.6795  15.6800
    15.7006  15.7012  15.8092  15.8097  16.0146  16.0152  16.0983  16.0989
    16.1091  16.1092  16.1354  16.1359  16.1782  16.1785  16.1932  16.1933
    16.2395  16.2396  16.3837  16.3838  16.4302  16.4308  16.4417  16.4420
    16.4608  16.4608  16.4920  16.4926  16.4966  16.4972  16.5112  16.5115
    16.6645  16.6649  16.6870  16.6873  16.8410  16.8411  16.8424  16.8429
    16.8523  16.8528  16.9208  16.9209  16.9329  16.9331  16.9478  16.9480
    17.0002  17.0008  17.2520  17.2526  17.2570  17.2573  17.3074  17.3079
    17.3358  17.3363  17.3596  17.3603  17.3667  17.3670  17.6454  17.6461
    17.6522  17.6528  17.8309  17.8316  17.8614  17.8620  17.8731  17.8738
    18.0309  18.0316  18.1545  18.1553  18.1584  18.1591  18.2773  18.2781
    18.2996  18.3002  18.3430  18.3430  18.3897  18.3898  18.3899  18.3900
    18.5074  18.5080  18.5346  18.5347  18.5593  18.5597  18.6052  18.6055
    18.6072  18.6076  18.6220  18.6222  18.6273  18.6274  18.6429  18.6430
    18.8384  18.8386  18.8962  18.8969  18.9027  18.9032  19.2343  19.2344
    19.3902  19.3909  19.9488  19.9496  20.2552  20.2555  20.5456  20.5462
    22.1213  22.1219  22.4948  22.4954  22.6629  22.6633  23.1040  23.1045
    23.8058  23.8061  24.2797  24.2799  24.7033  24.7039  25.4248  25.4250
    26.1339  26.1340  26.4920  26.4921  26.5732  26.5738  26.8898  26.8905
    27.0427  27.0434  28.2246  28.2247  28.5325  28.5327  29.1063  29.1064
    29.3948  29.3957  29.5401  29.5410  29.9771  29.9780  30.1615  30.1616
    30.8121  30.8129

          k = 0.0553 0.3870 0.3870 ( 33518 PWs)   bands (ev):

   -65.2019 -65.1952 -65.1952 -65.1894 -65.1796 -65.1762 -65.1761 -65.1753
   -65.1736 -65.1726 -65.1725 -65.1706 -65.1641 -65.1640 -65.1626 -65.1625
   -65.1622 -65.1622 -65.1606 -65.1604 -65.1599 -65.1598 -65.1575 -65.1574
   -65.1571 -65.1570 -65.1565 -65.1564 -65.1552 -65.1537 -65.1534 -65.1527
   -31.0574 -31.0574 -31.0359 -31.0359 -31.0352 -31.0351 -31.0330 -31.0322
   -31.0305 -31.0305 -31.0214 -31.0206 -31.0205 -31.0178 -31.0177 -31.0098
   -31.0098 -31.0034 -31.0033 -31.0024 -31.0023 -31.0013 -31.0013 -30.9899
   -30.9874 -30.9874 -30.9734 -30.9600 -30.9552 -30.9402 -30.9402 -30.9156
   -30.9081 -30.9080 -30.8968 -30.8967 -30.8897 -30.8829 -30.8829 -30.8779
   -30.8779 -30.8774 -30.8773 -30.8729 -30.8729 -30.8552 -30.8551 -30.8512
   -30.8512 -30.8505 -30.8505 -30.8492 -30.8476 -30.8475 -30.8455 -30.8455
   -30.8427 -30.8427 -30.8310 -30.8309 -30.8286 -30.8286 -30.8278 -30.8237
   -30.8236 -30.8143 -30.8143 -30.8117 -30.8116 -30.8116 -30.8116 -30.8087
   -30.8036 -30.8031 -30.8031 -30.8021 -30.8020 -30.7996 -30.7970 -30.7930
   -30.7927 -30.7902 -30.7887 -30.7887 -30.7884 -30.7863 -30.7845 -30.7782
   -30.7782 -30.7744 -30.7744 -30.7573 -30.7516 -30.7498 -30.7498 -30.7404
    12.8387  13.3811  13.3812  13.8491  14.0822  14.1754  14.1939  14.2427
    14.2427  14.2621  14.2635  14.2635  14.3804  14.3804  14.4051  14.4271
    14.4271  14.4460  14.4460  14.4487  14.4488  14.4695  14.4696  14.5898
    14.5899  14.6035  14.6204  14.6556  14.6556  14.7540  14.7541  14.7567
    14.7568  14.7849  14.7849  14.8276  14.8276  14.9594  14.9595  14.9733
    14.9733  14.9988  14.9988  15.2342  15.2342  15.2816  15.4682  15.4683
    15.4730  15.4731  15.5644  15.6291  15.6718  15.6718  15.6748  15.6749
    15.6886  15.8767  15.9848  15.9849  16.0360  16.1536  16.1648  16.1649
    16.2012  16.2012  16.2057  16.2058  16.2073  16.2074  16.2438  16.2438
    16.2706  16.2841  16.4236  16.4332  16.4503  16.4504  16.4555  16.4826
    16.5016  16.5144  16.5145  16.5325  16.5328  16.5328  16.6459  16.6460
    16.6553  16.6554  16.6572  16.6573  16.6744  16.6744  16.7709  16.7709
    16.7764  16.7933  16.8658  16.8659  16.8721  16.9289  16.9707  16.9708
    16.9794  16.9879  16.9879  17.0026  17.0027  17.0269  17.0270  17.1831
    17.2881  17.2882  17.3075  17.3075  17.4118  17.4771  17.4771  17.5083
    17.6587  17.7979  17.8934  17.8935  17.9376  17.9376  18.0217  18.0218
    18.0949  18.0950  18.1443  18.1444  18.2003  18.2006  18.2007  18.3031
    18.3031  18.3954  18.4179  18.4233  18.4233  18.4267  18.4268  18.4316
    18.4321  18.4321  18.4934  18.5612  18.5918  18.5918  18.5965  18.5965
    18.6063  18.6929  18.6929  18.7184  18.7184  18.7216  18.7217  18.7246
    18.7482  18.7483  18.7494  18.7495  18.8438  18.9314  19.0482  19.1175
    19.1175  19.6007  19.6008  19.6962  20.3732  20.3732  21.3972  21.3972
    21.7932  21.7932  22.5629  22.5629  22.9074  22.9074  22.9727  22.9727
    23.3900  23.3901  24.5519  24.5519  24.5829  25.3389  25.7533  25.7533
    25.8817  25.8817  26.1398  26.1398  26.2916  26.2917  26.6985  26.6986
    26.8240  26.8464  26.8467  28.1286  28.4854  29.0611  29.3890  29.3957
    29.3958  29.5345  29.9439  29.9440  30.1278  30.1278  30.5295  30.5296
    30.9674  30.9676

          k = 0.0553 0.3870-0.4975 ( 33520 PWs)   bands (ev):

   -65.1992 -65.1985 -65.1929 -65.1922 -65.1784 -65.1776 -65.1754 -65.1747
   -65.1744 -65.1736 -65.1721 -65.1713 -65.1637 -65.1629 -65.1617 -65.1614
   -65.1610 -65.1607 -65.1606 -65.1600 -65.1596 -65.1591 -65.1588 -65.1588
   -65.1583 -65.1580 -65.1574 -65.1566 -65.1546 -65.1539 -65.1535 -65.1528
   -31.0484 -31.0481 -31.0477 -31.0474 -31.0294 -31.0294 -31.0293 -31.0292
   -31.0251 -31.0244 -31.0227 -31.0219 -31.0182 -31.0175 -31.0174 -31.0170
   -31.0119 -31.0113 -31.0051 -31.0047 -31.0034 -31.0028 -31.0005 -30.9998
   -30.9877 -30.9873 -30.9717 -30.9713 -30.9511 -30.9511 -30.9280 -30.9278
   -30.8952 -30.8950 -30.8922 -30.8921 -30.8885 -30.8877 -30.8842 -30.8834
   -30.8699 -30.8697 -30.8660 -30.8652 -30.8652 -30.8644 -30.8633 -30.8632
   -30.8605 -30.8604 -30.8499 -30.8493 -30.8453 -30.8452 -30.8423 -30.8416
   -30.8366 -30.8360 -30.8346 -30.8345 -30.8287 -30.8286 -30.8275 -30.8270
   -30.8210 -30.8206 -30.8204 -30.8202 -30.8082 -30.8081 -30.8079 -30.8076
   -30.8075 -30.8071 -30.8040 -30.8037 -30.7954 -30.7947 -30.7944 -30.7940
   -30.7928 -30.7925 -30.7915 -30.7909 -30.7832 -30.7828 -30.7825 -30.7824
   -30.7817 -30.7809 -30.7655 -30.7647 -30.7495 -30.7495 -30.7439 -30.7438
    13.0871  13.0880  13.5967  13.5976  14.1577  14.1578  14.2557  14.2561
    14.2628  14.2628  14.3054  14.3057  14.3546  14.3553  14.3851  14.3852
    14.4055  14.4063  14.5201  14.5202  14.5403  14.5411  14.5796  14.5797
    14.5836  14.5837  14.5980  14.5988  14.6381  14.6387  14.7098  14.7106
    14.7740  14.7743  14.7972  14.7977  14.8665  14.8673  14.8712  14.8714
    14.8819  14.8821  15.1172  15.1172  15.3364  15.3370  15.3420  15.3428
    15.5605  15.5611  15.5674  15.5681  15.6642  15.6645  15.7909  15.7912
    15.8009  15.8012  15.9398  15.9399  16.0256  16.0262  16.1607  16.1612
    16.2046  16.2046  16.2239  16.2241  16.3284  16.3285  16.3626  16.3628
    16.4432  16.4438  16.4967  16.4969  16.5023  16.5028  16.5050  16.5051
    16.5092  16.5094  16.5259  16.5263  16.5927  16.5929  16.6162  16.6163
    16.6382  16.6383  16.6994  16.6997  16.7018  16.7021  16.7104  16.7108
    16.7194  16.7199  16.7518  16.7520  16.8326  16.8329  16.8336  16.8341
    16.8625  16.8627  17.0511  17.0514  17.1550  17.1554  17.1689  17.1693
    17.2044  17.2046  17.2300  17.2305  17.2399  17.2406  17.3410  17.3417
    17.7833  17.7840  17.8911  17.8917  18.0429  18.0435  18.0541  18.0548
    18.0677  18.0685  18.1813  18.1817  18.2785  18.2791  18.3144  18.3151
    18.3244  18.3246  18.3490  18.3497  18.4542  18.4543  18.5198  18.5204
    18.5251  18.5257  18.5851  18.5854  18.6100  18.6102  18.6276  18.6278
    18.6563  18.6566  18.6592  18.6595  18.6733  18.6736  18.6777  18.6778
    18.7320  18.7327  18.7610  18.7612  18.7854  18.7856  19.0331  19.0338
    19.2286  19.2289  19.5984  19.5991  20.8828  20.8832  21.0582  21.0587
    22.1261  22.1266  22.3456  22.3461  22.8473  22.8479  23.0820  23.0824
    23.7731  23.7732  24.0683  24.0685  25.1414  25.1420  25.9279  25.9280
    26.0152  26.0152  26.0589  26.0593  26.1554  26.1554  26.3062  26.3067
    26.3493  26.3499  27.4730  27.4732  29.1841  29.1842  29.3721  29.3730
    29.4473  29.4483  29.7690  29.7691  30.5249  30.5258  30.6317  30.6319
    30.6465  30.6465

          k = 0.0553-0.4975-0.4975 ( 33540 PWs)   bands (ev):

   -65.1965 -65.1962 -65.1957 -65.1955 -65.1772 -65.1769 -65.1764 -65.1761
   -65.1735 -65.1732 -65.1727 -65.1724 -65.1605 -65.1605 -65.1602 -65.1602
   -65.1602 -65.1601 -65.1599 -65.1599 -65.1598 -65.1597 -65.1595 -65.1594
   -65.1594 -65.1593 -65.1591 -65.1591 -65.1542 -65.1539 -65.1534 -65.1531
   -31.0402 -31.0401 -31.0401 -31.0401 -31.0400 -31.0399 -31.0399 -31.0398
   -31.0156 -31.0156 -31.0154 -31.0154 -31.0150 -31.0150 -31.0148 -31.0148
   -31.0127 -31.0124 -31.0119 -31.0116 -31.0031 -31.0029 -31.0026 -31.0025
   -30.9887 -30.9886 -30.9883 -30.9882 -30.9399 -30.9399 -30.9399 -30.9398
   -30.8769 -30.8769 -30.8769 -30.8769 -30.8769 -30.8769 -30.8769 -30.8769
   -30.8759 -30.8759 -30.8757 -30.8756 -30.8752 -30.8751 -30.8749 -30.8749
   -30.8486 -30.8486 -30.8486 -30.8485 -30.8398 -30.8397 -30.8397 -30.8395
   -30.8394 -30.8393 -30.8391 -30.8390 -30.8389 -30.8388 -30.8387 -30.8386
   -30.8151 -30.8151 -30.8149 -30.8149 -30.8146 -30.8145 -30.8144 -30.8143
   -30.8011 -30.8010 -30.8007 -30.8006 -30.7964 -30.7964 -30.7964 -30.7964
   -30.7882 -30.7882 -30.7882 -30.7882 -30.7864 -30.7862 -30.7860 -30.7859
   -30.7737 -30.7735 -30.7729 -30.7727 -30.7453 -30.7453 -30.7453 -30.7453
    13.3211  13.3216  13.3220  13.3225  14.1952  14.1953  14.1954  14.1955
    14.3122  14.3122  14.3123  14.3123  14.3967  14.3969  14.3969  14.3970
    14.5208  14.5209  14.5213  14.5213  14.5216  14.5216  14.5220  14.5220
    14.6870  14.6871  14.6875  14.6876  14.6877  14.6879  14.6882  14.6883
    14.7226  14.7227  14.7227  14.7227  14.7227  14.7228  14.7228  14.7229
    14.9412  14.9412  14.9413  14.9414  15.4427  15.4427  15.4431  15.4431
    15.4434  15.4434  15.4438  15.4438  15.7433  15.7435  15.7436  15.7437
    15.9833  15.9836  15.9839  15.9842  16.1700  16.1703  16.1706  16.1709
    16.2839  16.2841  16.2842  16.2844  16.2958  16.2959  16.2960  16.2961
    16.5136  16.5138  16.5140  16.5142  16.5440  16.5440  16.5441  16.5441
    16.5441  16.5442  16.5443  16.5443  16.5923  16.5924  16.5924  16.5927
    16.5999  16.6000  16.6002  16.6003  16.7049  16.7050  16.7052  16.7053
    16.8234  16.8235  16.8236  16.8237  16.8238  16.8239  16.8240  16.8241
    16.9839  16.9842  16.9842  16.9845  16.9960  16.9960  16.9962  16.9962
    16.9964  16.9964  16.9965  16.9965  17.2875  17.2877  17.2883  17.2884
    17.9254  17.9256  17.9261  17.9263  18.0118  18.0119  18.0122  18.0124
    18.2053  18.2054  18.2055  18.2056  18.2059  18.2060  18.2060  18.2062
    18.5162  18.5163  18.5167  18.5168  18.5429  18.5430  18.5430  18.5432
    18.5435  18.5436  18.5437  18.5437  18.6526  18.6527  18.6530  18.6531
    18.6846  18.6846  18.6846  18.6846  18.6847  18.6848  18.6848  18.6848
    18.6849  18.6849  18.6850  18.6851  18.7610  18.7611  18.7614  18.7615
    19.3364  19.3366  19.3368  19.3370  21.5891  21.5893  21.5893  21.5894
    21.5896  21.5897  21.5898  21.5899  23.5453  23.5454  23.5454  23.5456
    23.5456  23.5458  23.5458  23.5459  25.6610  25.6613  25.6616  25.6620
    25.9630  25.9630  25.9631  25.9632  25.9632  25.9633  25.9633  25.9634
    26.7528  26.7531  26.7532  26.7533  29.3931  29.3933  29.3940  29.3942
    29.8892  29.8893  29.8894  29.8894  30.4784  30.4785  30.4786  30.4786
    31.0751  31.0753

          k = 0.1658 0.1658 0.1658 ( 33473 PWs)   bands (ev):

   -65.2093 -65.1889 -65.1888 -65.1888 -65.1759 -65.1758 -65.1758 -65.1739
   -65.1738 -65.1738 -65.1702 -65.1670 -65.1665 -65.1665 -65.1663 -65.1663
   -65.1662 -65.1660 -65.1660 -65.1655 -65.1608 -65.1608 -65.1607 -65.1541
   -65.1536 -65.1535 -65.1533 -65.1533 -65.1532 -65.1531 -65.1530 -65.1525
   -31.0777 -31.0777 -31.0777 -31.0640 -31.0572 -31.0572 -31.0572 -31.0076
   -31.0076 -31.0076 -31.0004 -31.0004 -31.0004 -31.0004 -31.0004 -31.0003
   -30.9957 -30.9957 -30.9957 -30.9957 -30.9956 -30.9956 -30.9691 -30.9690
   -30.9690 -30.9553 -30.9553 -30.9553 -30.9419 -30.9419 -30.9419 -30.9419
   -30.9419 -30.9418 -30.9118 -30.9118 -30.9118 -30.8773 -30.8773 -30.8773
   -30.8742 -30.8742 -30.8741 -30.8729 -30.8728 -30.8728 -30.8728 -30.8728
   -30.8728 -30.8610 -30.8609 -30.8609 -30.8578 -30.8578 -30.8578 -30.8578
   -30.8578 -30.8577 -30.8333 -30.8333 -30.8333 -30.8190 -30.8190 -30.8190
   -30.8154 -30.8154 -30.8154 -30.8026 -30.8026 -30.8025 -30.7992 -30.7991
   -30.7991 -30.7935 -30.7935 -30.7935 -30.7935 -30.7935 -30.7934 -30.7901
   -30.7901 -30.7901 -30.7821 -30.7821 -30.7820 -30.7811 -30.7811 -30.7798
   -30.7798 -30.7798 -30.7692 -30.7691 -30.7691 -30.7570 -30.7366 -30.7366
    12.2339  13.8282  13.8283  13.8283  13.8803  13.9048  13.9049  13.9049
    14.0012  14.0012  14.0012  14.1660  14.1660  14.1660  14.3884  14.3885
    14.3885  14.6235  14.6236  14.6236  14.7544  14.7544  14.7545  14.7545
    14.7545  14.7546  14.8232  14.8233  14.8233  14.9585  14.9586  14.9586
    14.9604  14.9604  14.9604  14.9605  14.9605  14.9605  15.2014  15.2014
    15.2014  15.2015  15.2015  15.2015  15.3364  15.3365  15.3365  15.6227
    15.6228  15.6228  15.7126  15.7126  15.7126  15.7127  15.7127  15.7128
    15.7706  15.7707  15.7707  15.8583  15.8583  15.8583  15.8583  15.8584
    15.8584  16.0066  16.0066  16.0066  16.0904  16.1690  16.1690  16.1690
    16.1691  16.1691  16.1691  16.1814  16.1814  16.1819  16.1819  16.1819
    16.2438  16.2440  16.2440  16.2500  16.2500  16.2750  16.2750  16.2750
    16.6574  16.6575  16.6575  16.8234  16.8234  16.8234  16.9515  16.9515
    16.9516  17.0024  17.0025  17.0025  17.1228  17.1228  17.1229  17.1693
    17.1693  17.1694  17.1694  17.1694  17.1695  17.4497  17.4498  17.4498
    17.4936  17.4936  17.4937  17.5687  17.5687  17.5689  17.6417  17.6417
    17.6939  17.6940  17.6940  17.6940  17.6941  17.6941  17.9114  17.9114
    17.9114  17.9962  17.9962  17.9962  17.9962  17.9962  17.9963  18.1082
    18.1082  18.1083  18.1431  18.1431  18.1431  18.4649  18.4649  18.4650
    18.4866  18.4867  18.4867  18.5569  18.5569  18.5569  18.6018  18.6018
    18.6018  18.6438  18.6438  18.8140  18.8140  18.8140  18.9150  18.9570
    18.9570  18.9570  18.9571  18.9571  18.9571  19.0159  19.0160  19.0160
    19.6452  19.6453  19.6453  20.8051  20.8051  20.8051  21.1145  21.1145
    21.1145  21.1145  21.1145  21.1146  22.3783  22.3783  22.3783  22.7360
    22.7360  22.7360  25.8167  25.8168  25.8168  25.8168  25.8168  25.8169
    26.0138  26.0138  26.0138  27.1944  27.5850  27.5850  27.5850  27.5851
    27.5851  27.5852  28.2331  28.2331  28.2331  29.6649  29.6649  29.6649
    29.8453  29.8453  29.8453  29.8454  29.8454  29.8454  30.0339  30.0339
    30.0339  30.0339

          k = 0.1658 0.1658 0.2764 ( 33530 PWs)   bands (ev):

   -65.2076 -65.1936 -65.1878 -65.1877 -65.1788 -65.1788 -65.1754 -65.1733
   -65.1732 -65.1715 -65.1691 -65.1681 -65.1680 -65.1670 -65.1664 -65.1661
   -65.1655 -65.1650 -65.1633 -65.1632 -65.1612 -65.1591 -65.1590 -65.1551
   -65.1544 -65.1544 -65.1541 -65.1539 -65.1538 -65.1535 -65.1531 -65.1526
   -31.0742 -31.0701 -31.0701 -31.0523 -31.0519 -31.0519 -31.0489 -31.0246
   -31.0147 -31.0147 -31.0094 -31.0094 -31.0063 -31.0062 -31.0056 -31.0055
   -31.0008 -31.0007 -30.9960 -30.9960 -30.9942 -30.9942 -30.9845 -30.9793
   -30.9616 -30.9616 -30.9544 -30.9543 -30.9442 -30.9442 -30.9331 -30.9331
   -30.9279 -30.9279 -30.9233 -30.9233 -30.8912 -30.8897 -30.8897 -30.8861
   -30.8861 -30.8816 -30.8816 -30.8694 -30.8602 -30.8602 -30.8594 -30.8593
   -30.8587 -30.8587 -30.8578 -30.8576 -30.8571 -30.8516 -30.8508 -30.8508
   -30.8491 -30.8491 -30.8317 -30.8259 -30.8227 -30.8227 -30.8216 -30.8211
   -30.8211 -30.8126 -30.8122 -30.8122 -30.8095 -30.8095 -30.8052 -30.8052
   -30.8048 -30.8048 -30.8015 -30.7947 -30.7947 -30.7936 -30.7935 -30.7930
   -30.7918 -30.7916 -30.7857 -30.7857 -30.7831 -30.7783 -30.7753 -30.7752
   -30.7716 -30.7702 -30.7695 -30.7678 -30.7657 -30.7656 -30.7404 -30.7380
    12.3732  13.4894  13.9134  13.9135  13.9153  13.9693  13.9844  13.9844
    14.0754  14.0754  14.1119  14.2191  14.2536  14.2536  14.3593  14.4260
    14.4568  14.4569  14.4812  14.4812  14.5947  14.5947  14.6674  14.7210
    14.7210  14.7861  14.7862  14.7955  14.8289  14.8290  14.8776  14.8778
    14.9078  14.9078  14.9206  14.9207  14.9627  14.9627  15.0322  15.0322
    15.2124  15.2124  15.2318  15.2318  15.3857  15.3858  15.5083  15.5465
    15.5466  15.5680  15.5681  15.6095  15.6330  15.6330  15.7191  15.7192
    15.7545  15.7545  15.8375  15.8376  15.8430  15.8431  15.9170  15.9661
    15.9661  16.0267  16.0365  16.0955  16.0955  16.1779  16.1780  16.1787
    16.1787  16.1862  16.1863  16.2002  16.2151  16.2821  16.2822  16.2954
    16.3040  16.3489  16.3489  16.3639  16.3682  16.4559  16.5451  16.5451
    16.5475  16.5475  16.6522  16.6534  16.7564  16.7565  16.7762  16.8267
    16.8267  16.9141  16.9141  16.9642  16.9832  16.9832  17.2283  17.2284
    17.2594  17.2595  17.3017  17.3033  17.3303  17.3303  17.4476  17.4478
    17.4936  17.4937  17.5698  17.5699  17.5710  17.6223  17.6223  17.6226
    17.6458  17.6459  17.6804  17.6873  17.6873  17.7119  17.7875  17.8514
    17.8514  17.9984  18.0418  18.0418  18.1738  18.1738  18.1969  18.1969
    18.2066  18.2067  18.2075  18.2182  18.2182  18.2700  18.2700  18.2957
    18.4081  18.4094  18.4094  18.5060  18.5077  18.5150  18.5150  18.5822
    18.7816  18.7986  18.7987  18.8534  18.8534  18.8556  18.8556  18.8722
    18.8723  18.9599  18.9599  18.9608  18.9764  19.0006  19.0006  19.0117
    19.2610  19.2611  19.5770  20.6358  20.6359  20.8706  20.8706  21.0930
    21.0930  21.4339  21.7470  21.7470  21.7691  22.7011  22.8073  22.8073
    23.3740  23.3740  24.9653  24.9653  25.1915  25.1915  25.8486  25.9826
    25.9827  26.3384  26.3384  26.7120  26.7120  27.3694  27.7365  27.7365
    27.7534  27.7930  27.7932  28.1181  28.1181  28.9555  28.9555  29.3444
    29.3445  29.6152  29.6152  29.9780  29.9780  30.2106  30.2106  30.4366
    30.4366  30.4464

          k = 0.1658 0.1658 0.3870 ( 33524 PWs)   bands (ev):

   -65.2051 -65.1980 -65.1862 -65.1861 -65.1816 -65.1815 -65.1747 -65.1727
   -65.1724 -65.1723 -65.1696 -65.1696 -65.1670 -65.1664 -65.1661 -65.1655
   -65.1648 -65.1639 -65.1618 -65.1605 -65.1605 -65.1576 -65.1575 -65.1575
   -65.1560 -65.1559 -65.1548 -65.1548 -65.1541 -65.1535 -65.1531 -65.1526
   -31.0666 -31.0594 -31.0594 -31.0441 -31.0441 -31.0412 -31.0375 -31.0366
   -31.0306 -31.0306 -31.0224 -31.0224 -31.0081 -31.0081 -31.0053 -31.0052
   -31.0035 -31.0034 -31.0025 -31.0012 -30.9974 -30.9973 -30.9868 -30.9867
   -30.9696 -30.9696 -30.9441 -30.9441 -30.9383 -30.9383 -30.9331 -30.9331
   -30.9225 -30.9225 -30.9143 -30.9143 -30.9050 -30.9050 -30.8988 -30.8988
   -30.8908 -30.8908 -30.8695 -30.8626 -30.8586 -30.8583 -30.8578 -30.8575
   -30.8515 -30.8486 -30.8486 -30.8434 -30.8429 -30.8429 -30.8412 -30.8412
   -30.8388 -30.8388 -30.8356 -30.8294 -30.8294 -30.8292 -30.8273 -30.8182
   -30.8182 -30.8175 -30.8174 -30.8146 -30.8146 -30.8099 -30.8099 -30.8089
   -30.8071 -30.8070 -30.7999 -30.7976 -30.7975 -30.7956 -30.7937 -30.7933
   -30.7926 -30.7922 -30.7920 -30.7920 -30.7886 -30.7858 -30.7758 -30.7716
   -30.7700 -30.7700 -30.7647 -30.7646 -30.7619 -30.7573 -30.7460 -30.7420
    12.5775  13.1502  13.9887  14.0325  14.0326  14.0592  14.0998  14.0998
    14.1859  14.1859  14.2471  14.2535  14.2730  14.2977  14.3287  14.3288
    14.3824  14.3824  14.4158  14.4158  14.5104  14.5104  14.5250  14.5495
    14.5496  14.6065  14.7437  14.7437  14.7707  14.7708  14.8213  14.8214
    14.8860  14.8861  14.9298  14.9299  15.0363  15.0364  15.0644  15.0644
    15.2300  15.2301  15.2890  15.2891  15.3797  15.3798  15.4111  15.4112
    15.4569  15.4570  15.4762  15.4763  15.6380  15.6381  15.6541  15.6710
    15.8034  15.8034  15.8218  15.8657  15.8657  15.9150  15.9150  15.9426
    16.0082  16.0082  16.0196  16.0197  16.1426  16.1862  16.1862  16.1888
    16.1889  16.2004  16.2810  16.3075  16.3076  16.3773  16.3845  16.4383
    16.4383  16.4508  16.4508  16.4889  16.4902  16.4903  16.4912  16.4912
    16.5028  16.5893  16.6219  16.6906  16.7429  16.7948  16.8353  16.8353
    16.8502  16.8502  16.8901  16.8901  16.9553  16.9553  17.2897  17.2897
    17.2922  17.3297  17.3368  17.3370  17.3517  17.3518  17.4450  17.4452
    17.4744  17.4745  17.4751  17.4773  17.4775  17.5708  17.5709  17.5942
    17.5943  17.6241  17.6537  17.6554  17.6554  17.7371  17.8102  17.8102
    17.8982  17.9314  18.0006  18.0388  18.0389  18.1239  18.1239  18.1954
    18.3244  18.3244  18.3365  18.3447  18.3448  18.3708  18.3859  18.3860
    18.3893  18.3893  18.4100  18.4101  18.4158  18.4158  18.4532  18.6934
    18.7067  18.7188  18.7188  18.7195  18.7195  18.7210  18.7210  18.8858
    18.9137  18.9138  18.9650  18.9650  18.9850  18.9850  19.1693  19.2904
    19.2905  19.4744  19.6290  20.1740  20.1741  20.9430  20.9430  21.0534
    21.0579  21.0579  21.9753  22.4587  22.4587  22.5984  23.3423  23.3423
    24.0743  24.0744  24.0877  24.0877  24.5591  24.5591  25.6260  25.6260
    25.8680  26.4927  26.4928  26.6441  26.8121  26.8121  27.2655  27.2655
    28.0881  28.0882  28.1401  28.1401  28.3835  28.6330  28.6330  28.8777
    28.8778  29.4649  29.4649  29.8408  29.9515  29.9516  30.1790  30.1790
    30.3526  30.3527

          k = 0.1658 0.1658-0.4975 ( 33510 PWs)   bands (ev):

   -65.2022 -65.2015 -65.1845 -65.1844 -65.1837 -65.1837 -65.1742 -65.1734
   -65.1715 -65.1714 -65.1707 -65.1707 -65.1670 -65.1664 -65.1661 -65.1655
   -65.1631 -65.1624 -65.1613 -65.1605 -65.1584 -65.1584 -65.1577 -65.1576
   -65.1564 -65.1564 -65.1557 -65.1556 -65.1541 -65.1535 -65.1531 -65.1526
   -31.0556 -31.0554 -31.0465 -31.0461 -31.0457 -31.0454 -31.0346 -31.0345
   -31.0338 -31.0337 -31.0208 -31.0208 -31.0205 -31.0201 -31.0079 -31.0079
   -31.0077 -31.0076 -31.0003 -31.0002 -31.0000 -31.0000 -30.9785 -30.9785
   -30.9781 -30.9781 -30.9405 -30.9405 -30.9402 -30.9402 -30.9217 -30.9217
   -30.9214 -30.9214 -30.9112 -30.9112 -30.9106 -30.9106 -30.9021 -30.9021
   -30.9016 -30.9016 -30.8584 -30.8581 -30.8577 -30.8574 -30.8542 -30.8535
   -30.8486 -30.8484 -30.8447 -30.8439 -30.8385 -30.8385 -30.8378 -30.8377
   -30.8300 -30.8299 -30.8295 -30.8295 -30.8283 -30.8283 -30.8282 -30.8281
   -30.8280 -30.8279 -30.8275 -30.8273 -30.8053 -30.8050 -30.8021 -30.8021
   -30.8017 -30.8017 -30.8005 -30.8005 -30.7998 -30.7998 -30.7984 -30.7977
   -30.7976 -30.7973 -30.7937 -30.7932 -30.7929 -30.7924 -30.7739 -30.7731
   -30.7663 -30.7663 -30.7661 -30.7661 -30.7536 -30.7528 -30.7487 -30.7485
    12.8397  12.8407  14.0998  14.0999  14.1650  14.1658  14.1748  14.1749
    14.1755  14.1756  14.2456  14.2460  14.2462  14.2466  14.3309  14.3309
    14.3317  14.3318  14.4000  14.4009  14.4208  14.4210  14.5476  14.5477
    14.5482  14.5483  14.6572  14.6573  14.6575  14.6576  14.8542  14.8543
    14.8543  14.8543  15.0276  15.0277  15.0283  15.0284  15.2068  15.2068
    15.2069  15.2069  15.2709  15.2710  15.2715  15.2716  15.3746  15.3746
    15.3748  15.3748  15.5444  15.5445  15.5449  15.5450  15.7300  15.7306
    15.8178  15.8184  15.8583  15.8585  15.8589  15.8592  15.9259  15.9260
    15.9263  15.9263  16.1830  16.1835  16.1898  16.1899  16.1903  16.1904
    16.2394  16.2395  16.2395  16.2395  16.3570  16.3570  16.3571  16.3572
    16.3775  16.3777  16.4828  16.4834  16.4905  16.4912  16.5615  16.5617
    16.5618  16.5621  16.6329  16.6332  16.8703  16.8703  16.8708  16.8708
    16.9591  16.9592  16.9594  16.9595  17.0353  17.0356  17.1413  17.1416
    17.3703  17.3710  17.3809  17.3809  17.3813  17.3813  17.3964  17.3965
    17.3971  17.3972  17.4700  17.4701  17.4707  17.4708  17.5437  17.5439
    17.5444  17.5445  17.5853  17.5853  17.5858  17.5858  17.8100  17.8107
    17.9292  17.9299  18.1423  18.1425  18.1984  18.1985  18.2241  18.2241
    18.2248  18.2248  18.2252  18.2255  18.2259  18.2263  18.5604  18.5605
    18.5609  18.5610  18.5686  18.5686  18.5690  18.5690  18.5866  18.5866
    18.5870  18.5870  18.5943  18.5945  18.6034  18.6035  18.6036  18.6036
    18.7955  18.7955  18.9723  18.9729  18.9732  18.9737  19.3375  19.3383
    19.7255  19.7256  19.7257  19.7258  20.3210  20.3216  21.0073  21.0073
    21.0080  21.0081  22.3696  22.3702  23.2433  23.2434  23.2437  23.2438
    23.9357  23.9357  23.9363  23.9363  24.8356  24.8357  24.8359  24.8359
    26.1280  26.1281  26.8351  26.8351  26.8358  26.8358  27.4186  27.4187
    27.4193  27.4195  28.4542  28.4544  28.4551  28.4552  29.0809  29.0810
    29.1112  29.1112  29.1117  29.1117  29.9878  29.9880  29.9886  29.9888
    30.5240  30.5246

          k = 0.1658 0.2764 0.2764 ( 33512 PWs)   bands (ev):

   -65.2059 -65.1924 -65.1923 -65.1867 -65.1822 -65.1782 -65.1782 -65.1732
   -65.1727 -65.1687 -65.1686 -65.1680 -65.1679 -65.1666 -65.1648 -65.1647
   -65.1645 -65.1644 -65.1634 -65.1632 -65.1597 -65.1596 -65.1577 -65.1554
   -65.1552 -65.1549 -65.1548 -65.1545 -65.1544 -65.1539 -65.1537 -65.1530
   -31.0683 -31.0682 -31.0618 -31.0467 -31.0447 -31.0447 -31.0394 -31.0236
   -31.0235 -31.0189 -31.0188 -31.0111 -31.0111 -31.0073 -31.0073 -31.0070
   -31.0069 -31.0052 -31.0052 -31.0045 -31.0026 -31.0026 -30.9832 -30.9832
   -30.9696 -30.9696 -30.9690 -30.9373 -30.9342 -30.9342 -30.9330 -30.9300
   -30.9300 -30.9201 -30.9201 -30.9027 -30.9015 -30.9015 -30.8903 -30.8763
   -30.8763 -30.8734 -30.8734 -30.8721 -30.8721 -30.8653 -30.8653 -30.8554
   -30.8554 -30.8554 -30.8516 -30.8515 -30.8492 -30.8492 -30.8483 -30.8483
   -30.8438 -30.8437 -30.8356 -30.8356 -30.8234 -30.8234 -30.8207 -30.8192
   -30.8192 -30.8148 -30.8128 -30.8106 -30.8105 -30.8091 -30.8081 -30.8081
   -30.8071 -30.8071 -30.8063 -30.8044 -30.8043 -30.7963 -30.7962 -30.7951
   -30.7950 -30.7945 -30.7830 -30.7814 -30.7800 -30.7775 -30.7770 -30.7747
   -30.7747 -30.7670 -30.7670 -30.7639 -30.7639 -30.7603 -30.7432 -30.7386
    12.5083  13.5865  13.5866  13.9300  13.9680  14.0479  14.0480  14.0480
    14.1300  14.1903  14.1903  14.2884  14.3065  14.3065  14.3260  14.3261
    14.3508  14.4273  14.4274  14.4731  14.6089  14.6090  14.6609  14.6609
    14.6687  14.6687  14.7570  14.7570  14.8070  14.8071  14.8098  14.8099
    14.8227  14.8425  14.8425  14.9103  14.9103  14.9985  14.9986  15.0330
    15.0443  15.0443  15.2280  15.2280  15.4632  15.4632  15.4692  15.5257
    15.5389  15.5390  15.5444  15.5445  15.5909  15.5910  15.7130  15.7761
    15.7762  15.8600  15.8600  15.8898  15.8898  15.9452  16.0046  16.0047
    16.0051  16.0331  16.0332  16.1292  16.1292  16.1468  16.1468  16.2166
    16.2574  16.2683  16.3230  16.3231  16.3257  16.3449  16.3778  16.4093
[...]
    23.0874  23.0876  23.0877  23.0877  24.2299  24.2303  24.2306  24.2309
    26.6254  26.6255  26.6256  26.6257  26.6258  26.6259  26.6260  26.6262
    27.1079  27.1081  27.1082  27.1083  28.7776  28.7777  28.7778  28.7779
    29.3355  29.3355  29.3357  29.3358  29.3361  29.3362  29.3363  29.3364
    30.9778  30.9784

          k = 0.3870 0.3870 0.3870 ( 33542 PWs)   bands (ev):

   -65.1976 -65.1916 -65.1915 -65.1915 -65.1864 -65.1863 -65.1863 -65.1821
   -65.1635 -65.1635 -65.1633 -65.1631 -65.1626 -65.1625 -65.1624 -65.1624
   -65.1622 -65.1621 -65.1621 -65.1616 -65.1583 -65.1582 -65.1581 -65.1580
   -65.1575 -65.1574 -65.1572 -65.1572 -65.1570 -65.1570 -65.1569 -65.1564
   -31.0428 -31.0427 -31.0427 -31.0305 -31.0305 -31.0305 -31.0276 -31.0275
   -31.0275 -31.0247 -31.0247 -31.0246 -31.0246 -31.0246 -31.0246 -31.0239
   -31.0239 -31.0238 -31.0238 -31.0238 -31.0237 -31.0137 -31.0137 -31.0136
   -30.9726 -30.9330 -30.9330 -30.9330 -30.8993 -30.8993 -30.8993 -30.8993
   -30.8993 -30.8993 -30.8962 -30.8962 -30.8962 -30.8928 -30.8928 -30.8928
   -30.8883 -30.8883 -30.8883 -30.8619 -30.8619 -30.8619 -30.8619 -30.8618
   -30.8618 -30.8557 -30.8557 -30.8557 -30.8514 -30.8514 -30.8514 -30.8510
   -30.8396 -30.8396 -30.8396 -30.8330 -30.8330 -30.8330 -30.8330 -30.8330
   -30.8329 -30.8262 -30.8262 -30.8262 -30.8211 -30.8211 -30.8210 -30.8190
   -30.8189 -30.8189 -30.8189 -30.8189 -30.8189 -30.8115 -30.8115 -30.8115
   -30.7738 -30.7738 -30.7738 -30.7679 -30.7678 -30.7635 -30.7635 -30.7635
   -30.7584 -30.7584 -30.7584 -30.7565 -30.7565 -30.7565 -30.7501 -30.7501
    13.1602  13.5854  13.5855  13.5855  13.8428  13.8429  13.8429  13.8880
    14.3301  14.3301  14.3301  14.4531  14.4532  14.4532  14.4695  14.4695
    14.4695  14.5358  14.5358  14.5358  14.5359  14.5359  14.5360  14.5611
    14.5611  14.5611  14.5612  14.5612  14.5612  14.5954  14.5955  14.5955
    14.7813  14.7813  14.7813  15.0553  15.0554  15.0554  15.1203  15.1203
    15.1203  15.1204  15.1204  15.1205  15.3829  15.3830  15.3830  15.3960
    15.3961  15.3961  15.3961  15.3961  15.3962  15.6044  15.6044  15.6044
    15.9111  15.9113  15.9113  15.9486  16.1369  16.1370  16.1370  16.3686
    16.3686  16.3889  16.3889  16.3889  16.3890  16.3890  16.3890  16.4467
    16.4467  16.4564  16.4565  16.4565  16.4790  16.4790  16.4790  16.4795
    16.4796  16.4796  16.5202  16.5202  16.5202  16.5484  16.5485  16.5485
    16.6174  16.6174  16.6174  16.6193  16.6193  16.6193  16.6194  16.6194
    16.6194  16.7197  16.7199  16.7199  16.7706  16.8900  16.8900  16.8900
    17.1425  17.1425  17.1425  17.2347  17.2348  17.2349  17.2357  17.2357
    17.2357  17.2358  17.2359  17.2359  17.4359  17.4359  17.4361  17.5727
    17.5727  17.5727  17.5728  17.5728  17.5728  17.6281  17.6282  17.6282
    17.6537  17.6537  17.6923  17.6923  17.6924  17.8067  17.8067  17.8067
    17.9427  17.9428  17.9429  18.0955  18.0955  18.2229  18.2230  18.2230
    18.7540  18.7540  18.7540  18.7926  18.7926  18.7926  18.7927  18.7927
    18.7927  18.8273  18.8273  18.8273  18.8273  18.8273  18.8274  18.8569
    18.8569  18.8569  18.8639  18.8639  18.8639  18.9209  18.9209  18.9209
    20.9421  20.9422  20.9422  21.6898  21.6898  21.6898  21.6899  21.6899
    21.6900  22.0830  22.0830  22.0830  22.5686  22.5686  22.5686  23.4234
    23.4235  23.4235  23.4235  23.4235  23.4236  23.8893  23.8894  23.8894
    26.2578  26.2578  26.2578  26.9740  26.9740  26.9740  27.5022  27.5022
    27.5022  27.5024  27.5024  27.5024  28.3414  28.3414  28.3414  28.3415
    28.3415  28.3416  28.8326  28.8326  28.8326  29.7326  29.7326  29.7326
    30.9667  31.8238

          k = 0.3870 0.3870-0.4975 ( 33548 PWs)   bands (ev):

   -65.1952 -65.1944 -65.1896 -65.1895 -65.1888 -65.1887 -65.1848 -65.1840
   -65.1633 -65.1633 -65.1630 -65.1626 -65.1625 -65.1625 -65.1621 -65.1616
   -65.1605 -65.1604 -65.1599 -65.1599 -65.1598 -65.1596 -65.1591 -65.1591
   -65.1581 -65.1580 -65.1578 -65.1574 -65.1573 -65.1572 -65.1570 -65.1565
   -31.0385 -31.0385 -31.0347 -31.0343 -31.0339 -31.0335 -31.0275 -31.0275
   -31.0270 -31.0270 -31.0263 -31.0260 -31.0260 -31.0259 -31.0257 -31.0257
   -31.0255 -31.0251 -31.0220 -31.0215 -31.0195 -31.0195 -31.0190 -31.0189
   -30.9531 -30.9527 -30.9128 -30.9128 -30.9126 -30.9126 -30.8985 -30.8985
   -30.8983 -30.8983 -30.8945 -30.8943 -30.8941 -30.8939 -30.8807 -30.8807
   -30.8804 -30.8804 -30.8735 -30.8734 -30.8732 -30.8727 -30.8714 -30.8713
   -30.8584 -30.8584 -30.8579 -30.8579 -30.8561 -30.8560 -30.8560 -30.8559
   -30.8362 -30.8362 -30.8358 -30.8356 -30.8339 -30.8331 -30.8271 -30.8270
   -30.8267 -30.8267 -30.8266 -30.8266 -30.8263 -30.8263 -30.8227 -30.8227
   -30.8225 -30.8225 -30.8172 -30.8164 -30.8157 -30.8156 -30.8154 -30.8154
   -30.7693 -30.7690 -30.7673 -30.7673 -30.7668 -30.7668 -30.7631 -30.7623
   -30.7570 -30.7569 -30.7569 -30.7569 -30.7566 -30.7558 -30.7518 -30.7517
    13.3577  13.3585  13.7062  13.7063  13.7069  13.7070  13.8573  13.8577
    14.3956  14.3963  14.4177  14.4178  14.4178  14.4178  14.4965  14.4965
    14.4965  14.4966  14.5068  14.5070  14.5073  14.5075  14.5449  14.5454
    14.5555  14.5556  14.5556  14.5557  14.5593  14.5594  14.5600  14.5600
    14.9035  14.9043  14.9512  14.9512  14.9514  14.9515  15.2342  15.2342
    15.2345  15.2345  15.2403  15.2405  15.2411  15.2412  15.2608  15.2608
    15.2611  15.2612  15.4779  15.4786  15.5173  15.5175  15.5179  15.5181
    15.9460  15.9462  16.0358  16.0359  16.0360  16.0361  16.3706  16.3707
    16.4101  16.4102  16.4606  16.4607  16.4607  16.4608  16.4668  16.4670
    16.4736  16.4741  16.4909  16.4910  16.4911  16.4912  16.4919  16.4919
    16.4923  16.4923  16.4961  16.4966  16.4998  16.4999  16.5003  16.5004
    16.5455  16.5456  16.5456  16.5456  16.5739  16.5741  16.5879  16.5879
    16.5882  16.5883  16.8872  16.8872  16.8873  16.8874  16.9369  16.9376
    17.0398  17.0399  17.0402  17.0402  17.0578  17.0581  17.3183  17.3185
    17.3189  17.3190  17.3855  17.3856  17.3859  17.3860  17.4077  17.4077
    17.4079  17.4079  17.6082  17.6088  17.6226  17.6229  17.6778  17.6779
    17.6783  17.6784  17.6789  17.6793  17.6797  17.6800  17.7905  17.7910
    17.8953  17.8955  18.0331  18.0332  18.0335  18.0336  18.1389  18.1396
    18.8051  18.8051  18.8052  18.8053  18.8223  18.8226  18.8267  18.8267
    18.8269  18.8270  18.8512  18.8512  18.8516  18.8516  18.8534  18.8536
    18.8536  18.8539  18.8843  18.8846  18.8848  18.8851  18.9080  18.9081
    21.2944  21.2945  21.2949  21.2950  21.7399  21.7404  21.8744  21.8746
    21.8751  21.8753  22.5356  22.5357  22.5360  22.5361  22.9783  22.9785
    22.9823  22.9825  22.9830  22.9832  23.6804  23.6804  23.6810  23.6811
    26.5734  26.5741  26.8004  26.8004  26.8005  26.8005  27.6083  27.6085
    27.6090  27.6091  27.8898  27.8900  27.8906  27.8908  28.1372  28.1373
    28.1377  28.1378  29.0086  29.0086  29.0087  29.0087  29.2503  29.2511
    31.6659  31.6661

          k = 0.3870-0.4975-0.4975 ( 33520 PWs)   bands (ev):

   -65.1927 -65.1925 -65.1920 -65.1917 -65.1875 -65.1872 -65.1867 -65.1865
   -65.1632 -65.1629 -65.1624 -65.1622 -65.1605 -65.1605 -65.1602 -65.1602
   -65.1601 -65.1601 -65.1599 -65.1599 -65.1598 -65.1597 -65.1595 -65.1594
   -65.1594 -65.1593 -65.1591 -65.1591 -65.1579 -65.1576 -65.1571 -65.1568
   -31.0327 -31.0327 -31.0326 -31.0325 -31.0324 -31.0323 -31.0322 -31.0322
   -31.0272 -31.0270 -31.0268 -31.0267 -31.0266 -31.0265 -31.0262 -31.0260
   -31.0241 -31.0241 -31.0240 -31.0239 -31.0237 -31.0236 -31.0235 -31.0234
   -30.9329 -30.9328 -30.9326 -30.9325 -30.8971 -30.8970 -30.8968 -30.8968
   -30.8919 -30.8918 -30.8917 -30.8916 -30.8771 -30.8771 -30.8771 -30.8771
   -30.8770 -30.8769 -30.8769 -30.8769 -30.8769 -30.8769 -30.8767 -30.8767
   -30.8765 -30.8765 -30.8764 -30.8763 -30.8566 -30.8565 -30.8563 -30.8562
   -30.8310 -30.8309 -30.8309 -30.8309 -30.8303 -30.8302 -30.8300 -30.8299
   -30.8298 -30.8296 -30.8295 -30.8295 -30.8220 -30.8220 -30.8218 -30.8217
   -30.8216 -30.8214 -30.8213 -30.8212 -30.8193 -30.8193 -30.8193 -30.8193
   -30.7652 -30.7652 -30.7652 -30.7651 -30.7611 -30.7609 -30.7606 -30.7605
   -30.7605 -30.7604 -30.7600 -30.7598 -30.7536 -30.7536 -30.7536 -30.7536
    13.5209  13.5213  13.5216  13.5221  13.7749  13.7753  13.7755  13.7759
    14.4642  14.4642  14.4643  14.4643  14.4647  14.4647  14.4649  14.4649
    14.4732  14.4732  14.4732  14.4733  14.4927  14.4928  14.4929  14.4930
    14.5439  14.5439  14.5440  14.5442  14.5443  14.5445  14.5445  14.5446
    15.0762  15.0763  15.0763  15.0765  15.0768  15.0770  15.0770  15.0771
    15.1121  15.1122  15.1123  15.1124  15.3726  15.3726  15.3729  15.3730
    15.3731  15.3733  15.3736  15.3736  15.3934  15.3936  15.3938  15.3941
    16.0064  16.0066  16.0066  16.0066  16.2478  16.2479  16.2480  16.2481
    16.4338  16.4338  16.4340  16.4341  16.4445  16.4445  16.4448  16.4448
    16.4669  16.4671  16.4672  16.4674  16.4698  16.4699  16.4700  16.4702
    16.5104  16.5105  16.5105  16.5106  16.5325  16.5326  16.5326  16.5327
    16.5328  16.5329  16.5329  16.5331  16.7177  16.7178  16.7179  16.7180
    16.7181  16.7181  16.7183  16.7184  16.7487  16.7489  16.7490  16.7491
    17.1512  17.1513  17.1516  17.1517  17.2104  17.2104  17.2105  17.2106
    17.2107  17.2108  17.2109  17.2109  17.5003  17.5004  17.5005  17.5007
    17.5007  17.5009  17.5010  17.5010  17.5114  17.5115  17.5119  17.5120
    17.6471  17.6472  17.6477  17.6478  17.8399  17.8399  17.8402  17.8403
    17.8694  17.8696  17.8699  17.8700  18.0045  18.0046  18.0050  18.0051
    18.8465  18.8465  18.8466  18.8466  18.8467  18.8467  18.8468  18.8468
    18.8585  18.8586  18.8587  18.8589  18.8809  18.8810  18.8812  18.8813
    18.8845  18.8845  18.8845  18.8847  18.8847  18.8849  18.8849  18.8849
    21.5630  21.5633  21.5636  21.5639  22.1211  22.1211  22.1212  22.1214
    22.1215  22.1217  22.1218  22.1218  22.7592  22.7592  22.7592  22.7595
    22.7595  22.7598  22.7598  22.7599  23.3264  23.3267  23.3271  23.3274
    27.1718  27.1719  27.1720  27.1721  27.1723  27.1724  27.1725  27.1726
    27.4228  27.4230  27.4231  27.4232  28.2719  28.2720  28.2721  28.2722
    28.5404  28.5405  28.5407  28.5408  28.5410  28.5411  28.5413  28.5413
    32.0457  32.0465

          k =-0.4975-0.4975-0.4975 ( 33552 PWs)   bands (ev):

   -65.1905 -65.1902 -65.1902 -65.1900 -65.1897 -65.1894 -65.1894 -65.1892
   -65.1608 -65.1606 -65.1606 -65.1604 -65.1603 -65.1603 -65.1601 -65.1601
   -65.1600 -65.1600 -65.1599 -65.1599 -65.1598 -65.1597 -65.1596 -65.1595
   -65.1595 -65.1594 -65.1593 -65.1592 -65.1592 -65.1590 -65.1589 -65.1588
   -31.0290 -31.0289 -31.0289 -31.0288 -31.0287 -31.0286 -31.0285 -31.0284
   -31.0284 -31.0284 -31.0284 -31.0284 -31.0282 -31.0282 -31.0282 -31.0282
   -31.0281 -31.0281 -31.0280 -31.0279 -31.0277 -31.0277 -31.0277 -31.0276
   -30.9122 -30.9122 -30.9122 -30.9121 -30.9120 -30.9119 -30.9119 -30.9118
   -30.8772 -30.8772 -30.8771 -30.8771 -30.8771 -30.8770 -30.8770 -30.8770
   -30.8770 -30.8769 -30.8769 -30.8769 -30.8768 -30.8768 -30.8768 -30.8768
   -30.8768 -30.8767 -30.8767 -30.8767 -30.8767 -30.8766 -30.8766 -30.8765
   -30.8261 -30.8260 -30.8260 -30.8260 -30.8259 -30.8259 -30.8258 -30.8258
   -30.8258 -30.8258 -30.8257 -30.8256 -30.8256 -30.8255 -30.8254 -30.8254
   -30.8254 -30.8254 -30.8253 -30.8253 -30.8252 -30.8252 -30.8252 -30.8252
   -30.7593 -30.7593 -30.7592 -30.7592 -30.7591 -30.7590 -30.7590 -30.7589
   -30.7588 -30.7587 -30.7587 -30.7586 -30.7585 -30.7584 -30.7584 -30.7584
    13.6398  13.6403  13.6403  13.6405  13.6406  13.6410  13.6410  13.6413
    14.4929  14.4929  14.4930  14.4930  14.4930  14.4931  14.4931  14.4931
    14.4932  14.4932  14.4933  14.4933  14.4933  14.4935  14.4935  14.4935
    14.4936  14.4936  14.4937  14.4937  14.4937  14.4937  14.4937  14.4938
    15.2355  15.2356  15.2358  15.2358  15.2359  15.2359  15.2359  15.2360
    15.2360  15.2361  15.2362  15.2362  15.2362  15.2363  15.2363  15.2364
    15.2364  15.2366  15.2366  15.2367  15.2367  15.2367  15.2367  15.2368
    16.1444  16.1447  16.1447  16.1447  16.1447  16.1448  16.1448  16.1448
    16.4455  16.4456  16.4456  16.4456  16.4456  16.4457  16.4457  16.4458
    16.4459  16.4459  16.4460  16.4460  16.4460  16.4461  16.4461  16.4462
    16.6276  16.6277  16.6277  16.6278  16.6278  16.6278  16.6278  16.6279
    16.6279  16.6279  16.6279  16.6280  16.6280  16.6280  16.6281  16.6281
    16.6281  16.6282  16.6282  16.6282  16.6282  16.6283  16.6283  16.6285
    17.3292  17.3293  17.3294  17.3294  17.3295  17.3295  17.3296  17.3296
    17.3296  17.3296  17.3297  17.3298  17.3298  17.3298  17.3299  17.3299
    17.3300  17.3300  17.3300  17.3301  17.3301  17.3301  17.3302  17.3304
    17.8222  17.8223  17.8223  17.8224  17.8224  17.8225  17.8225  17.8226
    17.8227  17.8227  17.8228  17.8228  17.8229  17.8230  17.8231  17.8231
    18.8865  18.8866  18.8866  18.8866  18.8867  18.8867  18.8868  18.8868
    18.8868  18.8869  18.8869  18.8869  18.8869  18.8870  18.8870  18.8870
    18.8870  18.8871  18.8871  18.8872  18.8872  18.8873  18.8873  18.8873
    22.4270  22.4271  22.4272  22.4272  22.4273  22.4273  22.4275  22.4275
    22.4275  22.4275  22.4276  22.4276  22.4277  22.4277  22.4278  22.4278
    22.4279  22.4279  22.4279  22.4281  22.4281  22.4282  22.4282  22.4282
    27.8151  27.8152  27.8152  27.8153  27.8153  27.8153  27.8154  27.8154
    27.8154  27.8155  27.8155  27.8157  27.8159  27.8159  27.8159  27.8160
    27.8160  27.8160  27.8161  27.8161  27.8162  27.8162  27.8163  27.8163
    33.0169  33.0187

     the Fermi energy is    18.9115 ev

!    total energy              =  -16384.95919646 Ry
     Harris-Foulkes estimate   =  -16384.95918569 Ry
     estimated scf accuracy    <       0.00000053 Ry

     total all-electron energy =   -322945.812904 Ry

     The total energy is the sum of the following terms:

     one-electron contribution =   -2534.26613086 Ry
     hartree contribution      =    1677.68697988 Ry
     xc contribution           =    -986.18303061 Ry
     ewald contribution        =   -6374.82510521 Ry
     one-center paw contrib.   =   -8167.40986787 Ry
     smearing contrib. (-TS)   =       0.03795821 Ry

     convergence has been achieved in  11 iterations

     Forces acting on atoms (cartesian axes, Ry/au):

     atom    1 type  1   force =     0.00000000    0.00000000    0.00000000
     atom    2 type  1   force =     0.00006048    0.00006048    0.00000000
     atom    3 type  1   force =     0.00006048   -0.00000000    0.00006048
     atom    4 type  1   force =     0.00000000    0.00006048    0.00006048
     atom    5 type  1   force =     0.00000000    0.00000000    0.00000000
     atom    6 type  1   force =     0.00015819    0.00015819    0.00000000
     atom    7 type  1   force =     0.00006048    0.00000000   -0.00006048
     atom    8 type  1   force =     0.00000000    0.00006048   -0.00006048
     atom    9 type  1   force =     0.00000000    0.00000000    0.00000000
     atom   10 type  1   force =     0.00006048   -0.00006048   -0.00000000
     atom   11 type  1   force =     0.00015819    0.00000000    0.00015819
     atom   12 type  1   force =     0.00000000   -0.00006048    0.00006048
     atom   13 type  1   force =     0.00000000    0.00000000    0.00000000
     atom   14 type  1   force =     0.00015819   -0.00015819    0.00000000
     atom   15 type  1   force =     0.00015819    0.00000000   -0.00015819
     atom   16 type  1   force =    -0.00000000   -0.00006048   -0.00006048
     atom   17 type  1   force =     0.00000000    0.00000000    0.00000000
     atom   18 type  1   force =    -0.00006048    0.00006048    0.00000000
     atom   19 type  1   force =    -0.00006048    0.00000000    0.00006048
     atom   20 type  1   force =     0.00000000    0.00015819    0.00015819
     atom   21 type  1   force =     0.00000000   -0.00000000    0.00000000
     atom   22 type  1   force =    -0.00015819    0.00015819    0.00000000
     atom   23 type  1   force =    -0.00006048   -0.00000000   -0.00006048
     atom   24 type  1   force =    -0.00000000    0.00015819   -0.00015819
     atom   25 type  1   force =     0.00000000    0.00000000    0.00000000
     atom   26 type  1   force =    -0.00006048   -0.00006048    0.00000000
     atom   27 type  1   force =    -0.00015819    0.00000000    0.00015819
     atom   28 type  1   force =    -0.00000000   -0.00015819    0.00015819
     atom   29 type  1   force =     0.00000000    0.00000000    0.00000000
     atom   30 type  1   force =    -0.00015819   -0.00015819    0.00000000
     atom   31 type  1   force =    -0.00015819   -0.00000000   -0.00015819
     atom   32 type  1   force =    -0.00000000   -0.00015819   -0.00015819

     Total force =     0.000830     Total SCF correction =     0.004201
     SCF correction compared to forces is large: reduce conv_thr to get better values


     Computing stress (Cartesian axis) and pressure

          total   stress  (Ry/bohr**3)                   (kbar)     P=  -24.73
  -0.00016810   0.00000000   0.00000000        -24.73      0.00      0.00
   0.00000000  -0.00016810   0.00000000          0.00    -24.73      0.00
   0.00000000   0.00000000  -0.00016810          0.00      0.00    -24.73


     Writing output data file kpvUwOtIFWotxWGk.save/
 
     init_run     :     23.47s CPU     25.17s WALL (       1 calls)
     electrons    :   1073.30s CPU   1125.28s WALL (       1 calls)
     forces       :      8.67s CPU      8.99s WALL (       1 calls)
     stress       :     85.04s CPU     85.37s WALL (       1 calls)

     Called by init_run:
     wfcinit      :     22.79s CPU     24.43s WALL (       1 calls)
     potinit      :      0.30s CPU      0.32s WALL (       1 calls)
     hinit0       :      0.19s CPU      0.21s WALL (       1 calls)

     Called by electrons:
     c_bands      :    961.59s CPU   1003.94s WALL (      12 calls)
     sum_band     :    107.64s CPU    116.92s WALL (      12 calls)
     v_of_rho     :      0.34s CPU      0.37s WALL (      12 calls)
     newd         :      0.86s CPU      1.09s WALL (      12 calls)
     PAW_pot      :      3.05s CPU      3.09s WALL (      12 calls)
     mix_rho      :      0.09s CPU      0.10s WALL (      12 calls)

     Called by c_bands:
     init_us_2    :      4.69s CPU      4.72s WALL (     945 calls)
     cegterg      :    934.19s CPU    976.42s WALL (     420 calls)

     Called by sum_band:
     sum_band:bec :      0.60s CPU      0.60s WALL (     420 calls)
     addusdens    :      0.87s CPU      1.16s WALL (      12 calls)

     Called by *egterg:
     h_psi        :    446.17s CPU    484.82s WALL (    1281 calls)
     s_psi        :     39.86s CPU     39.96s WALL (    1281 calls)
     g_psi        :      1.06s CPU      1.06s WALL (     826 calls)
     cdiaghg      :    321.66s CPU    322.51s WALL (    1211 calls)

     Called by h_psi:
     h_psi:pot    :    443.25s CPU    481.76s WALL (    1281 calls)
     h_psi:calbec :     42.26s CPU     44.16s WALL (    1281 calls)
     vloc_psi     :    361.25s CPU    397.70s WALL (    1281 calls)
     add_vuspsi   :     39.74s CPU     39.89s WALL (    1281 calls)

     General routines
     calbec       :     77.12s CPU     80.25s WALL (    1876 calls)
     fft          :      0.32s CPU      0.36s WALL (     181 calls)
     ffts         :      0.03s CPU      0.04s WALL (      24 calls)
     fftw         :    419.54s CPU    461.99s WALL (  805864 calls)
     interpolate  :      0.04s CPU      0.05s WALL (      12 calls)
 
     Parallel routines
     fft_scatt_xy :     32.61s CPU     35.73s WALL (  806069 calls)
     fft_scatt_yz :    201.40s CPU    223.94s WALL (  806069 calls)
 
     PWSCF        : 19m54.07s CPU    21m28.16s WALL

 
   This run was terminated on:   9:59:13  11Nov2020            

=------------------------------------------------------------------------------=
   JOB DONE.
=------------------------------------------------------------------------------=
