--------------------------------------------------------------------------
WARNING: No preset parameters were found for the device that Open MPI
detected:

  Local host:            bear-pg0206u37b
  Device name:           mlx5_0
  Device vendor ID:      0x02c9
  Device vendor part ID: 4123

Default device parameters will be used, which may result in lower
performance.  You can edit any of the files specified by the
btl_openib_device_param_files MCA parameter to set values for your
device.

NOTE: You can turn off this warning by setting the MCA parameter
      btl_openib_warn_no_device_params_found to 0.
--------------------------------------------------------------------------
--------------------------------------------------------------------------
WARNING: There was an error initializing an OpenFabrics device.

  Local host:   bear-pg0206u37b
  Local device: mlx5_0
--------------------------------------------------------------------------

     Program PWSCF v.6.3 starts on  2Nov2020 at  3:28:10 

     This program is part of the open-source Quantum ESPRESSO suite
     for quantum simulation of materials; please cite
         "P. Giannozzi et al., J. Phys.:Condens. Matter 21 395502 (2009);
         "P. Giannozzi et al., J. Phys.:Condens. Matter 29 465901 (2017);
          URL http://www.quantum-espresso.org", 
     in publications or presentations arising from this work. More details at
     http://www.quantum-espresso.org/quote

     Parallel version (MPI & OpenMP), running on      40 processor cores
     Number of MPI processes:                40
     Threads/MPI process:                     1

     MPI processes distributed on     1 nodes
     R & G space division:  proc/nbgrp/npool/nimage =      40
     Reading input from wd/ec/ec_1_004.in
Warning: card &IONS ignored
Warning: card ION_DYNAMICS = 'BFGS', ignored
Warning: card / ignored
Warning: card &CELL ignored
Warning: card CELL_DYNAMICS = 'BFGS', ignored
Warning: card CELL_FACTOR = 2.0, ignored
Warning: card PRESS = 0.0, ignored
Warning: card / ignored

     Current dimensions of program PWSCF are:
     Max number of different atomic species (ntypx) = 10
     Max number of k-points (npk) =  40000
     Max angular momentum in pseudopotentials (lmaxx) =  3
               file Fe.pbe-spn-kjpaw_psl.1.0.0.UPF: wavefunction(s)  3P 3D renormalized
               file Fe.pbe-spn-kjpaw_psl.1.0.0.UPF: wavefunction(s)  3P 3D renormalized

     Subspace diagonalization in iterative solution of the eigenvalue problem:
     a serial algorithm will be used

     Found symmetry operation: I + (  0.0000  0.0000 -0.5000)
     This is a supercell, fractional translations are disabled
 
     Parallelization info
     --------------------
     sticks:   dense  smooth     PW     G-vecs:    dense   smooth      PW
     Min          96      63     17                 4482     2405     357
     Max          97      64     18                 4485     2408     362
     Sum        3847    2553    717               179343    96281   14363
 


     bravais-lattice index     =            0
     lattice parameter (alat)  =      10.5935  a.u.
     unit-cell volume          =    1191.2106 (a.u.)^3
     number of atoms/cell      =           16
     number of atomic types    =            2
     number of electrons       =       256.00
     number of Kohn-Sham states=          154
     kinetic-energy cutoff     =      71.0000  Ry
     charge density cutoff     =     430.0000  Ry
     convergence threshold     =      1.0E-06
     mixing beta               =       0.1000
     number of iterations used =           10  plain     mixing
     Exchange-correlation      = SLA PW PBX PBC ( 1  4  3  4 0 0)

     celldm(1)=  10.593520  celldm(2)=   0.000000  celldm(3)=   0.000000
     celldm(4)=   0.000000  celldm(5)=   0.000000  celldm(6)=   0.000000

     crystal axes: (cart. coord. in units of alat)
               a(1) = (   1.002000   0.000000   0.000000 )  
               a(2) = (   0.000000   1.000000   0.000000 )  
               a(3) = (   0.000000   0.000000   1.000000 )  

     reciprocal axes: (cart. coord. in units 2 pi/alat)
               b(1) = (  0.998004  0.000000  0.000000 )  
               b(2) = (  0.000000  1.000000  0.000000 )  
               b(3) = (  0.000000  0.000000  1.000000 )  


     PseudoPot. # 1 for Fe read from file:
     /rds/homes/b/bxp912/pp/Fe.pbe-spn-kjpaw_psl.1.0.0.UPF
     MD5 check sum: 42f43b795421b414b0dc916aa790dbcb
     Pseudo is Projector augmented-wave + core cor, Zval = 16.0
     Generated using "atomic" code by A. Dal Corso v.6.3
     Shape of augmentation charge: PSQ
     Using radial grid of 1191 points,  6 beta functions with: 
                l(1) =   0
                l(2) =   0
                l(3) =   1
                l(4) =   1
                l(5) =   2
                l(6) =   2
     Q(r) pseudized with 0 coefficients 


     PseudoPot. # 2 for Fe read from file:
     /rds/homes/b/bxp912/pp/Fe.pbe-spn-kjpaw_psl.1.0.0.UPF
     MD5 check sum: 42f43b795421b414b0dc916aa790dbcb
     Pseudo is Projector augmented-wave + core cor, Zval = 16.0
     Generated using "atomic" code by A. Dal Corso v.6.3
     Shape of augmentation charge: PSQ
     Using radial grid of 1191 points,  6 beta functions with: 
                l(1) =   0
                l(2) =   0
                l(3) =   1
                l(4) =   1
                l(5) =   2
                l(6) =   2
     Q(r) pseudized with 0 coefficients 


     atomic species   valence    mass     pseudopotential
        Fe1           16.00    55.84500     Fe( 1.00)
        Fe2           16.00    55.84500     Fe( 1.00)

     Starting magnetic structure 
     atomic species   magnetization
        Fe1          0.100
        Fe2          0.100

     16 Sym. Ops., with inversion, found



   Cartesian axes

     site n.     atom                  positions (alat units)
         1           Fe1 tau(   1) = (   0.0000000   0.0000000   0.0000000  )
         2           Fe2 tau(   2) = (   0.2505004   0.2500004   0.2500004  )
         3           Fe1 tau(   3) = (   0.0000000   0.0000000   0.5000000  )
         4           Fe2 tau(   4) = (   0.2505004   0.2500004   0.7499996  )
         5           Fe1 tau(   5) = (   0.0000000   0.5000000   0.0000000  )
         6           Fe2 tau(   6) = (   0.2505004   0.7499996   0.2500004  )
         7           Fe1 tau(   7) = (   0.0000000   0.5000000   0.5000000  )
         8           Fe2 tau(   8) = (   0.2505004   0.7499996   0.7499996  )
         9           Fe1 tau(   9) = (   0.5010000   0.0000000   0.0000000  )
        10           Fe2 tau(  10) = (   0.7514996   0.2500004   0.2500004  )
        11           Fe1 tau(  11) = (   0.5010000   0.0000000   0.5000000  )
        12           Fe2 tau(  12) = (   0.7514996   0.2500004   0.7499996  )
        13           Fe1 tau(  13) = (   0.5010000   0.5000000   0.0000000  )
        14           Fe2 tau(  14) = (   0.7514996   0.7499996   0.2500004  )
        15           Fe1 tau(  15) = (   0.5010000   0.5000000   0.5000000  )
        16           Fe2 tau(  16) = (   0.7514996   0.7499996   0.7499996  )

     number of k points=    75  Marzari-Vanderbilt smearing, width (Ry)=  0.0400
                       cart. coord. in units 2pi/alat
        k(    1) = (   0.0554447   0.0555556   0.0555556), wk =   0.0109739
        k(    2) = (   0.0554447   0.0555556   0.1666667), wk =   0.0219479
        k(    3) = (   0.0554447   0.0555556   0.2777778), wk =   0.0219479
        k(    4) = (   0.0554447   0.0555556   0.3888889), wk =   0.0219479
        k(    5) = (   0.0554447   0.0555556  -0.5000000), wk =   0.0109739
        k(    6) = (   0.0554447   0.1666667   0.1666667), wk =   0.0109739
        k(    7) = (   0.0554447   0.1666667   0.2777778), wk =   0.0219479
        k(    8) = (   0.0554447   0.1666667   0.3888889), wk =   0.0219479
        k(    9) = (   0.0554447   0.1666667  -0.5000000), wk =   0.0109739
        k(   10) = (   0.0554447   0.2777778   0.2777778), wk =   0.0109739
        k(   11) = (   0.0554447   0.2777778   0.3888889), wk =   0.0219479
        k(   12) = (   0.0554447   0.2777778  -0.5000000), wk =   0.0109739
        k(   13) = (   0.0554447   0.3888889   0.3888889), wk =   0.0109739
        k(   14) = (   0.0554447   0.3888889  -0.5000000), wk =   0.0109739
        k(   15) = (   0.0554447  -0.5000000  -0.5000000), wk =   0.0027435
        k(   16) = (   0.1663340   0.0555556   0.0555556), wk =   0.0109739
        k(   17) = (   0.1663340   0.0555556   0.1666667), wk =   0.0219479
        k(   18) = (   0.1663340   0.0555556   0.2777778), wk =   0.0219479
        k(   19) = (   0.1663340   0.0555556   0.3888889), wk =   0.0219479
        k(   20) = (   0.1663340   0.0555556  -0.5000000), wk =   0.0109739
        k(   21) = (   0.1663340   0.1666667   0.1666667), wk =   0.0109739
        k(   22) = (   0.1663340   0.1666667   0.2777778), wk =   0.0219479
        k(   23) = (   0.1663340   0.1666667   0.3888889), wk =   0.0219479
        k(   24) = (   0.1663340   0.1666667  -0.5000000), wk =   0.0109739
        k(   25) = (   0.1663340   0.2777778   0.2777778), wk =   0.0109739
        k(   26) = (   0.1663340   0.2777778   0.3888889), wk =   0.0219479
        k(   27) = (   0.1663340   0.2777778  -0.5000000), wk =   0.0109739
        k(   28) = (   0.1663340   0.3888889   0.3888889), wk =   0.0109739
        k(   29) = (   0.1663340   0.3888889  -0.5000000), wk =   0.0109739
        k(   30) = (   0.1663340  -0.5000000  -0.5000000), wk =   0.0027435
        k(   31) = (   0.2772233   0.0555556   0.0555556), wk =   0.0109739
        k(   32) = (   0.2772233   0.0555556   0.1666667), wk =   0.0219479
        k(   33) = (   0.2772233   0.0555556   0.2777778), wk =   0.0219479
        k(   34) = (   0.2772233   0.0555556   0.3888889), wk =   0.0219479
        k(   35) = (   0.2772233   0.0555556  -0.5000000), wk =   0.0109739
        k(   36) = (   0.2772233   0.1666667   0.1666667), wk =   0.0109739
        k(   37) = (   0.2772233   0.1666667   0.2777778), wk =   0.0219479
        k(   38) = (   0.2772233   0.1666667   0.3888889), wk =   0.0219479
        k(   39) = (   0.2772233   0.1666667  -0.5000000), wk =   0.0109739
        k(   40) = (   0.2772233   0.2777778   0.2777778), wk =   0.0109739
        k(   41) = (   0.2772233   0.2777778   0.3888889), wk =   0.0219479
        k(   42) = (   0.2772233   0.2777778  -0.5000000), wk =   0.0109739
        k(   43) = (   0.2772233   0.3888889   0.3888889), wk =   0.0109739
        k(   44) = (   0.2772233   0.3888889  -0.5000000), wk =   0.0109739
        k(   45) = (   0.2772233  -0.5000000  -0.5000000), wk =   0.0027435
        k(   46) = (   0.3881127   0.0555556   0.0555556), wk =   0.0109739
        k(   47) = (   0.3881127   0.0555556   0.1666667), wk =   0.0219479
        k(   48) = (   0.3881127   0.0555556   0.2777778), wk =   0.0219479
        k(   49) = (   0.3881127   0.0555556   0.3888889), wk =   0.0219479
        k(   50) = (   0.3881127   0.0555556  -0.5000000), wk =   0.0109739
        k(   51) = (   0.3881127   0.1666667   0.1666667), wk =   0.0109739
        k(   52) = (   0.3881127   0.1666667   0.2777778), wk =   0.0219479
        k(   53) = (   0.3881127   0.1666667   0.3888889), wk =   0.0219479
        k(   54) = (   0.3881127   0.1666667  -0.5000000), wk =   0.0109739
        k(   55) = (   0.3881127   0.2777778   0.2777778), wk =   0.0109739
        k(   56) = (   0.3881127   0.2777778   0.3888889), wk =   0.0219479
        k(   57) = (   0.3881127   0.2777778  -0.5000000), wk =   0.0109739
        k(   58) = (   0.3881127   0.3888889   0.3888889), wk =   0.0109739
        k(   59) = (   0.3881127   0.3888889  -0.5000000), wk =   0.0109739
        k(   60) = (   0.3881127  -0.5000000  -0.5000000), wk =   0.0027435
        k(   61) = (  -0.4990020   0.0555556   0.0555556), wk =   0.0054870
        k(   62) = (  -0.4990020   0.0555556   0.1666667), wk =   0.0109739
        k(   63) = (  -0.4990020   0.0555556   0.2777778), wk =   0.0109739
        k(   64) = (  -0.4990020   0.0555556   0.3888889), wk =   0.0109739
        k(   65) = (  -0.4990020   0.0555556  -0.5000000), wk =   0.0054870
        k(   66) = (  -0.4990020   0.1666667   0.1666667), wk =   0.0054870
        k(   67) = (  -0.4990020   0.1666667   0.2777778), wk =   0.0109739
        k(   68) = (  -0.4990020   0.1666667   0.3888889), wk =   0.0109739
        k(   69) = (  -0.4990020   0.1666667  -0.5000000), wk =   0.0054870
        k(   70) = (  -0.4990020   0.2777778   0.2777778), wk =   0.0054870
        k(   71) = (  -0.4990020   0.2777778   0.3888889), wk =   0.0109739
        k(   72) = (  -0.4990020   0.2777778  -0.5000000), wk =   0.0054870
        k(   73) = (  -0.4990020   0.3888889   0.3888889), wk =   0.0054870
        k(   74) = (  -0.4990020   0.3888889  -0.5000000), wk =   0.0054870
        k(   75) = (  -0.4990020  -0.5000000  -0.5000000), wk =   0.0013717

     Dense  grid:   179343 G-vectors     FFT dimensions: (  72,  72,  72)

     Smooth grid:    96281 G-vectors     FFT dimensions: (  60,  60,  60)

     Estimated max dynamical RAM per process >     144.89 MB

     Estimated total dynamical RAM >       5.66 GB
     Generating pointlists ...
     new r_m :   0.1787 (alat units)  1.8934 (a.u.) for type    1
     new r_m :   0.1787 (alat units)  1.8934 (a.u.) for type    2

     Check: negative/imaginary core charge=   -0.000006    0.000000

     Initial potential from superposition of free atoms

     starting charge  255.99300, renormalised to  256.00000
     Starting wfcs are  160 randomized atomic wfcs
     Checking if some PAW data can be deallocated... 

     total cpu time spent up to now is       15.0 secs

     Self-consistent Calculation

     iteration #  1     ecut=    71.00 Ry     beta= 0.10
     Davidson diagonalization with overlap
     ethr =  1.00E-02,  avg # of iterations =  3.4

     Threshold (ethr) on eigenvalues was too large:
     Diagonalizing with lowered threshold

     Davidson diagonalization with overlap
     ethr =  2.79E-04,  avg # of iterations =  3.4

     total cpu time spent up to now is      127.1 secs

     total energy              =   -5268.16582581 Ry
     Harris-Foulkes estimate   =   -5268.31043871 Ry
     estimated scf accuracy    <       0.81080262 Ry

     total magnetization       =    28.05 Bohr mag/cell
     absolute magnetization    =    28.40 Bohr mag/cell

     iteration #  2     ecut=    71.00 Ry     beta= 0.10
     Davidson diagonalization with overlap
     ethr =  3.17E-04,  avg # of iterations =  1.0

     total cpu time spent up to now is      160.6 secs

     total energy              =   -5268.05131079 Ry
     Harris-Foulkes estimate   =   -5268.18344792 Ry
     estimated scf accuracy    <       0.48203717 Ry

     total magnetization       =    28.69 Bohr mag/cell
     absolute magnetization    =    28.97 Bohr mag/cell

     iteration #  3     ecut=    71.00 Ry     beta= 0.10
     Davidson diagonalization with overlap
     ethr =  1.88E-04,  avg # of iterations =  2.6

     total cpu time spent up to now is      208.8 secs

     total energy              =   -5268.04237637 Ry
     Harris-Foulkes estimate   =   -5268.10411988 Ry
     estimated scf accuracy    <       0.55856310 Ry

     total magnetization       =    29.52 Bohr mag/cell
     absolute magnetization    =    29.85 Bohr mag/cell

     iteration #  4     ecut=    71.00 Ry     beta= 0.10
     Davidson diagonalization with overlap
     ethr =  1.88E-04,  avg # of iterations =  1.4

     total cpu time spent up to now is      245.0 secs

     total energy              =   -5268.06934470 Ry
     Harris-Foulkes estimate   =   -5268.07159362 Ry
     estimated scf accuracy    <       0.15803599 Ry

     total magnetization       =    30.25 Bohr mag/cell
     absolute magnetization    =    30.61 Bohr mag/cell

     iteration #  5     ecut=    71.00 Ry     beta= 0.10
     Davidson diagonalization with overlap
     ethr =  6.17E-05,  avg # of iterations =  1.4

     total cpu time spent up to now is      281.3 secs

     total energy              =   -5268.08965741 Ry
     Harris-Foulkes estimate   =   -5268.07288390 Ry
     estimated scf accuracy    <       0.11207298 Ry

     total magnetization       =    30.33 Bohr mag/cell
     absolute magnetization    =    30.72 Bohr mag/cell

     iteration #  6     ecut=    71.00 Ry     beta= 0.10
     Davidson diagonalization with overlap
     ethr =  4.38E-05,  avg # of iterations =  3.2

     total cpu time spent up to now is      343.1 secs

     total energy              =   -5268.14791817 Ry
     Harris-Foulkes estimate   =   -5268.13203670 Ry
     estimated scf accuracy    <       0.14753886 Ry

     total magnetization       =    30.97 Bohr mag/cell
     absolute magnetization    =    31.69 Bohr mag/cell

     iteration #  7     ecut=    71.00 Ry     beta= 0.10
     Davidson diagonalization with overlap
     ethr =  4.38E-05,  avg # of iterations =  2.0

     total cpu time spent up to now is      385.5 secs

     total energy              =   -5268.15270384 Ry
     Harris-Foulkes estimate   =   -5268.15494134 Ry
     estimated scf accuracy    <       0.10707588 Ry

     total magnetization       =    31.46 Bohr mag/cell
     absolute magnetization    =    32.36 Bohr mag/cell

     iteration #  8     ecut=    71.00 Ry     beta= 0.10
     Davidson diagonalization with overlap
     ethr =  4.18E-05,  avg # of iterations =  1.0

     negative rho (up, down):  0.000E+00 2.251E-03

     total cpu time spent up to now is      420.2 secs

     total energy              =   -5268.16796796 Ry
     Harris-Foulkes estimate   =   -5268.15380952 Ry
     estimated scf accuracy    <       0.08251401 Ry

     total magnetization       =    31.58 Bohr mag/cell
     absolute magnetization    =    32.54 Bohr mag/cell

     iteration #  9     ecut=    71.00 Ry     beta= 0.10
     Davidson diagonalization with overlap
     ethr =  3.22E-05,  avg # of iterations =  2.7

     negative rho (up, down):  0.000E+00 2.381E-03

     total cpu time spent up to now is      477.2 secs

     total energy              =   -5268.18955371 Ry
     Harris-Foulkes estimate   =   -5268.19321275 Ry
     estimated scf accuracy    <       0.02367594 Ry

     total magnetization       =    32.50 Bohr mag/cell
     absolute magnetization    =    33.99 Bohr mag/cell

     iteration # 10     ecut=    71.00 Ry     beta= 0.10
     Davidson diagonalization with overlap
     ethr =  9.25E-06,  avg # of iterations =  1.8

     negative rho (up, down):  0.000E+00 2.497E-03

     total cpu time spent up to now is      516.5 secs

     total energy              =   -5268.18923505 Ry
     Harris-Foulkes estimate   =   -5268.19027548 Ry
     estimated scf accuracy    <       0.00491114 Ry

     total magnetization       =    32.62 Bohr mag/cell
     absolute magnetization    =    34.18 Bohr mag/cell

     iteration # 11     ecut=    71.00 Ry     beta= 0.10
     Davidson diagonalization with overlap
     ethr =  1.92E-06,  avg # of iterations =  2.5

     negative rho (up, down):  0.000E+00 2.595E-03

     total cpu time spent up to now is      564.4 secs

     total energy              =   -5268.18934840 Ry
     Harris-Foulkes estimate   =   -5268.18951622 Ry
     estimated scf accuracy    <       0.00107097 Ry

     total magnetization       =    32.70 Bohr mag/cell
     absolute magnetization    =    34.34 Bohr mag/cell

     iteration # 12     ecut=    71.00 Ry     beta= 0.10
     Davidson diagonalization with overlap
     ethr =  4.18E-07,  avg # of iterations =  2.5

     negative rho (up, down):  0.000E+00 2.658E-03

     total cpu time spent up to now is      609.2 secs

     total energy              =   -5268.18944709 Ry
     Harris-Foulkes estimate   =   -5268.18941372 Ry
     estimated scf accuracy    <       0.00059983 Ry

     total magnetization       =    32.75 Bohr mag/cell
     absolute magnetization    =    34.42 Bohr mag/cell

     iteration # 13     ecut=    71.00 Ry     beta= 0.10
     Davidson diagonalization with overlap
     ethr =  2.34E-07,  avg # of iterations =  2.7

     negative rho (up, down):  0.000E+00 2.432E-03

     total cpu time spent up to now is      657.2 secs

     total energy              =   -5268.18978253 Ry
     Harris-Foulkes estimate   =   -5268.18952265 Ry
     estimated scf accuracy    <       0.00090084 Ry

     total magnetization       =    32.80 Bohr mag/cell
     absolute magnetization    =    34.52 Bohr mag/cell

     iteration # 14     ecut=    71.00 Ry     beta= 0.10
     Davidson diagonalization with overlap
     ethr =  2.34E-07,  avg # of iterations =  3.2

     negative rho (up, down):  0.000E+00 2.448E-03

     total cpu time spent up to now is      717.8 secs

     total energy              =   -5268.19005563 Ry
     Harris-Foulkes estimate   =   -5268.19001885 Ry
     estimated scf accuracy    <       0.00035874 Ry

     total magnetization       =    32.81 Bohr mag/cell
     absolute magnetization    =    34.53 Bohr mag/cell

     iteration # 15     ecut=    71.00 Ry     beta= 0.10
     Davidson diagonalization with overlap
     ethr =  1.40E-07,  avg # of iterations =  1.0

     negative rho (up, down):  0.000E+00 2.483E-03

     total cpu time spent up to now is      751.1 secs

     total energy              =   -5268.19006930 Ry
     Harris-Foulkes estimate   =   -5268.19007186 Ry
     estimated scf accuracy    <       0.00013545 Ry

     total magnetization       =    32.84 Bohr mag/cell
     absolute magnetization    =    34.57 Bohr mag/cell

     iteration # 16     ecut=    71.00 Ry     beta= 0.10
     Davidson diagonalization with overlap
     ethr =  5.29E-08,  avg # of iterations =  2.0

     negative rho (up, down):  0.000E+00 2.379E-03

     total cpu time spent up to now is      796.2 secs

     total energy              =   -5268.19010687 Ry
     Harris-Foulkes estimate   =   -5268.19008895 Ry
     estimated scf accuracy    <       0.00007134 Ry

     total magnetization       =    32.87 Bohr mag/cell
     absolute magnetization    =    34.62 Bohr mag/cell

     iteration # 17     ecut=    71.00 Ry     beta= 0.10
     Davidson diagonalization with overlap
     ethr =  2.79E-08,  avg # of iterations =  2.8

     negative rho (up, down):  0.000E+00 2.397E-03

     total cpu time spent up to now is      851.4 secs

     total energy              =   -5268.19014814 Ry
     Harris-Foulkes estimate   =   -5268.19013635 Ry
     estimated scf accuracy    <       0.00004974 Ry

     total magnetization       =    32.87 Bohr mag/cell
     absolute magnetization    =    34.63 Bohr mag/cell

     iteration # 18     ecut=    71.00 Ry     beta= 0.10
     Davidson diagonalization with overlap
     ethr =  1.94E-08,  avg # of iterations =  1.3

     negative rho (up, down):  0.000E+00 2.460E-03

     total cpu time spent up to now is      887.4 secs

     total energy              =   -5268.19014880 Ry
     Harris-Foulkes estimate   =   -5268.19015039 Ry
     estimated scf accuracy    <       0.00003127 Ry

     total magnetization       =    32.89 Bohr mag/cell
     absolute magnetization    =    34.65 Bohr mag/cell

     iteration # 19     ecut=    71.00 Ry     beta= 0.10
     Davidson diagonalization with overlap
     ethr =  1.22E-08,  avg # of iterations =  3.2

     negative rho (up, down):  0.000E+00 2.465E-03

     total cpu time spent up to now is      946.1 secs

     total energy              =   -5268.19016140 Ry
     Harris-Foulkes estimate   =   -5268.19015897 Ry
     estimated scf accuracy    <       0.00000916 Ry

     total magnetization       =    32.92 Bohr mag/cell
     absolute magnetization    =    34.69 Bohr mag/cell

     iteration # 20     ecut=    71.00 Ry     beta= 0.10
     Davidson diagonalization with overlap
     ethr =  3.58E-09,  avg # of iterations =  1.0

     negative rho (up, down):  0.000E+00 2.470E-03

     total cpu time spent up to now is      980.0 secs

     total energy              =   -5268.19016329 Ry
     Harris-Foulkes estimate   =   -5268.19016183 Ry
     estimated scf accuracy    <       0.00000528 Ry

     total magnetization       =    32.92 Bohr mag/cell
     absolute magnetization    =    34.70 Bohr mag/cell

     iteration # 21     ecut=    71.00 Ry     beta= 0.10
     Davidson diagonalization with overlap
     ethr =  2.06E-09,  avg # of iterations =  1.6

     negative rho (up, down):  0.000E+00 2.467E-03

     total cpu time spent up to now is     1017.3 secs

     total energy              =   -5268.19016546 Ry
     Harris-Foulkes estimate   =   -5268.19016349 Ry
     estimated scf accuracy    <       0.00000383 Ry

     total magnetization       =    32.93 Bohr mag/cell
     absolute magnetization    =    34.71 Bohr mag/cell

     iteration # 22     ecut=    71.00 Ry     beta= 0.10
     Davidson diagonalization with overlap
     ethr =  1.50E-09,  avg # of iterations =  1.4

     negative rho (up, down):  0.000E+00 2.462E-03

     total cpu time spent up to now is     1053.6 secs

     total energy              =   -5268.19016723 Ry
     Harris-Foulkes estimate   =   -5268.19016573 Ry
     estimated scf accuracy    <       0.00000297 Ry

     total magnetization       =    32.93 Bohr mag/cell
     absolute magnetization    =    34.71 Bohr mag/cell

     iteration # 23     ecut=    71.00 Ry     beta= 0.10
     Davidson diagonalization with overlap
     ethr =  1.16E-09,  avg # of iterations =  2.9

     negative rho (up, down):  0.000E+00 2.474E-03
 
     Magnetic moment per site:
     atom:    1    charge:   14.3679    magn:    2.1017    constr:    0.0000
     atom:    2    charge:   14.3680    magn:    2.1042    constr:    0.0000
     atom:    3    charge:   14.3680    magn:    2.1027    constr:    0.0000
     atom:    4    charge:   14.3680    magn:    2.1042    constr:    0.0000
     atom:    5    charge:   14.3680    magn:    2.1027    constr:    0.0000
     atom:    6    charge:   14.3680    magn:    2.1042    constr:    0.0000
     atom:    7    charge:   14.3682    magn:    2.1032    constr:    0.0000
     atom:    8    charge:   14.3680    magn:    2.1042    constr:    0.0000
     atom:    9    charge:   14.3681    magn:    2.1008    constr:    0.0000
     atom:   10    charge:   14.3680    magn:    2.1042    constr:    0.0000
     atom:   11    charge:   14.3681    magn:    2.1014    constr:    0.0000
     atom:   12    charge:   14.3680    magn:    2.1042    constr:    0.0000
     atom:   13    charge:   14.3681    magn:    2.1014    constr:    0.0000
     atom:   14    charge:   14.3680    magn:    2.1042    constr:    0.0000
     atom:   15    charge:   14.3681    magn:    2.1022    constr:    0.0000
     atom:   16    charge:   14.3680    magn:    2.1042    constr:    0.0000

     total cpu time spent up to now is     1105.4 secs

     End of self-consistent calculation

     Number of k-points >= 100: set verbosity='high' to print the bands.

     the Fermi energy is    18.9263 ev

!    total energy              =   -5268.19017003 Ry
     Harris-Foulkes estimate   =   -5268.19016789 Ry
     estimated scf accuracy    <       0.00000055 Ry

     total all-electron energy =    -40728.934699 Ry

     The total energy is the sum of the following terms:

     one-electron contribution =   -1710.39741358 Ry
     hartree contribution      =    1023.34760178 Ry
     xc contribution           =    -444.23867039 Ry
     ewald contribution        =   -2812.35612464 Ry
     one-center paw contrib.   =   -1324.67066059 Ry
     smearing contrib. (-TS)   =       0.12509738 Ry

     total magnetization       =    32.93 Bohr mag/cell
     absolute magnetization    =    34.71 Bohr mag/cell

     convergence has been achieved in  23 iterations

     negative rho (up, down):  0.000E+00 2.474E-03

     Forces acting on atoms (cartesian axes, Ry/au):

     atom    1 type  1   force =     0.00000000    0.00000000   -0.00000000
     atom    2 type  2   force =    -0.00003969    0.00011226    0.00011226
     atom    3 type  1   force =     0.00000000    0.00000000   -0.00000000
     atom    4 type  2   force =    -0.00003969    0.00011226   -0.00011226
     atom    5 type  1   force =     0.00000000    0.00000000    0.00000000
     atom    6 type  2   force =    -0.00003969   -0.00011226    0.00011226
     atom    7 type  1   force =     0.00000000    0.00000000    0.00000000
     atom    8 type  2   force =    -0.00003969   -0.00011226   -0.00011226
     atom    9 type  1   force =     0.00000000    0.00000000    0.00000000
     atom   10 type  2   force =     0.00003969    0.00011226    0.00011226
     atom   11 type  1   force =     0.00000000    0.00000000    0.00000000
     atom   12 type  2   force =     0.00003969    0.00011226   -0.00011226
     atom   13 type  1   force =     0.00000000    0.00000000   -0.00000000
     atom   14 type  2   force =     0.00003969   -0.00011226    0.00011226
     atom   15 type  1   force =     0.00000000    0.00000000    0.00000000
     atom   16 type  2   force =     0.00003969   -0.00011226   -0.00011226

     Total force =     0.000463     Total SCF correction =     0.005489
     SCF correction compared to forces is large: reduce conv_thr to get better values


     Computing stress (Cartesian axis) and pressure


     negative rho (up, down):  0.000E+00 2.474E-03
          total   stress  (Ry/bohr**3)                   (kbar)     P=   -6.88
  -0.00005862   0.00000000   0.00000000         -8.62      0.00      0.00
   0.00000000  -0.00004082   0.00000000          0.00     -6.00      0.00
   0.00000000   0.00000000  -0.00004082          0.00      0.00     -6.00


     Writing output data file fAYInoEjKIkAtTFw.save/
 
     init_run     :     13.01s CPU     13.60s WALL (       1 calls)
     electrons    :   1057.39s CPU   1090.48s WALL (       1 calls)
     forces       :      4.62s CPU      5.07s WALL (       1 calls)
     stress       :     13.28s CPU     13.40s WALL (       1 calls)

     Called by init_run:
     wfcinit      :     12.54s CPU     13.06s WALL (       1 calls)
     potinit      :      0.19s CPU      0.22s WALL (       1 calls)
     hinit0       :      0.17s CPU      0.18s WALL (       1 calls)

     Called by electrons:
     c_bands      :    950.62s CPU    977.78s WALL (      24 calls)
     sum_band     :    102.01s CPU    107.30s WALL (      24 calls)
     v_of_rho     :      0.38s CPU      0.38s WALL (      24 calls)
     newd         :      0.75s CPU      0.96s WALL (      24 calls)
     PAW_pot      :      3.57s CPU      3.88s WALL (      24 calls)
     mix_rho      :      0.14s CPU      0.16s WALL (      24 calls)

     Called by c_bands:
     init_us_2    :      5.29s CPU      5.35s WALL (    7650 calls)
     cegterg      :    924.04s CPU    950.93s WALL (    3600 calls)

     Called by sum_band:
     sum_band:bec :      1.48s CPU      1.50s WALL (    3600 calls)
     addusdens    :      1.20s CPU      1.38s WALL (      24 calls)

     Called by *egterg:
     h_psi        :    398.27s CPU    414.61s WALL (   11523 calls)
     s_psi        :     22.07s CPU     22.20s WALL (   11523 calls)
     g_psi        :      0.91s CPU      0.93s WALL (    7773 calls)
     cdiaghg      :    408.44s CPU    409.87s WALL (   11223 calls)

     Called by h_psi:
     h_psi:pot    :    396.30s CPU    412.62s WALL (   11523 calls)
     h_psi:calbec :     33.15s CPU     38.36s WALL (   11523 calls)
     vloc_psi     :    341.18s CPU    352.13s WALL (   11523 calls)
     add_vuspsi   :     21.88s CPU     22.06s WALL (   11523 calls)

     General routines
     calbec       :     50.63s CPU     58.76s WALL (   15873 calls)
     fft          :      0.40s CPU      0.42s WALL (     642 calls)
     ffts         :      0.07s CPU      0.26s WALL (      96 calls)
     fftw         :    398.08s CPU    410.82s WALL ( 3010784 calls)
     interpolate  :      0.07s CPU      0.15s WALL (      48 calls)
 
     Parallel routines
     fft_scatt_xy :     26.18s CPU     27.04s WALL ( 3011522 calls)
     fft_scatt_yz :    266.20s CPU    274.97s WALL ( 3011522 calls)
 
     PWSCF        : 18m17.90s CPU    19m18.45s WALL

 
   This run was terminated on:   3:47:29   2Nov2020            

=------------------------------------------------------------------------------=
   JOB DONE.
=------------------------------------------------------------------------------=
