--------------------------------------------------------------------------
WARNING: No preset parameters were found for the device that Open MPI
detected:

  Local host:            bear-pg0206u26a
  Device name:           mlx5_0
  Device vendor ID:      0x02c9
  Device vendor part ID: 4123

Default device parameters will be used, which may result in lower
performance.  You can edit any of the files specified by the
btl_openib_device_param_files MCA parameter to set values for your
device.

NOTE: You can turn off this warning by setting the MCA parameter
      btl_openib_warn_no_device_params_found to 0.
--------------------------------------------------------------------------
--------------------------------------------------------------------------
WARNING: There was an error initializing an OpenFabrics device.

  Local host:   bear-pg0206u26a
  Local device: mlx5_0
--------------------------------------------------------------------------

     Program PWSCF v.6.3 starts on  2Nov2020 at  6: 4:46 

     This program is part of the open-source Quantum ESPRESSO suite
     for quantum simulation of materials; please cite
         "P. Giannozzi et al., J. Phys.:Condens. Matter 21 395502 (2009);
         "P. Giannozzi et al., J. Phys.:Condens. Matter 29 465901 (2017);
          URL http://www.quantum-espresso.org", 
     in publications or presentations arising from this work. More details at
     http://www.quantum-espresso.org/quote

     Parallel version (MPI & OpenMP), running on      40 processor cores
     Number of MPI processes:                40
     Threads/MPI process:                     1

     MPI processes distributed on     1 nodes
     R & G space division:  proc/nbgrp/npool/nimage =      40
     Reading input from wd/ec/ec_2_004.in
Warning: card &IONS ignored
Warning: card ION_DYNAMICS = 'BFGS', ignored
Warning: card / ignored
Warning: card &CELL ignored
Warning: card CELL_DYNAMICS = 'BFGS', ignored
Warning: card CELL_FACTOR = 2.0, ignored
Warning: card PRESS = 0.0, ignored
Warning: card / ignored

     Current dimensions of program PWSCF are:
     Max number of different atomic species (ntypx) = 10
     Max number of k-points (npk) =  40000
     Max angular momentum in pseudopotentials (lmaxx) =  3
               file Fe.pbe-spn-kjpaw_psl.1.0.0.UPF: wavefunction(s)  3P 3D renormalized
               file Fe.pbe-spn-kjpaw_psl.1.0.0.UPF: wavefunction(s)  3P 3D renormalized

     Subspace diagonalization in iterative solution of the eigenvalue problem:
     a serial algorithm will be used

     Found symmetry operation: I + (  0.0000  0.0000 -0.5000)
     This is a supercell, fractional translations are disabled
 
     Parallelization info
     --------------------
     sticks:   dense  smooth     PW     G-vecs:    dense   smooth      PW
     Min          96      63     17                 4482     2405     357
     Max          97      64     18                 4485     2408     362
     Sum        3847    2553    717               179343    96281   14363
 


     bravais-lattice index     =            0
     lattice parameter (alat)  =      10.5935  a.u.
     unit-cell volume          =    1191.2106 (a.u.)^3
     number of atoms/cell      =           16
     number of atomic types    =            2
     number of electrons       =       256.00
     number of Kohn-Sham states=          154
     kinetic-energy cutoff     =      71.0000  Ry
     charge density cutoff     =     430.0000  Ry
     convergence threshold     =      1.0E-06
     mixing beta               =       0.1000
     number of iterations used =           10  plain     mixing
     Exchange-correlation      = SLA PW PBX PBC ( 1  4  3  4 0 0)

     celldm(1)=  10.593520  celldm(2)=   0.000000  celldm(3)=   0.000000
     celldm(4)=   0.000000  celldm(5)=   0.000000  celldm(6)=   0.000000

     crystal axes: (cart. coord. in units of alat)
               a(1) = (   1.000000   0.000000   0.000000 )  
               a(2) = (   0.000000   1.002000   0.000000 )  
               a(3) = (   0.000000   0.000000   1.000000 )  

     reciprocal axes: (cart. coord. in units 2 pi/alat)
               b(1) = (  1.000000  0.000000  0.000000 )  
               b(2) = (  0.000000  0.998004  0.000000 )  
               b(3) = (  0.000000  0.000000  1.000000 )  


     PseudoPot. # 1 for Fe read from file:
     /rds/homes/b/bxp912/pp/Fe.pbe-spn-kjpaw_psl.1.0.0.UPF
     MD5 check sum: 42f43b795421b414b0dc916aa790dbcb
     Pseudo is Projector augmented-wave + core cor, Zval = 16.0
     Generated using "atomic" code by A. Dal Corso v.6.3
     Shape of augmentation charge: PSQ
     Using radial grid of 1191 points,  6 beta functions with: 
                l(1) =   0
                l(2) =   0
                l(3) =   1
                l(4) =   1
                l(5) =   2
                l(6) =   2
     Q(r) pseudized with 0 coefficients 


     PseudoPot. # 2 for Fe read from file:
     /rds/homes/b/bxp912/pp/Fe.pbe-spn-kjpaw_psl.1.0.0.UPF
     MD5 check sum: 42f43b795421b414b0dc916aa790dbcb
     Pseudo is Projector augmented-wave + core cor, Zval = 16.0
     Generated using "atomic" code by A. Dal Corso v.6.3
     Shape of augmentation charge: PSQ
     Using radial grid of 1191 points,  6 beta functions with: 
                l(1) =   0
                l(2) =   0
                l(3) =   1
                l(4) =   1
                l(5) =   2
                l(6) =   2
     Q(r) pseudized with 0 coefficients 


     atomic species   valence    mass     pseudopotential
        Fe1           16.00    55.84500     Fe( 1.00)
        Fe2           16.00    55.84500     Fe( 1.00)

     Starting magnetic structure 
     atomic species   magnetization
        Fe1          0.100
        Fe2          0.100

     16 Sym. Ops., with inversion, found



   Cartesian axes

     site n.     atom                  positions (alat units)
         1           Fe1 tau(   1) = (   0.0000000   0.0000000   0.0000000  )
         2           Fe2 tau(   2) = (   0.2500004   0.2505004   0.2500004  )
         3           Fe1 tau(   3) = (   0.0000000   0.0000000   0.5000000  )
         4           Fe2 tau(   4) = (   0.2500004   0.2505004   0.7499996  )
         5           Fe1 tau(   5) = (   0.0000000   0.5010000   0.0000000  )
         6           Fe2 tau(   6) = (   0.2500004   0.7514996   0.2500004  )
         7           Fe1 tau(   7) = (   0.0000000   0.5010000   0.5000000  )
         8           Fe2 tau(   8) = (   0.2500004   0.7514996   0.7499996  )
         9           Fe1 tau(   9) = (   0.5000000   0.0000000   0.0000000  )
        10           Fe2 tau(  10) = (   0.7499996   0.2505004   0.2500004  )
        11           Fe1 tau(  11) = (   0.5000000   0.0000000   0.5000000  )
        12           Fe2 tau(  12) = (   0.7499996   0.2505004   0.7499996  )
        13           Fe1 tau(  13) = (   0.5000000   0.5010000   0.0000000  )
        14           Fe2 tau(  14) = (   0.7499996   0.7514996   0.2500004  )
        15           Fe1 tau(  15) = (   0.5000000   0.5010000   0.5000000  )
        16           Fe2 tau(  16) = (   0.7499996   0.7514996   0.7499996  )

     number of k points=    75  Marzari-Vanderbilt smearing, width (Ry)=  0.0400
                       cart. coord. in units 2pi/alat
        k(    1) = (   0.0555556   0.0554447   0.0555556), wk =   0.0109739
        k(    2) = (   0.0555556   0.0554447   0.1666667), wk =   0.0219479
        k(    3) = (   0.0555556   0.0554447   0.2777778), wk =   0.0219479
        k(    4) = (   0.0555556   0.0554447   0.3888889), wk =   0.0219479
        k(    5) = (   0.0555556   0.0554447  -0.5000000), wk =   0.0109739
        k(    6) = (   0.0555556   0.1663340   0.0555556), wk =   0.0109739
        k(    7) = (   0.0555556   0.1663340   0.1666667), wk =   0.0219479
        k(    8) = (   0.0555556   0.1663340   0.2777778), wk =   0.0219479
        k(    9) = (   0.0555556   0.1663340   0.3888889), wk =   0.0219479
        k(   10) = (   0.0555556   0.1663340  -0.5000000), wk =   0.0109739
        k(   11) = (   0.0555556   0.2772233   0.0555556), wk =   0.0109739
        k(   12) = (   0.0555556   0.2772233   0.1666667), wk =   0.0219479
        k(   13) = (   0.0555556   0.2772233   0.2777778), wk =   0.0219479
        k(   14) = (   0.0555556   0.2772233   0.3888889), wk =   0.0219479
        k(   15) = (   0.0555556   0.2772233  -0.5000000), wk =   0.0109739
        k(   16) = (   0.0555556   0.3881127   0.0555556), wk =   0.0109739
        k(   17) = (   0.0555556   0.3881127   0.1666667), wk =   0.0219479
        k(   18) = (   0.0555556   0.3881127   0.2777778), wk =   0.0219479
        k(   19) = (   0.0555556   0.3881127   0.3888889), wk =   0.0219479
        k(   20) = (   0.0555556   0.3881127  -0.5000000), wk =   0.0109739
        k(   21) = (   0.0555556  -0.4990020   0.0555556), wk =   0.0054870
        k(   22) = (   0.0555556  -0.4990020   0.1666667), wk =   0.0109739
        k(   23) = (   0.0555556  -0.4990020   0.2777778), wk =   0.0109739
        k(   24) = (   0.0555556  -0.4990020   0.3888889), wk =   0.0109739
        k(   25) = (   0.0555556  -0.4990020  -0.5000000), wk =   0.0054870
        k(   26) = (   0.1666667   0.0554447   0.1666667), wk =   0.0109739
        k(   27) = (   0.1666667   0.0554447   0.2777778), wk =   0.0219479
        k(   28) = (   0.1666667   0.0554447   0.3888889), wk =   0.0219479
        k(   29) = (   0.1666667   0.0554447  -0.5000000), wk =   0.0109739
        k(   30) = (   0.1666667   0.1663340   0.1666667), wk =   0.0109739
        k(   31) = (   0.1666667   0.1663340   0.2777778), wk =   0.0219479
        k(   32) = (   0.1666667   0.1663340   0.3888889), wk =   0.0219479
        k(   33) = (   0.1666667   0.1663340  -0.5000000), wk =   0.0109739
        k(   34) = (   0.1666667   0.2772233   0.1666667), wk =   0.0109739
        k(   35) = (   0.1666667   0.2772233   0.2777778), wk =   0.0219479
        k(   36) = (   0.1666667   0.2772233   0.3888889), wk =   0.0219479
        k(   37) = (   0.1666667   0.2772233  -0.5000000), wk =   0.0109739
        k(   38) = (   0.1666667   0.3881127   0.1666667), wk =   0.0109739
        k(   39) = (   0.1666667   0.3881127   0.2777778), wk =   0.0219479
        k(   40) = (   0.1666667   0.3881127   0.3888889), wk =   0.0219479
        k(   41) = (   0.1666667   0.3881127  -0.5000000), wk =   0.0109739
        k(   42) = (   0.1666667  -0.4990020   0.1666667), wk =   0.0054870
        k(   43) = (   0.1666667  -0.4990020   0.2777778), wk =   0.0109739
        k(   44) = (   0.1666667  -0.4990020   0.3888889), wk =   0.0109739
        k(   45) = (   0.1666667  -0.4990020  -0.5000000), wk =   0.0054870
        k(   46) = (   0.2777778   0.0554447   0.2777778), wk =   0.0109739
        k(   47) = (   0.2777778   0.0554447   0.3888889), wk =   0.0219479
        k(   48) = (   0.2777778   0.0554447  -0.5000000), wk =   0.0109739
        k(   49) = (   0.2777778   0.1663340   0.2777778), wk =   0.0109739
        k(   50) = (   0.2777778   0.1663340   0.3888889), wk =   0.0219479
        k(   51) = (   0.2777778   0.1663340  -0.5000000), wk =   0.0109739
        k(   52) = (   0.2777778   0.2772233   0.2777778), wk =   0.0109739
        k(   53) = (   0.2777778   0.2772233   0.3888889), wk =   0.0219479
        k(   54) = (   0.2777778   0.2772233  -0.5000000), wk =   0.0109739
        k(   55) = (   0.2777778   0.3881127   0.2777778), wk =   0.0109739
        k(   56) = (   0.2777778   0.3881127   0.3888889), wk =   0.0219479
        k(   57) = (   0.2777778   0.3881127  -0.5000000), wk =   0.0109739
        k(   58) = (   0.2777778  -0.4990020   0.2777778), wk =   0.0054870
        k(   59) = (   0.2777778  -0.4990020   0.3888889), wk =   0.0109739
        k(   60) = (   0.2777778  -0.4990020  -0.5000000), wk =   0.0054870
        k(   61) = (   0.3888889   0.0554447   0.3888889), wk =   0.0109739
        k(   62) = (   0.3888889   0.0554447  -0.5000000), wk =   0.0109739
        k(   63) = (   0.3888889   0.1663340   0.3888889), wk =   0.0109739
        k(   64) = (   0.3888889   0.1663340  -0.5000000), wk =   0.0109739
        k(   65) = (   0.3888889   0.2772233   0.3888889), wk =   0.0109739
        k(   66) = (   0.3888889   0.2772233  -0.5000000), wk =   0.0109739
        k(   67) = (   0.3888889   0.3881127   0.3888889), wk =   0.0109739
        k(   68) = (   0.3888889   0.3881127  -0.5000000), wk =   0.0109739
        k(   69) = (   0.3888889  -0.4990020   0.3888889), wk =   0.0054870
        k(   70) = (   0.3888889  -0.4990020  -0.5000000), wk =   0.0054870
        k(   71) = (  -0.5000000   0.0554447  -0.5000000), wk =   0.0027435
        k(   72) = (  -0.5000000   0.1663340  -0.5000000), wk =   0.0027435
        k(   73) = (  -0.5000000   0.2772233  -0.5000000), wk =   0.0027435
        k(   74) = (  -0.5000000   0.3881127  -0.5000000), wk =   0.0027435
        k(   75) = (  -0.5000000  -0.4990020  -0.5000000), wk =   0.0013717

     Dense  grid:   179343 G-vectors     FFT dimensions: (  72,  72,  72)

     Smooth grid:    96281 G-vectors     FFT dimensions: (  60,  60,  60)

     Estimated max dynamical RAM per process >     144.89 MB

     Estimated total dynamical RAM >       5.66 GB
     Generating pointlists ...
     new r_m :   0.1787 (alat units)  1.8934 (a.u.) for type    1
     new r_m :   0.1787 (alat units)  1.8934 (a.u.) for type    2

     Check: negative/imaginary core charge=   -0.000006    0.000000

     Initial potential from superposition of free atoms

     starting charge  255.99300, renormalised to  256.00000
     Starting wfcs are  160 randomized atomic wfcs
     Checking if some PAW data can be deallocated... 

     total cpu time spent up to now is       14.9 secs

     Self-consistent Calculation

     iteration #  1     ecut=    71.00 Ry     beta= 0.10
     Davidson diagonalization with overlap
     ethr =  1.00E-02,  avg # of iterations =  3.3

     Threshold (ethr) on eigenvalues was too large:
     Diagonalizing with lowered threshold

     Davidson diagonalization with overlap
     ethr =  2.21E-04,  avg # of iterations =  3.6

     total cpu time spent up to now is      129.2 secs

     total energy              =   -5268.05165038 Ry
     Harris-Foulkes estimate   =   -5268.13564651 Ry
     estimated scf accuracy    <       0.64985880 Ry

     total magnetization       =    28.17 Bohr mag/cell
     absolute magnetization    =    28.31 Bohr mag/cell

     iteration #  2     ecut=    71.00 Ry     beta= 0.10
     Davidson diagonalization with overlap
     ethr =  2.54E-04,  avg # of iterations =  1.0

     total cpu time spent up to now is      162.3 secs

     total energy              =   -5267.99699022 Ry
     Harris-Foulkes estimate   =   -5268.06502150 Ry
     estimated scf accuracy    <       0.38717774 Ry

     total magnetization       =    28.78 Bohr mag/cell
     absolute magnetization    =    28.93 Bohr mag/cell

     iteration #  3     ecut=    71.00 Ry     beta= 0.10
     Davidson diagonalization with overlap
     ethr =  1.51E-04,  avg # of iterations =  2.8

     total cpu time spent up to now is      212.0 secs

     total energy              =   -5268.02705466 Ry
     Harris-Foulkes estimate   =   -5268.04810197 Ry
     estimated scf accuracy    <       0.57003023 Ry

     total magnetization       =    29.65 Bohr mag/cell
     absolute magnetization    =    29.95 Bohr mag/cell

     iteration #  4     ecut=    71.00 Ry     beta= 0.10
     Davidson diagonalization with overlap
     ethr =  1.51E-04,  avg # of iterations =  1.1

     total cpu time spent up to now is      245.7 secs

     total energy              =   -5268.05174656 Ry
     Harris-Foulkes estimate   =   -5268.04907290 Ry
     estimated scf accuracy    <       0.12904116 Ry

     total magnetization       =    30.25 Bohr mag/cell
     absolute magnetization    =    30.59 Bohr mag/cell

     iteration #  5     ecut=    71.00 Ry     beta= 0.10
     Davidson diagonalization with overlap
     ethr =  5.04E-05,  avg # of iterations =  1.1

     total cpu time spent up to now is      279.4 secs

     total energy              =   -5268.10796952 Ry
     Harris-Foulkes estimate   =   -5268.05379431 Ry
     estimated scf accuracy    <       0.10625100 Ry

     total magnetization       =    30.31 Bohr mag/cell
     absolute magnetization    =    30.68 Bohr mag/cell

     iteration #  6     ecut=    71.00 Ry     beta= 0.10
     Davidson diagonalization with overlap
     ethr =  4.15E-05,  avg # of iterations =  3.4

     negative rho (up, down):  0.000E+00 4.263E-04

     total cpu time spent up to now is      347.1 secs

     total energy              =   -5268.16092226 Ry
     Harris-Foulkes estimate   =   -5268.15348357 Ry
     estimated scf accuracy    <       0.17134214 Ry

     total magnetization       =    31.03 Bohr mag/cell
     absolute magnetization    =    31.80 Bohr mag/cell

     iteration #  7     ecut=    71.00 Ry     beta= 0.10
     Davidson diagonalization with overlap
     ethr =  4.15E-05,  avg # of iterations =  2.6

     negative rho (up, down):  0.000E+00 1.328E-03

     total cpu time spent up to now is      397.5 secs

     total energy              =   -5268.17566205 Ry
     Harris-Foulkes estimate   =   -5268.17580410 Ry
     estimated scf accuracy    <       0.05541537 Ry

     total magnetization       =    31.81 Bohr mag/cell
     absolute magnetization    =    32.94 Bohr mag/cell

     iteration #  8     ecut=    71.00 Ry     beta= 0.10
     Davidson diagonalization with overlap
     ethr =  2.16E-05,  avg # of iterations =  2.3

     negative rho (up, down):  0.000E+00 1.720E-03

     total cpu time spent up to now is      444.4 secs

     total energy              =   -5268.18427831 Ry
     Harris-Foulkes estimate   =   -5268.18145734 Ry
     estimated scf accuracy    <       0.02789669 Ry

     total magnetization       =    32.19 Bohr mag/cell
     absolute magnetization    =    33.52 Bohr mag/cell

     iteration #  9     ecut=    71.00 Ry     beta= 0.10
     Davidson diagonalization with overlap
     ethr =  1.09E-05,  avg # of iterations =  1.1

     negative rho (up, down):  0.000E+00 2.391E-03

     total cpu time spent up to now is      478.7 secs

     total energy              =   -5268.18798024 Ry
     Harris-Foulkes estimate   =   -5268.18530301 Ry
     estimated scf accuracy    <       0.01024669 Ry

     total magnetization       =    32.35 Bohr mag/cell
     absolute magnetization    =    33.74 Bohr mag/cell

     iteration # 10     ecut=    71.00 Ry     beta= 0.10
     Davidson diagonalization with overlap
     ethr =  4.00E-06,  avg # of iterations =  3.2

     negative rho (up, down):  0.000E+00 2.573E-03

     total cpu time spent up to now is      532.0 secs

     total energy              =   -5268.18934093 Ry
     Harris-Foulkes estimate   =   -5268.18933686 Ry
     estimated scf accuracy    <       0.00213674 Ry

     total magnetization       =    32.62 Bohr mag/cell
     absolute magnetization    =    34.22 Bohr mag/cell

     iteration # 11     ecut=    71.00 Ry     beta= 0.10
     Davidson diagonalization with overlap
     c_bands:  2 eigenvalues not converged
     ethr =  8.35E-07,  avg # of iterations =  2.8

     negative rho (up, down):  0.000E+00 2.413E-03

     total cpu time spent up to now is      579.9 secs

     total energy              =   -5268.18962061 Ry
     Harris-Foulkes estimate   =   -5268.18951765 Ry
     estimated scf accuracy    <       0.00071918 Ry

     total magnetization       =    32.71 Bohr mag/cell
     absolute magnetization    =    34.37 Bohr mag/cell

     iteration # 12     ecut=    71.00 Ry     beta= 0.10
     Davidson diagonalization with overlap
     ethr =  2.81E-07,  avg # of iterations =  2.2

     negative rho (up, down):  0.000E+00 2.388E-03

     total cpu time spent up to now is      623.3 secs

     total energy              =   -5268.18989576 Ry
     Harris-Foulkes estimate   =   -5268.18968448 Ry
     estimated scf accuracy    <       0.00066994 Ry

     total magnetization       =    32.73 Bohr mag/cell
     absolute magnetization    =    34.40 Bohr mag/cell

     iteration # 13     ecut=    71.00 Ry     beta= 0.10
     Davidson diagonalization with overlap
     ethr =  2.62E-07,  avg # of iterations =  2.0

     negative rho (up, down):  0.000E+00 2.474E-03

     total cpu time spent up to now is      666.6 secs

     total energy              =   -5268.19001751 Ry
     Harris-Foulkes estimate   =   -5268.18995656 Ry
     estimated scf accuracy    <       0.00043112 Ry

     total magnetization       =    32.79 Bohr mag/cell
     absolute magnetization    =    34.49 Bohr mag/cell

     iteration # 14     ecut=    71.00 Ry     beta= 0.10
     Davidson diagonalization with overlap
     ethr =  1.68E-07,  avg # of iterations =  3.0

     negative rho (up, down):  0.000E+00 2.401E-03

     total cpu time spent up to now is      719.1 secs

     total energy              =   -5268.19011018 Ry
     Harris-Foulkes estimate   =   -5268.19009844 Ry
     estimated scf accuracy    <       0.00010820 Ry

     total magnetization       =    32.87 Bohr mag/cell
     absolute magnetization    =    34.63 Bohr mag/cell

     iteration # 15     ecut=    71.00 Ry     beta= 0.10
     Davidson diagonalization with overlap
     ethr =  4.23E-08,  avg # of iterations =  2.8

     negative rho (up, down):  0.000E+00 2.454E-03

     total cpu time spent up to now is      770.4 secs

     total energy              =   -5268.19012876 Ry
     Harris-Foulkes estimate   =   -5268.19012854 Ry
     estimated scf accuracy    <       0.00007297 Ry

     total magnetization       =    32.87 Bohr mag/cell
     absolute magnetization    =    34.62 Bohr mag/cell

     iteration # 16     ecut=    71.00 Ry     beta= 0.10
     Davidson diagonalization with overlap
     ethr =  2.85E-08,  avg # of iterations =  3.1

     negative rho (up, down):  0.000E+00 2.433E-03

     total cpu time spent up to now is      826.2 secs

     total energy              =   -5268.19016128 Ry
     Harris-Foulkes estimate   =   -5268.19015661 Ry
     estimated scf accuracy    <       0.00001603 Ry

     total magnetization       =    32.92 Bohr mag/cell
     absolute magnetization    =    34.69 Bohr mag/cell

     iteration # 17     ecut=    71.00 Ry     beta= 0.10
     Davidson diagonalization with overlap
     ethr =  6.26E-09,  avg # of iterations =  2.7

     negative rho (up, down):  0.000E+00 2.447E-03

     total cpu time spent up to now is      873.5 secs

     total energy              =   -5268.19016389 Ry
     Harris-Foulkes estimate   =   -5268.19016344 Ry
     estimated scf accuracy    <       0.00000903 Ry

     total magnetization       =    32.92 Bohr mag/cell
     absolute magnetization    =    34.69 Bohr mag/cell

     iteration # 18     ecut=    71.00 Ry     beta= 0.10
     Davidson diagonalization with overlap
     ethr =  3.53E-09,  avg # of iterations =  1.5

     negative rho (up, down):  0.000E+00 2.452E-03

     total cpu time spent up to now is      910.0 secs

     total energy              =   -5268.19016584 Ry
     Harris-Foulkes estimate   =   -5268.19016455 Ry
     estimated scf accuracy    <       0.00000596 Ry

     total magnetization       =    32.92 Bohr mag/cell
     absolute magnetization    =    34.70 Bohr mag/cell

     iteration # 19     ecut=    71.00 Ry     beta= 0.10
     Davidson diagonalization with overlap
     ethr =  2.33E-09,  avg # of iterations =  2.5

     negative rho (up, down):  0.000E+00 2.451E-03

     total cpu time spent up to now is      955.6 secs

     total energy              =   -5268.19016717 Ry
     Harris-Foulkes estimate   =   -5268.19016674 Ry
     estimated scf accuracy    <       0.00000323 Ry

     total magnetization       =    32.93 Bohr mag/cell
     absolute magnetization    =    34.71 Bohr mag/cell

     iteration # 20     ecut=    71.00 Ry     beta= 0.10
     Davidson diagonalization with overlap
     ethr =  1.26E-09,  avg # of iterations =  1.5

     negative rho (up, down):  0.000E+00 2.457E-03

     total cpu time spent up to now is      992.3 secs

     total energy              =   -5268.19016799 Ry
     Harris-Foulkes estimate   =   -5268.19016742 Ry
     estimated scf accuracy    <       0.00000200 Ry

     total magnetization       =    32.93 Bohr mag/cell
     absolute magnetization    =    34.71 Bohr mag/cell

     iteration # 21     ecut=    71.00 Ry     beta= 0.10
     Davidson diagonalization with overlap
     ethr =  7.83E-10,  avg # of iterations =  1.1

     negative rho (up, down):  0.000E+00 2.474E-03
 
     Magnetic moment per site:
     atom:    1    charge:   14.3681    magn:    2.1013    constr:    0.0000
     atom:    2    charge:   14.3680    magn:    2.1044    constr:    0.0000
     atom:    3    charge:   14.3681    magn:    2.1010    constr:    0.0000
     atom:    4    charge:   14.3680    magn:    2.1044    constr:    0.0000
     atom:    5    charge:   14.3681    magn:    2.1033    constr:    0.0000
     atom:    6    charge:   14.3680    magn:    2.1044    constr:    0.0000
     atom:    7    charge:   14.3681    magn:    2.1027    constr:    0.0000
     atom:    8    charge:   14.3680    magn:    2.1044    constr:    0.0000
     atom:    9    charge:   14.3681    magn:    2.1010    constr:    0.0000
     atom:   10    charge:   14.3680    magn:    2.1044    constr:    0.0000
     atom:   11    charge:   14.3682    magn:    2.1006    constr:    0.0000
     atom:   12    charge:   14.3680    magn:    2.1044    constr:    0.0000
     atom:   13    charge:   14.3681    magn:    2.1027    constr:    0.0000
     atom:   14    charge:   14.3680    magn:    2.1044    constr:    0.0000
     atom:   15    charge:   14.3680    magn:    2.1023    constr:    0.0000
     atom:   16    charge:   14.3680    magn:    2.1044    constr:    0.0000

     total cpu time spent up to now is     1026.1 secs

     End of self-consistent calculation

     Number of k-points >= 100: set verbosity='high' to print the bands.

     the Fermi energy is    18.9263 ev

!    total energy              =   -5268.19016990 Ry
     Harris-Foulkes estimate   =   -5268.19016810 Ry
     estimated scf accuracy    <       0.00000091 Ry

     total all-electron energy =    -40728.934699 Ry

     The total energy is the sum of the following terms:

     one-electron contribution =   -1710.39792070 Ry
     hartree contribution      =    1023.34841660 Ry
     xc contribution           =    -444.23890935 Ry
     ewald contribution        =   -2812.35612464 Ry
     one-center paw contrib.   =   -1324.67070897 Ry
     smearing contrib. (-TS)   =       0.12507715 Ry

     total magnetization       =    32.93 Bohr mag/cell
     absolute magnetization    =    34.71 Bohr mag/cell

     convergence has been achieved in  21 iterations

     negative rho (up, down):  0.000E+00 2.474E-03

     Forces acting on atoms (cartesian axes, Ry/au):

     atom    1 type  1   force =     0.00000000    0.00000000    0.00000000
     atom    2 type  2   force =    -0.00005125    0.00035396   -0.00005125
     atom    3 type  1   force =     0.00000000    0.00000000   -0.00000000
     atom    4 type  2   force =    -0.00005125    0.00035396    0.00005125
     atom    5 type  1   force =     0.00000000    0.00000000    0.00000000
     atom    6 type  2   force =    -0.00005125   -0.00035396   -0.00005125
     atom    7 type  1   force =     0.00000000    0.00000000    0.00000000
     atom    8 type  2   force =    -0.00005125   -0.00035396    0.00005125
     atom    9 type  1   force =     0.00000000    0.00000000    0.00000000
     atom   10 type  2   force =     0.00005125    0.00035396   -0.00005125
     atom   11 type  1   force =     0.00000000   -0.00000000    0.00000000
     atom   12 type  2   force =     0.00005125    0.00035396    0.00005125
     atom   13 type  1   force =     0.00000000    0.00000000   -0.00000000
     atom   14 type  2   force =     0.00005125   -0.00035396   -0.00005125
     atom   15 type  1   force =     0.00000000   -0.00000000    0.00000000
     atom   16 type  2   force =     0.00005125   -0.00035396    0.00005125

     Total force =     0.001022     Total SCF correction =     0.003650
     SCF correction compared to forces is large: reduce conv_thr to get better values


     Computing stress (Cartesian axis) and pressure


     negative rho (up, down):  0.000E+00 2.474E-03
          total   stress  (Ry/bohr**3)                   (kbar)     P=   -6.57
  -0.00003885   0.00000000   0.00000000         -5.71      0.00      0.00
   0.00000000  -0.00005632   0.00000000          0.00     -8.28      0.00
   0.00000000   0.00000000  -0.00003885          0.00      0.00     -5.71


     Writing output data file JLwcGXySFrIwCmMH.save/
 
     init_run     :     12.86s CPU     13.44s WALL (       1 calls)
     electrons    :    981.50s CPU   1011.27s WALL (       1 calls)
     forces       :      4.52s CPU      4.93s WALL (       1 calls)
     stress       :     12.18s CPU     12.32s WALL (       1 calls)

     Called by init_run:
     wfcinit      :     12.38s CPU     12.90s WALL (       1 calls)
     potinit      :      0.20s CPU      0.23s WALL (       1 calls)
     hinit0       :      0.17s CPU      0.19s WALL (       1 calls)

     Called by electrons:
     c_bands      :    884.54s CPU    909.16s WALL (      22 calls)
     sum_band     :     92.62s CPU     97.22s WALL (      22 calls)
     v_of_rho     :      0.33s CPU      0.33s WALL (      22 calls)
     newd         :      0.68s CPU      0.88s WALL (      22 calls)
     PAW_pot      :      3.30s CPU      3.55s WALL (      22 calls)
     mix_rho      :      0.12s CPU      0.13s WALL (      22 calls)

     Called by c_bands:
     init_us_2    :      4.58s CPU      4.65s WALL (    7050 calls)
     cegterg      :    860.83s CPU    885.20s WALL (    3300 calls)

     Called by sum_band:
     sum_band:bec :      1.26s CPU      1.28s WALL (    3300 calls)
     addusdens    :      1.12s CPU      1.30s WALL (      22 calls)

     Called by *egterg:
     h_psi        :    364.20s CPU    379.12s WALL (   11057 calls)
     s_psi        :     19.14s CPU     19.26s WALL (   11057 calls)
     g_psi        :      0.78s CPU      0.79s WALL (    7607 calls)
     cdiaghg      :    392.80s CPU    394.04s WALL (   10757 calls)

     Called by h_psi:
     h_psi:pot    :    362.02s CPU    376.92s WALL (   11057 calls)
     h_psi:calbec :     30.02s CPU     34.63s WALL (   11057 calls)
     vloc_psi     :    312.59s CPU    322.77s WALL (   11057 calls)
     add_vuspsi   :     19.32s CPU     19.45s WALL (   11057 calls)

     General routines
     calbec       :     46.16s CPU     53.38s WALL (   15107 calls)
     fft          :      0.36s CPU      0.37s WALL (     592 calls)
     ffts         :      0.04s CPU      0.21s WALL (      88 calls)
     fftw         :    364.69s CPU    376.33s WALL ( 2756132 calls)
     interpolate  :      0.06s CPU      0.14s WALL (      44 calls)
 
     Parallel routines
     fft_scatt_xy :     23.72s CPU     24.45s WALL ( 2756812 calls)
     fft_scatt_yz :    246.32s CPU    254.57s WALL ( 2756812 calls)
 
     PWSCF        : 17m 0.96s CPU    17m56.99s WALL

 
   This run was terminated on:   6:22:43   2Nov2020            

=------------------------------------------------------------------------------=
   JOB DONE.
=------------------------------------------------------------------------------=
