--------------------------------------------------------------------------
WARNING: No preset parameters were found for the device that Open MPI
detected:

  Local host:            bear-pg0206u26a
  Device name:           mlx5_0
  Device vendor ID:      0x02c9
  Device vendor part ID: 4123

Default device parameters will be used, which may result in lower
performance.  You can edit any of the files specified by the
btl_openib_device_param_files MCA parameter to set values for your
device.

NOTE: You can turn off this warning by setting the MCA parameter
      btl_openib_warn_no_device_params_found to 0.
--------------------------------------------------------------------------
--------------------------------------------------------------------------
WARNING: There was an error initializing an OpenFabrics device.

  Local host:   bear-pg0206u26a
  Local device: mlx5_0
--------------------------------------------------------------------------

     Program PWSCF v.6.3 starts on  2Nov2020 at  5:47:21 

     This program is part of the open-source Quantum ESPRESSO suite
     for quantum simulation of materials; please cite
         "P. Giannozzi et al., J. Phys.:Condens. Matter 21 395502 (2009);
         "P. Giannozzi et al., J. Phys.:Condens. Matter 29 465901 (2017);
          URL http://www.quantum-espresso.org", 
     in publications or presentations arising from this work. More details at
     http://www.quantum-espresso.org/quote

     Parallel version (MPI & OpenMP), running on      40 processor cores
     Number of MPI processes:                40
     Threads/MPI process:                     1

     MPI processes distributed on     1 nodes
     R & G space division:  proc/nbgrp/npool/nimage =      40
     Reading input from wd/ec/ec_2_003.in
Warning: card &IONS ignored
Warning: card ION_DYNAMICS = 'BFGS', ignored
Warning: card / ignored
Warning: card &CELL ignored
Warning: card CELL_DYNAMICS = 'BFGS', ignored
Warning: card CELL_FACTOR = 2.0, ignored
Warning: card PRESS = 0.0, ignored
Warning: card / ignored

     Current dimensions of program PWSCF are:
     Max number of different atomic species (ntypx) = 10
     Max number of k-points (npk) =  40000
     Max angular momentum in pseudopotentials (lmaxx) =  3
               file Fe.pbe-spn-kjpaw_psl.1.0.0.UPF: wavefunction(s)  3P 3D renormalized
               file Fe.pbe-spn-kjpaw_psl.1.0.0.UPF: wavefunction(s)  3P 3D renormalized

     Subspace diagonalization in iterative solution of the eigenvalue problem:
     a serial algorithm will be used

     Found symmetry operation: I + (  0.0000  0.0000 -0.5000)
     This is a supercell, fractional translations are disabled
 
     Parallelization info
     --------------------
     sticks:   dense  smooth     PW     G-vecs:    dense   smooth      PW
     Min          95      63     17                 4475     2403     357
     Max          96      65     18                 4480     2406     362
     Sum        3839    2549    717               179151    96177   14363
 


     bravais-lattice index     =            0
     lattice parameter (alat)  =      10.5935  a.u.
     unit-cell volume          =    1190.4180 (a.u.)^3
     number of atoms/cell      =           16
     number of atomic types    =            2
     number of electrons       =       256.00
     number of Kohn-Sham states=          154
     kinetic-energy cutoff     =      71.0000  Ry
     charge density cutoff     =     430.0000  Ry
     convergence threshold     =      1.0E-06
     mixing beta               =       0.1000
     number of iterations used =           10  plain     mixing
     Exchange-correlation      = SLA PW PBX PBC ( 1  4  3  4 0 0)

     celldm(1)=  10.593520  celldm(2)=   0.000000  celldm(3)=   0.000000
     celldm(4)=   0.000000  celldm(5)=   0.000000  celldm(6)=   0.000000

     crystal axes: (cart. coord. in units of alat)
               a(1) = (   1.000000   0.000000   0.000000 )  
               a(2) = (   0.000000   1.001333   0.000000 )  
               a(3) = (   0.000000   0.000000   1.000000 )  

     reciprocal axes: (cart. coord. in units 2 pi/alat)
               b(1) = (  1.000000  0.000000  0.000000 )  
               b(2) = (  0.000000  0.998668  0.000000 )  
               b(3) = (  0.000000  0.000000  1.000000 )  


     PseudoPot. # 1 for Fe read from file:
     /rds/homes/b/bxp912/pp/Fe.pbe-spn-kjpaw_psl.1.0.0.UPF
     MD5 check sum: 42f43b795421b414b0dc916aa790dbcb
     Pseudo is Projector augmented-wave + core cor, Zval = 16.0
     Generated using "atomic" code by A. Dal Corso v.6.3
     Shape of augmentation charge: PSQ
     Using radial grid of 1191 points,  6 beta functions with: 
                l(1) =   0
                l(2) =   0
                l(3) =   1
                l(4) =   1
                l(5) =   2
                l(6) =   2
     Q(r) pseudized with 0 coefficients 


     PseudoPot. # 2 for Fe read from file:
     /rds/homes/b/bxp912/pp/Fe.pbe-spn-kjpaw_psl.1.0.0.UPF
     MD5 check sum: 42f43b795421b414b0dc916aa790dbcb
     Pseudo is Projector augmented-wave + core cor, Zval = 16.0
     Generated using "atomic" code by A. Dal Corso v.6.3
     Shape of augmentation charge: PSQ
     Using radial grid of 1191 points,  6 beta functions with: 
                l(1) =   0
                l(2) =   0
                l(3) =   1
                l(4) =   1
                l(5) =   2
                l(6) =   2
     Q(r) pseudized with 0 coefficients 


     atomic species   valence    mass     pseudopotential
        Fe1           16.00    55.84500     Fe( 1.00)
        Fe2           16.00    55.84500     Fe( 1.00)

     Starting magnetic structure 
     atomic species   magnetization
        Fe1          0.100
        Fe2          0.100

     16 Sym. Ops., with inversion, found



   Cartesian axes

     site n.     atom                  positions (alat units)
         1           Fe1 tau(   1) = (   0.0000000   0.0000000   0.0000000  )
         2           Fe2 tau(   2) = (   0.2500004   0.2503338   0.2500004  )
         3           Fe1 tau(   3) = (   0.0000000   0.0000000   0.5000000  )
         4           Fe2 tau(   4) = (   0.2500004   0.2503338   0.7499996  )
         5           Fe1 tau(   5) = (   0.0000000   0.5006667   0.0000000  )
         6           Fe2 tau(   6) = (   0.2500004   0.7509996   0.2500004  )
         7           Fe1 tau(   7) = (   0.0000000   0.5006667   0.5000000  )
         8           Fe2 tau(   8) = (   0.2500004   0.7509996   0.7499996  )
         9           Fe1 tau(   9) = (   0.5000000   0.0000000   0.0000000  )
        10           Fe2 tau(  10) = (   0.7499996   0.2503338   0.2500004  )
        11           Fe1 tau(  11) = (   0.5000000   0.0000000   0.5000000  )
        12           Fe2 tau(  12) = (   0.7499996   0.2503338   0.7499996  )
        13           Fe1 tau(  13) = (   0.5000000   0.5006667   0.0000000  )
        14           Fe2 tau(  14) = (   0.7499996   0.7509996   0.2500004  )
        15           Fe1 tau(  15) = (   0.5000000   0.5006667   0.5000000  )
        16           Fe2 tau(  16) = (   0.7499996   0.7509996   0.7499996  )

     number of k points=    75  Marzari-Vanderbilt smearing, width (Ry)=  0.0400
                       cart. coord. in units 2pi/alat
        k(    1) = (   0.0555556   0.0554816   0.0555556), wk =   0.0109739
        k(    2) = (   0.0555556   0.0554816   0.1666667), wk =   0.0219479
        k(    3) = (   0.0555556   0.0554816   0.2777778), wk =   0.0219479
        k(    4) = (   0.0555556   0.0554816   0.3888889), wk =   0.0219479
        k(    5) = (   0.0555556   0.0554816  -0.5000000), wk =   0.0109739
        k(    6) = (   0.0555556   0.1664447   0.0555556), wk =   0.0109739
        k(    7) = (   0.0555556   0.1664447   0.1666667), wk =   0.0219479
        k(    8) = (   0.0555556   0.1664447   0.2777778), wk =   0.0219479
        k(    9) = (   0.0555556   0.1664447   0.3888889), wk =   0.0219479
        k(   10) = (   0.0555556   0.1664447  -0.5000000), wk =   0.0109739
        k(   11) = (   0.0555556   0.2774079   0.0555556), wk =   0.0109739
        k(   12) = (   0.0555556   0.2774079   0.1666667), wk =   0.0219479
        k(   13) = (   0.0555556   0.2774079   0.2777778), wk =   0.0219479
        k(   14) = (   0.0555556   0.2774079   0.3888889), wk =   0.0219479
        k(   15) = (   0.0555556   0.2774079  -0.5000000), wk =   0.0109739
        k(   16) = (   0.0555556   0.3883711   0.0555556), wk =   0.0109739
        k(   17) = (   0.0555556   0.3883711   0.1666667), wk =   0.0219479
        k(   18) = (   0.0555556   0.3883711   0.2777778), wk =   0.0219479
        k(   19) = (   0.0555556   0.3883711   0.3888889), wk =   0.0219479
        k(   20) = (   0.0555556   0.3883711  -0.5000000), wk =   0.0109739
        k(   21) = (   0.0555556  -0.4993342   0.0555556), wk =   0.0054870
        k(   22) = (   0.0555556  -0.4993342   0.1666667), wk =   0.0109739
        k(   23) = (   0.0555556  -0.4993342   0.2777778), wk =   0.0109739
        k(   24) = (   0.0555556  -0.4993342   0.3888889), wk =   0.0109739
        k(   25) = (   0.0555556  -0.4993342  -0.5000000), wk =   0.0054870
        k(   26) = (   0.1666667   0.0554816   0.1666667), wk =   0.0109739
        k(   27) = (   0.1666667   0.0554816   0.2777778), wk =   0.0219479
        k(   28) = (   0.1666667   0.0554816   0.3888889), wk =   0.0219479
        k(   29) = (   0.1666667   0.0554816  -0.5000000), wk =   0.0109739
        k(   30) = (   0.1666667   0.1664447   0.1666667), wk =   0.0109739
        k(   31) = (   0.1666667   0.1664447   0.2777778), wk =   0.0219479
        k(   32) = (   0.1666667   0.1664447   0.3888889), wk =   0.0219479
        k(   33) = (   0.1666667   0.1664447  -0.5000000), wk =   0.0109739
        k(   34) = (   0.1666667   0.2774079   0.1666667), wk =   0.0109739
        k(   35) = (   0.1666667   0.2774079   0.2777778), wk =   0.0219479
        k(   36) = (   0.1666667   0.2774079   0.3888889), wk =   0.0219479
        k(   37) = (   0.1666667   0.2774079  -0.5000000), wk =   0.0109739
        k(   38) = (   0.1666667   0.3883711   0.1666667), wk =   0.0109739
        k(   39) = (   0.1666667   0.3883711   0.2777778), wk =   0.0219479
        k(   40) = (   0.1666667   0.3883711   0.3888889), wk =   0.0219479
        k(   41) = (   0.1666667   0.3883711  -0.5000000), wk =   0.0109739
        k(   42) = (   0.1666667  -0.4993342   0.1666667), wk =   0.0054870
        k(   43) = (   0.1666667  -0.4993342   0.2777778), wk =   0.0109739
        k(   44) = (   0.1666667  -0.4993342   0.3888889), wk =   0.0109739
        k(   45) = (   0.1666667  -0.4993342  -0.5000000), wk =   0.0054870
        k(   46) = (   0.2777778   0.0554816   0.2777778), wk =   0.0109739
        k(   47) = (   0.2777778   0.0554816   0.3888889), wk =   0.0219479
        k(   48) = (   0.2777778   0.0554816  -0.5000000), wk =   0.0109739
        k(   49) = (   0.2777778   0.1664447   0.2777778), wk =   0.0109739
        k(   50) = (   0.2777778   0.1664447   0.3888889), wk =   0.0219479
        k(   51) = (   0.2777778   0.1664447  -0.5000000), wk =   0.0109739
        k(   52) = (   0.2777778   0.2774079   0.2777778), wk =   0.0109739
        k(   53) = (   0.2777778   0.2774079   0.3888889), wk =   0.0219479
        k(   54) = (   0.2777778   0.2774079  -0.5000000), wk =   0.0109739
        k(   55) = (   0.2777778   0.3883711   0.2777778), wk =   0.0109739
        k(   56) = (   0.2777778   0.3883711   0.3888889), wk =   0.0219479
        k(   57) = (   0.2777778   0.3883711  -0.5000000), wk =   0.0109739
        k(   58) = (   0.2777778  -0.4993342   0.2777778), wk =   0.0054870
        k(   59) = (   0.2777778  -0.4993342   0.3888889), wk =   0.0109739
        k(   60) = (   0.2777778  -0.4993342  -0.5000000), wk =   0.0054870
        k(   61) = (   0.3888889   0.0554816   0.3888889), wk =   0.0109739
        k(   62) = (   0.3888889   0.0554816  -0.5000000), wk =   0.0109739
        k(   63) = (   0.3888889   0.1664447   0.3888889), wk =   0.0109739
        k(   64) = (   0.3888889   0.1664447  -0.5000000), wk =   0.0109739
        k(   65) = (   0.3888889   0.2774079   0.3888889), wk =   0.0109739
        k(   66) = (   0.3888889   0.2774079  -0.5000000), wk =   0.0109739
        k(   67) = (   0.3888889   0.3883711   0.3888889), wk =   0.0109739
        k(   68) = (   0.3888889   0.3883711  -0.5000000), wk =   0.0109739
        k(   69) = (   0.3888889  -0.4993342   0.3888889), wk =   0.0054870
        k(   70) = (   0.3888889  -0.4993342  -0.5000000), wk =   0.0054870
        k(   71) = (  -0.5000000   0.0554816  -0.5000000), wk =   0.0027435
        k(   72) = (  -0.5000000   0.1664447  -0.5000000), wk =   0.0027435
        k(   73) = (  -0.5000000   0.2774079  -0.5000000), wk =   0.0027435
        k(   74) = (  -0.5000000   0.3883711  -0.5000000), wk =   0.0027435
        k(   75) = (  -0.5000000  -0.4993342  -0.5000000), wk =   0.0013717

     Dense  grid:   179151 G-vectors     FFT dimensions: (  72,  72,  72)

     Smooth grid:    96177 G-vectors     FFT dimensions: (  60,  60,  60)

     Estimated max dynamical RAM per process >     144.89 MB

     Estimated total dynamical RAM >       5.66 GB
     Generating pointlists ...
     new r_m :   0.1787 (alat units)  1.8930 (a.u.) for type    1
     new r_m :   0.1787 (alat units)  1.8930 (a.u.) for type    2

     Check: negative/imaginary core charge=   -0.000006    0.000000

     Initial potential from superposition of free atoms

     starting charge  255.99300, renormalised to  256.00000
     Starting wfcs are  160 randomized atomic wfcs
     Checking if some PAW data can be deallocated... 

     total cpu time spent up to now is       15.0 secs

     Self-consistent Calculation

     iteration #  1     ecut=    71.00 Ry     beta= 0.10
     Davidson diagonalization with overlap
     ethr =  1.00E-02,  avg # of iterations =  3.4

     Threshold (ethr) on eigenvalues was too large:
     Diagonalizing with lowered threshold

     Davidson diagonalization with overlap
     ethr =  2.22E-04,  avg # of iterations =  3.5

     total cpu time spent up to now is      128.4 secs

     total energy              =   -5268.05175503 Ry
     Harris-Foulkes estimate   =   -5268.13593819 Ry
     estimated scf accuracy    <       0.65071060 Ry

     total magnetization       =    28.16 Bohr mag/cell
     absolute magnetization    =    28.29 Bohr mag/cell

     iteration #  2     ecut=    71.00 Ry     beta= 0.10
     Davidson diagonalization with overlap
     ethr =  2.54E-04,  avg # of iterations =  1.0

     total cpu time spent up to now is      161.5 secs

     total energy              =   -5267.99673478 Ry
     Harris-Foulkes estimate   =   -5268.06515230 Ry
     estimated scf accuracy    <       0.38754142 Ry

     total magnetization       =    28.77 Bohr mag/cell
     absolute magnetization    =    28.92 Bohr mag/cell

     iteration #  3     ecut=    71.00 Ry     beta= 0.10
     Davidson diagonalization with overlap
     ethr =  1.51E-04,  avg # of iterations =  2.8

     total cpu time spent up to now is      211.6 secs

     total energy              =   -5268.02709701 Ry
     Harris-Foulkes estimate   =   -5268.04805173 Ry
     estimated scf accuracy    <       0.56789794 Ry

     total magnetization       =    29.64 Bohr mag/cell
     absolute magnetization    =    29.94 Bohr mag/cell

     iteration #  4     ecut=    71.00 Ry     beta= 0.10
     Davidson diagonalization with overlap
     ethr =  1.51E-04,  avg # of iterations =  1.1

     total cpu time spent up to now is      244.9 secs

     total energy              =   -5268.05168436 Ry
     Harris-Foulkes estimate   =   -5268.04903179 Ry
     estimated scf accuracy    <       0.12879317 Ry

     total magnetization       =    30.24 Bohr mag/cell
     absolute magnetization    =    30.58 Bohr mag/cell

     iteration #  5     ecut=    71.00 Ry     beta= 0.10
     Davidson diagonalization with overlap
     ethr =  5.03E-05,  avg # of iterations =  1.1

     total cpu time spent up to now is      278.7 secs

     total energy              =   -5268.10771111 Ry
     Harris-Foulkes estimate   =   -5268.05372137 Ry
     estimated scf accuracy    <       0.10607905 Ry

     total magnetization       =    30.30 Bohr mag/cell
     absolute magnetization    =    30.67 Bohr mag/cell

     iteration #  6     ecut=    71.00 Ry     beta= 0.10
     Davidson diagonalization with overlap
     ethr =  4.14E-05,  avg # of iterations =  3.4

     negative rho (up, down):  0.000E+00 4.208E-04

     total cpu time spent up to now is      342.8 secs

     total energy              =   -5268.16061855 Ry
     Harris-Foulkes estimate   =   -5268.15308931 Ry
     estimated scf accuracy    <       0.17116430 Ry

     total magnetization       =    31.02 Bohr mag/cell
     absolute magnetization    =    31.78 Bohr mag/cell

     iteration #  7     ecut=    71.00 Ry     beta= 0.10
     Davidson diagonalization with overlap
     ethr =  4.14E-05,  avg # of iterations =  2.6

     negative rho (up, down):  0.000E+00 1.316E-03

     total cpu time spent up to now is      392.6 secs

     total energy              =   -5268.17545747 Ry
     Harris-Foulkes estimate   =   -5268.17551598 Ry
     estimated scf accuracy    <       0.05540742 Ry

     total magnetization       =    31.80 Bohr mag/cell
     absolute magnetization    =    32.92 Bohr mag/cell

     iteration #  8     ecut=    71.00 Ry     beta= 0.10
     Davidson diagonalization with overlap
     ethr =  2.16E-05,  avg # of iterations =  2.3

     negative rho (up, down):  0.000E+00 1.718E-03

     total cpu time spent up to now is      439.3 secs

     total energy              =   -5268.18399598 Ry
     Harris-Foulkes estimate   =   -5268.18116121 Ry
     estimated scf accuracy    <       0.02869482 Ry

     total magnetization       =    32.17 Bohr mag/cell
     absolute magnetization    =    33.50 Bohr mag/cell

     iteration #  9     ecut=    71.00 Ry     beta= 0.10
     Davidson diagonalization with overlap
     ethr =  1.12E-05,  avg # of iterations =  1.1

     negative rho (up, down):  0.000E+00 2.374E-03

     total cpu time spent up to now is      473.0 secs

     total energy              =   -5268.18775995 Ry
     Harris-Foulkes estimate   =   -5268.18507037 Ry
     estimated scf accuracy    <       0.01027955 Ry

     total magnetization       =    32.34 Bohr mag/cell
     absolute magnetization    =    33.72 Bohr mag/cell

     iteration # 10     ecut=    71.00 Ry     beta= 0.10
     Davidson diagonalization with overlap
     ethr =  4.02E-06,  avg # of iterations =  3.2

     negative rho (up, down):  0.000E+00 2.570E-03

     total cpu time spent up to now is      525.0 secs

     total energy              =   -5268.18909610 Ry
     Harris-Foulkes estimate   =   -5268.18907865 Ry
     estimated scf accuracy    <       0.00223748 Ry

     total magnetization       =    32.61 Bohr mag/cell
     absolute magnetization    =    34.19 Bohr mag/cell

     iteration # 11     ecut=    71.00 Ry     beta= 0.10
     Davidson diagonalization with overlap
     ethr =  8.74E-07,  avg # of iterations =  2.7

     negative rho (up, down):  0.000E+00 2.415E-03

     total cpu time spent up to now is      572.6 secs

     total energy              =   -5268.18939388 Ry
     Harris-Foulkes estimate   =   -5268.18929077 Ry
     estimated scf accuracy    <       0.00072044 Ry

     total magnetization       =    32.70 Bohr mag/cell
     absolute magnetization    =    34.36 Bohr mag/cell

     iteration # 12     ecut=    71.00 Ry     beta= 0.10
     Davidson diagonalization with overlap
     ethr =  2.81E-07,  avg # of iterations =  2.2

     negative rho (up, down):  0.000E+00 2.390E-03

     total cpu time spent up to now is      615.7 secs

     total energy              =   -5268.18966916 Ry
     Harris-Foulkes estimate   =   -5268.18945593 Ry
     estimated scf accuracy    <       0.00065696 Ry

     total magnetization       =    32.72 Bohr mag/cell
     absolute magnetization    =    34.39 Bohr mag/cell

     iteration # 13     ecut=    71.00 Ry     beta= 0.10
     Davidson diagonalization with overlap
     ethr =  2.57E-07,  avg # of iterations =  2.0

     negative rho (up, down):  0.000E+00 2.471E-03

     total cpu time spent up to now is      659.1 secs

     total energy              =   -5268.18979189 Ry
     Harris-Foulkes estimate   =   -5268.18973074 Ry
     estimated scf accuracy    <       0.00042051 Ry

     total magnetization       =    32.78 Bohr mag/cell
     absolute magnetization    =    34.48 Bohr mag/cell

     iteration # 14     ecut=    71.00 Ry     beta= 0.10
     Davidson diagonalization with overlap
     ethr =  1.64E-07,  avg # of iterations =  3.0

     negative rho (up, down):  0.000E+00 2.398E-03

     total cpu time spent up to now is      711.4 secs

     total energy              =   -5268.18988268 Ry
     Harris-Foulkes estimate   =   -5268.18986997 Ry
     estimated scf accuracy    <       0.00010794 Ry

     total magnetization       =    32.85 Bohr mag/cell
     absolute magnetization    =    34.61 Bohr mag/cell

     iteration # 15     ecut=    71.00 Ry     beta= 0.10
     Davidson diagonalization with overlap
     ethr =  4.22E-08,  avg # of iterations =  2.8

     negative rho (up, down):  0.000E+00 2.452E-03

     total cpu time spent up to now is      763.2 secs

     total energy              =   -5268.18990100 Ry
     Harris-Foulkes estimate   =   -5268.18990106 Ry
     estimated scf accuracy    <       0.00007301 Ry

     total magnetization       =    32.86 Bohr mag/cell
     absolute magnetization    =    34.60 Bohr mag/cell

     iteration # 16     ecut=    71.00 Ry     beta= 0.10
     Davidson diagonalization with overlap
     ethr =  2.85E-08,  avg # of iterations =  3.1

     negative rho (up, down):  0.000E+00 2.429E-03

     total cpu time spent up to now is      818.2 secs

     total energy              =   -5268.18993293 Ry
     Harris-Foulkes estimate   =   -5268.18992859 Ry
     estimated scf accuracy    <       0.00001586 Ry

     total magnetization       =    32.90 Bohr mag/cell
     absolute magnetization    =    34.68 Bohr mag/cell

     iteration # 17     ecut=    71.00 Ry     beta= 0.10
     Davidson diagonalization with overlap
     ethr =  6.20E-09,  avg # of iterations =  2.9

     negative rho (up, down):  0.000E+00 2.441E-03

     total cpu time spent up to now is      868.0 secs

     total energy              =   -5268.18993633 Ry
     Harris-Foulkes estimate   =   -5268.18993589 Ry
     estimated scf accuracy    <       0.00001056 Ry

     total magnetization       =    32.91 Bohr mag/cell
     absolute magnetization    =    34.67 Bohr mag/cell

     iteration # 18     ecut=    71.00 Ry     beta= 0.10
     Davidson diagonalization with overlap
     ethr =  4.12E-09,  avg # of iterations =  1.9

     negative rho (up, down):  0.000E+00 2.442E-03

     total cpu time spent up to now is      906.9 secs

     total energy              =   -5268.18993841 Ry
     Harris-Foulkes estimate   =   -5268.18993745 Ry
     estimated scf accuracy    <       0.00000852 Ry

     total magnetization       =    32.91 Bohr mag/cell
     absolute magnetization    =    34.68 Bohr mag/cell

     iteration # 19     ecut=    71.00 Ry     beta= 0.10
     Davidson diagonalization with overlap
     ethr =  3.33E-09,  avg # of iterations =  1.9

     negative rho (up, down):  0.000E+00 2.446E-03

     total cpu time spent up to now is      947.1 secs

     total energy              =   -5268.18993986 Ry
     Harris-Foulkes estimate   =   -5268.18993946 Ry
     estimated scf accuracy    <       0.00000125 Ry

     total magnetization       =    32.92 Bohr mag/cell
     absolute magnetization    =    34.69 Bohr mag/cell

     iteration # 20     ecut=    71.00 Ry     beta= 0.10
     Davidson diagonalization with overlap
     ethr =  4.90E-10,  avg # of iterations =  2.5

     negative rho (up, down):  0.000E+00 2.471E-03
 
     Magnetic moment per site:
     atom:    1    charge:   14.3675    magn:    2.1003    constr:    0.0000
     atom:    2    charge:   14.3674    magn:    2.1034    constr:    0.0000
     atom:    3    charge:   14.3676    magn:    2.1000    constr:    0.0000
     atom:    4    charge:   14.3674    magn:    2.1034    constr:    0.0000
     atom:    5    charge:   14.3675    magn:    2.1023    constr:    0.0000
     atom:    6    charge:   14.3674    magn:    2.1034    constr:    0.0000
     atom:    7    charge:   14.3675    magn:    2.1016    constr:    0.0000
     atom:    8    charge:   14.3674    magn:    2.1034    constr:    0.0000
     atom:    9    charge:   14.3676    magn:    2.1000    constr:    0.0000
     atom:   10    charge:   14.3674    magn:    2.1034    constr:    0.0000
     atom:   11    charge:   14.3675    magn:    2.0995    constr:    0.0000
     atom:   12    charge:   14.3674    magn:    2.1034    constr:    0.0000
     atom:   13    charge:   14.3675    magn:    2.1016    constr:    0.0000
     atom:   14    charge:   14.3674    magn:    2.1034    constr:    0.0000
     atom:   15    charge:   14.3675    magn:    2.1012    constr:    0.0000
     atom:   16    charge:   14.3674    magn:    2.1034    constr:    0.0000

     total cpu time spent up to now is      992.4 secs

     End of self-consistent calculation

     Number of k-points >= 100: set verbosity='high' to print the bands.

     the Fermi energy is    18.9425 ev

!    total energy              =   -5268.18994174 Ry
     Harris-Foulkes estimate   =   -5268.18993993 Ry
     estimated scf accuracy    <       0.00000098 Ry

     total all-electron energy =    -40728.934471 Ry

     The total energy is the sum of the following terms:

     one-electron contribution =   -1709.40526210 Ry
     hartree contribution      =    1022.98653430 Ry
     xc contribution           =    -444.24491216 Ry
     ewald contribution        =   -2812.98023413 Ry
     one-center paw contrib.   =   -1324.67083825 Ry
     smearing contrib. (-TS)   =       0.12477061 Ry

     total magnetization       =    32.92 Bohr mag/cell
     absolute magnetization    =    34.69 Bohr mag/cell

     convergence has been achieved in  20 iterations

     negative rho (up, down):  0.000E+00 2.471E-03

     Forces acting on atoms (cartesian axes, Ry/au):

     atom    1 type  1   force =     0.00000000    0.00000000    0.00000000
     atom    2 type  2   force =    -0.00003727    0.00043968   -0.00003727
     atom    3 type  1   force =     0.00000000    0.00000000    0.00000000
     atom    4 type  2   force =    -0.00003727    0.00043968    0.00003727
     atom    5 type  1   force =     0.00000000    0.00000000    0.00000000
     atom    6 type  2   force =    -0.00003727   -0.00043968   -0.00003727
     atom    7 type  1   force =     0.00000000    0.00000000    0.00000000
     atom    8 type  2   force =    -0.00003727   -0.00043968    0.00003727
     atom    9 type  1   force =     0.00000000    0.00000000    0.00000000
     atom   10 type  2   force =     0.00003727    0.00043968   -0.00003727
     atom   11 type  1   force =     0.00000000    0.00000000    0.00000000
     atom   12 type  2   force =     0.00003727    0.00043968    0.00003727
     atom   13 type  1   force =     0.00000000    0.00000000    0.00000000
     atom   14 type  2   force =     0.00003727   -0.00043968   -0.00003727
     atom   15 type  1   force =     0.00000000   -0.00000000    0.00000000
     atom   16 type  2   force =     0.00003727   -0.00043968    0.00003727

     Total force =     0.001252     Total SCF correction =     0.004818
     SCF correction compared to forces is large: reduce conv_thr to get better values


     Computing stress (Cartesian axis) and pressure


     negative rho (up, down):  0.000E+00 2.471E-03
          total   stress  (Ry/bohr**3)                   (kbar)     P=   -6.06
  -0.00003731   0.00000000   0.00000000         -5.49      0.00      0.00
   0.00000000  -0.00004893   0.00000000          0.00     -7.20      0.00
   0.00000000   0.00000000  -0.00003731          0.00      0.00     -5.49


     Writing output data file KkDyLjtxUCyhuxIm.save/
 
     init_run     :     13.04s CPU     13.65s WALL (       1 calls)
     electrons    :    949.06s CPU    977.47s WALL (       1 calls)
     forces       :      4.52s CPU      4.94s WALL (       1 calls)
     stress       :     12.51s CPU     12.64s WALL (       1 calls)

     Called by init_run:
     wfcinit      :     12.55s CPU     13.07s WALL (       1 calls)
     potinit      :      0.22s CPU      0.24s WALL (       1 calls)
     hinit0       :      0.14s CPU      0.18s WALL (       1 calls)

     Called by electrons:
     c_bands      :    857.90s CPU    881.52s WALL (      21 calls)
     sum_band     :     86.91s CPU     91.29s WALL (      21 calls)
     v_of_rho     :      0.32s CPU      0.33s WALL (      21 calls)
     newd         :      0.69s CPU      0.83s WALL (      21 calls)
     PAW_pot      :      3.23s CPU      3.40s WALL (      21 calls)
     mix_rho      :      0.11s CPU      0.12s WALL (      21 calls)

     Called by c_bands:
     init_us_2    :      4.49s CPU      4.54s WALL (    6750 calls)
     cegterg      :    835.28s CPU    858.67s WALL (    3150 calls)

     Called by sum_band:
     sum_band:bec :      1.15s CPU      1.17s WALL (    3150 calls)
     addusdens    :      1.11s CPU      1.27s WALL (      21 calls)

     Called by *egterg:
     h_psi        :    346.02s CPU    360.41s WALL (   10883 calls)
     s_psi        :     18.40s CPU     18.53s WALL (   10883 calls)
     g_psi        :      0.75s CPU      0.76s WALL (    7583 calls)
     cdiaghg      :    389.33s CPU    390.63s WALL (   10583 calls)

     Called by h_psi:
     h_psi:pot    :    343.84s CPU    358.20s WALL (   10883 calls)
     h_psi:calbec :     29.11s CPU     33.49s WALL (   10883 calls)
     vloc_psi     :    295.89s CPU    305.74s WALL (   10883 calls)
     add_vuspsi   :     18.75s CPU     18.91s WALL (   10883 calls)

     General routines
     calbec       :     44.69s CPU     51.52s WALL (   14783 calls)
     fft          :      0.34s CPU      0.36s WALL (     567 calls)
     ffts         :      0.03s CPU      0.20s WALL (      84 calls)
     fftw         :    344.17s CPU    355.49s WALL ( 2645056 calls)
     interpolate  :      0.06s CPU      0.13s WALL (      42 calls)
 
     Parallel routines
     fft_scatt_xy :     22.80s CPU     23.56s WALL ( 2645707 calls)
     fft_scatt_yz :    229.43s CPU    237.20s WALL ( 2645707 calls)
 
     PWSCF        : 16m28.87s CPU    17m23.61s WALL

 
   This run was terminated on:   6: 4:44   2Nov2020            

=------------------------------------------------------------------------------=
   JOB DONE.
=------------------------------------------------------------------------------=
