--------------------------------------------------------------------------
WARNING: There was an error initializing an OpenFabrics device.

  Local host:   bear-pg0211u07a
  Local device: mlx5_0
--------------------------------------------------------------------------

     Program PWSCF v.6.3 starts on  2Oct2020 at 22:17:39 

     This program is part of the open-source Quantum ESPRESSO suite
     for quantum simulation of materials; please cite
         "P. Giannozzi et al., J. Phys.:Condens. Matter 21 395502 (2009);
         "P. Giannozzi et al., J. Phys.:Condens. Matter 29 465901 (2017);
          URL http://www.quantum-espresso.org", 
     in publications or presentations arising from this work. More details at
     http://www.quantum-espresso.org/quote

     Parallel version (MPI & OpenMP), running on      40 processor cores
     Number of MPI processes:                40
     Threads/MPI process:                     1

     MPI processes distributed on     1 nodes
     R & G space division:  proc/nbgrp/npool/nimage =      40
     Reading input from wd/ec/ec_2_002.in
Warning: card &IONS ignored
Warning: card ION_DYNAMICS = 'BFGS', ignored
Warning: card / ignored
Warning: card &CELL ignored
Warning: card CELL_DYNAMICS = 'BFGS', ignored
Warning: card CELL_FACTOR = 2.0, ignored
Warning: card PRESS = 0.0, ignored
Warning: card / ignored

     Current dimensions of program PWSCF are:
     Max number of different atomic species (ntypx) = 10
     Max number of k-points (npk) =  40000
     Max angular momentum in pseudopotentials (lmaxx) =  3
               file Fe.pbe-spn-kjpaw_psl.1.0.0.UPF: wavefunction(s)  3P 3D renormalized
               file Fe.pbe-spn-kjpaw_psl.1.0.0.UPF: wavefunction(s)  3P 3D renormalized
               file Fe.pbe-spn-kjpaw_psl.1.0.0.UPF: wavefunction(s)  3P 3D renormalized
               file Fe.pbe-spn-kjpaw_psl.1.0.0.UPF: wavefunction(s)  3P 3D renormalized

     Subspace diagonalization in iterative solution of the eigenvalue problem:
     a serial algorithm will be used

     Found symmetry operation: I + (  0.0000  0.0000 -0.5000)
     This is a supercell, fractional translations are disabled
 
     Parallelization info
     --------------------
     sticks:   dense  smooth     PW     G-vecs:    dense   smooth      PW
     Min         151     100     27                 8611     4624     663
     Max         152     101     28                 8614     4627     668
     Sum        6047    4001   1103               344475   185017   26623
 


     bravais-lattice index     =            0
     lattice parameter (alat)  =      12.9382  a.u.
     unit-cell volume          =    2287.5656 (a.u.)^3
     number of atoms/cell      =           32
     number of atomic types    =            4
     number of electrons       =       512.00
     number of Kohn-Sham states=          307
     kinetic-energy cutoff     =      71.0000  Ry
     charge density cutoff     =     430.0000  Ry
     convergence threshold     =      1.0E-06
     mixing beta               =       0.1000
     number of iterations used =           10  plain     mixing
     Exchange-correlation      = SLA PW PBX PBC ( 1  4  3  4 0 0)

     celldm(1)=  12.938187  celldm(2)=   0.000000  celldm(3)=   0.000000
     celldm(4)=   0.000000  celldm(5)=   0.000000  celldm(6)=   0.000000

     crystal axes: (cart. coord. in units of alat)
               a(1) = (   1.000000   0.000000   0.000000 )  
               a(2) = (   0.000000   1.056231   0.000000 )  
               a(3) = (   0.000000   0.000000   0.999987 )  

     reciprocal axes: (cart. coord. in units 2 pi/alat)
               b(1) = (  1.000000  0.000000  0.000000 )  
               b(2) = (  0.000000  0.946762  0.000000 )  
               b(3) = (  0.000000  0.000000  1.000013 )  


     PseudoPot. # 1 for Fe read from file:
     /rds/homes/b/bxp912/pp/Fe.pbe-spn-kjpaw_psl.1.0.0.UPF
     MD5 check sum: 42f43b795421b414b0dc916aa790dbcb
     Pseudo is Projector augmented-wave + core cor, Zval = 16.0
     Generated using "atomic" code by A. Dal Corso v.6.3
     Shape of augmentation charge: PSQ
     Using radial grid of 1191 points,  6 beta functions with: 
                l(1) =   0
                l(2) =   0
                l(3) =   1
                l(4) =   1
                l(5) =   2
                l(6) =   2
     Q(r) pseudized with 0 coefficients 


     PseudoPot. # 2 for Fe read from file:
     /rds/homes/b/bxp912/pp/Fe.pbe-spn-kjpaw_psl.1.0.0.UPF
     MD5 check sum: 42f43b795421b414b0dc916aa790dbcb
     Pseudo is Projector augmented-wave + core cor, Zval = 16.0
     Generated using "atomic" code by A. Dal Corso v.6.3
     Shape of augmentation charge: PSQ
     Using radial grid of 1191 points,  6 beta functions with: 
                l(1) =   0
                l(2) =   0
                l(3) =   1
                l(4) =   1
                l(5) =   2
                l(6) =   2
     Q(r) pseudized with 0 coefficients 


     PseudoPot. # 3 for Fe read from file:
     /rds/homes/b/bxp912/pp/Fe.pbe-spn-kjpaw_psl.1.0.0.UPF
     MD5 check sum: 42f43b795421b414b0dc916aa790dbcb
     Pseudo is Projector augmented-wave + core cor, Zval = 16.0
     Generated using "atomic" code by A. Dal Corso v.6.3
     Shape of augmentation charge: PSQ
     Using radial grid of 1191 points,  6 beta functions with: 
                l(1) =   0
                l(2) =   0
                l(3) =   1
                l(4) =   1
                l(5) =   2
                l(6) =   2
     Q(r) pseudized with 0 coefficients 


     PseudoPot. # 4 for Fe read from file:
     /rds/homes/b/bxp912/pp/Fe.pbe-spn-kjpaw_psl.1.0.0.UPF
     MD5 check sum: 42f43b795421b414b0dc916aa790dbcb
     Pseudo is Projector augmented-wave + core cor, Zval = 16.0
     Generated using "atomic" code by A. Dal Corso v.6.3
     Shape of augmentation charge: PSQ
     Using radial grid of 1191 points,  6 beta functions with: 
                l(1) =   0
                l(2) =   0
                l(3) =   1
                l(4) =   1
                l(5) =   2
                l(6) =   2
     Q(r) pseudized with 0 coefficients 


     atomic species   valence    mass     pseudopotential
        Fe1           16.00    55.84500     Fe( 1.00)
        Fe2           16.00    55.84500     Fe( 1.00)
        Fe3           16.00    55.84500     Fe( 1.00)
        Fe4           16.00    55.84500     Fe( 1.00)

     Starting magnetic structure 
     atomic species   magnetization
        Fe1          0.100
        Fe2         -0.100
        Fe3          0.100
        Fe4         -0.100

      8 Sym. Ops., with inversion, found



   Cartesian axes

     site n.     atom                  positions (alat units)
         1           Fe1 tau(   1) = (   0.0000000   0.0000000   0.0000000  )
         2           Fe2 tau(   2) = (   0.2499968   0.2640604   0.0000000  )
         3           Fe3 tau(   3) = (   0.2499981   0.0000000   0.2499947  )
         4           Fe4 tau(   4) = (   0.0000000   0.2640590   0.2500008  )
         5           Fe1 tau(   5) = (   0.0000000   0.0000000   0.4999935  )
         6           Fe2 tau(   6) = (   0.2499996   0.2640633   0.4999935  )
         7           Fe3 tau(   7) = (   0.2499981   0.0000000   0.7499912  )
         8           Fe4 tau(   8) = (   0.0000000   0.2640590   0.7499852  )
         9           Fe1 tau(   9) = (   0.0000000   0.5281157   0.0000000  )
        10           Fe2 tau(  10) = (   0.2499968   0.7921710   0.0000000  )
        11           Fe3 tau(  11) = (   0.2500004   0.5281157   0.2499987  )
        12           Fe4 tau(  12) = (   0.0000000   0.7921724   0.2500008  )
        13           Fe1 tau(  13) = (   0.0000000   0.5281157   0.4999935  )
        14           Fe2 tau(  14) = (   0.2499996   0.7921682   0.4999935  )
        15           Fe3 tau(  15) = (   0.2500004   0.5281157   0.7499882  )
        16           Fe4 tau(  16) = (   0.0000000   0.7921724   0.7499852  )
        17           Fe1 tau(  17) = (   0.4999998   0.0000000   0.0000000  )
        18           Fe2 tau(  18) = (   0.7500027   0.2640604   0.0000000  )
        19           Fe3 tau(  19) = (   0.7500015   0.0000000   0.2499947  )
        20           Fe4 tau(  20) = (   0.4999998   0.2640580   0.2499987  )
        21           Fe1 tau(  21) = (   0.4999998   0.0000000   0.4999935  )
        22           Fe2 tau(  22) = (   0.7499998   0.2640633   0.4999935  )
        23           Fe3 tau(  23) = (   0.7500015   0.0000000   0.7499912  )
        24           Fe4 tau(  24) = (   0.4999998   0.2640580   0.7499872  )
        25           Fe1 tau(  25) = (   0.4999998   0.5281157   0.0000000  )
        26           Fe2 tau(  26) = (   0.7500027   0.7921710   0.0000000  )
        27           Fe3 tau(  27) = (   0.7499992   0.5281157   0.2499987  )
        28           Fe4 tau(  28) = (   0.4999998   0.7921734   0.2499987  )
        29           Fe1 tau(  29) = (   0.4999998   0.5281157   0.4999935  )
        30           Fe2 tau(  30) = (   0.7499998   0.7921682   0.4999935  )
        31           Fe3 tau(  31) = (   0.7499992   0.5281157   0.7499882  )
        32           Fe4 tau(  32) = (   0.4999998   0.7921734   0.7499872  )

     number of k points=   125  Marzari-Vanderbilt smearing, width (Ry)=  0.0400

     Number of k-points >= 100: set verbosity='high' to print them.

     Dense  grid:   344475 G-vectors     FFT dimensions: (  90,  96,  90)

     Smooth grid:   185017 G-vectors     FFT dimensions: (  72,  75,  72)

     Estimated max dynamical RAM per process >     812.15 MB

     Estimated total dynamical RAM >      31.72 GB
     Generating pointlists ...
     new r_m :   0.1458 (alat units)  1.8869 (a.u.) for type    1
     new r_m :   0.1458 (alat units)  1.8869 (a.u.) for type    2
     new r_m :   0.1458 (alat units)  1.8869 (a.u.) for type    3
     new r_m :   0.1458 (alat units)  1.8869 (a.u.) for type    4

     Check: negative/imaginary core charge=   -0.000006    0.000000

     Initial potential from superposition of free atoms

     starting charge  511.98600, renormalised to  512.00000
     Starting wfcs are  320 randomized atomic wfcs
     Checking if some PAW data can be deallocated... 

     total cpu time spent up to now is       84.7 secs

     Self-consistent Calculation

     iteration #  1     ecut=    71.00 Ry     beta= 0.10
     Davidson diagonalization with overlap
     ethr =  1.00E-02,  avg # of iterations =  3.5

     Threshold (ethr) on eigenvalues was too large:
     Diagonalizing with lowered threshold

     Davidson diagonalization with overlap
     ethr =  3.17E-04,  avg # of iterations =  4.0

     total cpu time spent up to now is     1022.5 secs

     total energy              =  -10536.43155025 Ry
     Harris-Foulkes estimate   =  -10536.77174800 Ry
     estimated scf accuracy    <       1.87459147 Ry

     total magnetization       =     0.23 Bohr mag/cell
     absolute magnetization    =    44.34 Bohr mag/cell

     iteration #  2     ecut=    71.00 Ry     beta= 0.10
     Davidson diagonalization with overlap
     ethr =  3.66E-04,  avg # of iterations =  1.0

     total cpu time spent up to now is     1248.4 secs

     total energy              =  -10536.21270959 Ry
     Harris-Foulkes estimate   =  -10536.47695481 Ry
     estimated scf accuracy    <       1.11131814 Ry

     total magnetization       =    -0.11 Bohr mag/cell
     absolute magnetization    =    45.07 Bohr mag/cell

     iteration #  3     ecut=    71.00 Ry     beta= 0.10
     Davidson diagonalization with overlap
     ethr =  2.17E-04,  avg # of iterations =  2.4

     total cpu time spent up to now is     1570.7 secs

     total energy              =  -10536.07928703 Ry
     Harris-Foulkes estimate   =  -10536.35197347 Ry
     estimated scf accuracy    <       2.71275772 Ry

     total magnetization       =     0.23 Bohr mag/cell
     absolute magnetization    =    45.44 Bohr mag/cell

     iteration #  4     ecut=    71.00 Ry     beta= 0.10
     Davidson diagonalization with overlap
     ethr =  2.17E-04,  avg # of iterations =  2.4

     total cpu time spent up to now is     1889.5 secs

     total energy              =  -10536.18104585 Ry
     Harris-Foulkes estimate   =  -10536.21235542 Ry
     estimated scf accuracy    <       0.51687819 Ry

     total magnetization       =     0.35 Bohr mag/cell
     absolute magnetization    =    46.48 Bohr mag/cell

     iteration #  5     ecut=    71.00 Ry     beta= 0.10
     Davidson diagonalization with overlap
     ethr =  1.01E-04,  avg # of iterations =  1.3

     total cpu time spent up to now is     2137.0 secs

     total energy              =  -10536.19177238 Ry
     Harris-Foulkes estimate   =  -10536.20051770 Ry
     estimated scf accuracy    <       0.08363618 Ry

     total magnetization       =     0.02 Bohr mag/cell
     absolute magnetization    =    46.62 Bohr mag/cell

     iteration #  6     ecut=    71.00 Ry     beta= 0.10
     Davidson diagonalization with overlap
     ethr =  1.63E-05,  avg # of iterations =  3.4

     total cpu time spent up to now is     2526.2 secs

     total energy              =  -10536.18331595 Ry
     Harris-Foulkes estimate   =  -10536.19525004 Ry
     estimated scf accuracy    <       0.06863384 Ry

     total magnetization       =    -0.10 Bohr mag/cell
     absolute magnetization    =    46.58 Bohr mag/cell

     iteration #  7     ecut=    71.00 Ry     beta= 0.10
     Davidson diagonalization with overlap
     ethr =  1.34E-05,  avg # of iterations =  3.8

     total cpu time spent up to now is     3086.5 secs

     total energy              =  -10536.19967954 Ry
     Harris-Foulkes estimate   =  -10536.20397068 Ry
     estimated scf accuracy    <       0.09194151 Ry

     total magnetization       =     0.05 Bohr mag/cell
     absolute magnetization    =    46.76 Bohr mag/cell

     iteration #  8     ecut=    71.00 Ry     beta= 0.10
     Davidson diagonalization with overlap
     ethr =  1.34E-05,  avg # of iterations =  2.0

     total cpu time spent up to now is     3389.3 secs

     total energy              =  -10536.20170867 Ry
     Harris-Foulkes estimate   =  -10536.20362587 Ry
     estimated scf accuracy    <       0.06580624 Ry

     total magnetization       =     0.05 Bohr mag/cell
     absolute magnetization    =    47.04 Bohr mag/cell

     iteration #  9     ecut=    71.00 Ry     beta= 0.10
     Davidson diagonalization with overlap
     ethr =  1.29E-05,  avg # of iterations =  1.0

     total cpu time spent up to now is     3620.2 secs

     total energy              =  -10536.21245443 Ry
     Harris-Foulkes estimate   =  -10536.20286899 Ry
     estimated scf accuracy    <       0.03803830 Ry

     total magnetization       =     0.01 Bohr mag/cell
     absolute magnetization    =    47.15 Bohr mag/cell

     iteration # 10     ecut=    71.00 Ry     beta= 0.10
     Davidson diagonalization with overlap
     ethr =  7.43E-06,  avg # of iterations =  2.6

     total cpu time spent up to now is     3970.1 secs

     total energy              =  -10536.23598017 Ry
     Harris-Foulkes estimate   =  -10536.21499756 Ry
     estimated scf accuracy    <       0.03188106 Ry

     total magnetization       =    -0.08 Bohr mag/cell
     absolute magnetization    =    47.48 Bohr mag/cell

     iteration # 11     ecut=    71.00 Ry     beta= 0.10
     Davidson diagonalization with overlap
     ethr =  6.23E-06,  avg # of iterations =  3.7

     total cpu time spent up to now is     4509.1 secs

     total energy              =  -10536.24871528 Ry
     Harris-Foulkes estimate   =  -10536.24674333 Ry
     estimated scf accuracy    <       0.02662210 Ry

     total magnetization       =    -0.11 Bohr mag/cell
     absolute magnetization    =    48.28 Bohr mag/cell

     iteration # 12     ecut=    71.00 Ry     beta= 0.10
     Davidson diagonalization with overlap
     ethr =  5.20E-06,  avg # of iterations =  1.5

     total cpu time spent up to now is     4775.2 secs

     total energy              =  -10536.25007722 Ry
     Harris-Foulkes estimate   =  -10536.25022923 Ry
     estimated scf accuracy    <       0.00728167 Ry

     total magnetization       =    -0.03 Bohr mag/cell
     absolute magnetization    =    48.56 Bohr mag/cell

     iteration # 13     ecut=    71.00 Ry     beta= 0.10
     Davidson diagonalization with overlap
     ethr =  1.42E-06,  avg # of iterations =  3.1

     total cpu time spent up to now is     5181.3 secs

     total energy              =  -10536.25072244 Ry
     Harris-Foulkes estimate   =  -10536.25075992 Ry
     estimated scf accuracy    <       0.00181932 Ry

     total magnetization       =    -0.01 Bohr mag/cell
     absolute magnetization    =    48.71 Bohr mag/cell

     iteration # 14     ecut=    71.00 Ry     beta= 0.10
     Davidson diagonalization with overlap
     ethr =  3.55E-07,  avg # of iterations =  1.2

     total cpu time spent up to now is     5416.3 secs

     total energy              =  -10536.25082915 Ry
     Harris-Foulkes estimate   =  -10536.25076759 Ry
     estimated scf accuracy    <       0.00126919 Ry

     total magnetization       =    -0.01 Bohr mag/cell
     absolute magnetization    =    48.74 Bohr mag/cell

     iteration # 15     ecut=    71.00 Ry     beta= 0.10
     Davidson diagonalization with overlap
     ethr =  2.48E-07,  avg # of iterations =  1.2

     total cpu time spent up to now is     5659.8 secs

     total energy              =  -10536.25104703 Ry
     Harris-Foulkes estimate   =  -10536.25086802 Ry
     estimated scf accuracy    <       0.00092902 Ry

     total magnetization       =    -0.01 Bohr mag/cell
     absolute magnetization    =    48.81 Bohr mag/cell

     iteration # 16     ecut=    71.00 Ry     beta= 0.10
     Davidson diagonalization with overlap
     ethr =  1.81E-07,  avg # of iterations =  1.9

     total cpu time spent up to now is     5942.8 secs

     total energy              =  -10536.25112740 Ry
     Harris-Foulkes estimate   =  -10536.25111605 Ry
     estimated scf accuracy    <       0.00071048 Ry

     total magnetization       =     0.00 Bohr mag/cell
     absolute magnetization    =    48.94 Bohr mag/cell

     iteration # 17     ecut=    71.00 Ry     beta= 0.10
     Davidson diagonalization with overlap
     ethr =  1.39E-07,  avg # of iterations =  1.4

     total cpu time spent up to now is     6203.0 secs

     total energy              =  -10536.25129426 Ry
     Harris-Foulkes estimate   =  -10536.25116902 Ry
     estimated scf accuracy    <       0.00055819 Ry

     total magnetization       =    -0.03 Bohr mag/cell
     absolute magnetization    =    48.98 Bohr mag/cell

     iteration # 18     ecut=    71.00 Ry     beta= 0.10
     Davidson diagonalization with overlap
     ethr =  1.09E-07,  avg # of iterations =  1.2

     total cpu time spent up to now is     6447.5 secs

     total energy              =  -10536.25143196 Ry
     Harris-Foulkes estimate   =  -10536.25132297 Ry
     estimated scf accuracy    <       0.00037743 Ry

     total magnetization       =    -0.00 Bohr mag/cell
     absolute magnetization    =    49.07 Bohr mag/cell

     iteration # 19     ecut=    71.00 Ry     beta= 0.10
     Davidson diagonalization with overlap
     ethr =  7.37E-08,  avg # of iterations =  2.8

     total cpu time spent up to now is     6800.8 secs

     total energy              =  -10536.25158770 Ry
     Harris-Foulkes estimate   =  -10536.25145631 Ry
     estimated scf accuracy    <       0.00030592 Ry

     total magnetization       =    -0.00 Bohr mag/cell
     absolute magnetization    =    49.16 Bohr mag/cell

     iteration # 20     ecut=    71.00 Ry     beta= 0.10
     Davidson diagonalization with overlap
     ethr =  5.98E-08,  avg # of iterations =  2.9

     total cpu time spent up to now is     7175.5 secs

     total energy              =  -10536.25169382 Ry
     Harris-Foulkes estimate   =  -10536.25163497 Ry
     estimated scf accuracy    <       0.00038966 Ry

     total magnetization       =    -0.01 Bohr mag/cell
     absolute magnetization    =    49.32 Bohr mag/cell

     iteration # 21     ecut=    71.00 Ry     beta= 0.10
     Davidson diagonalization with overlap
     ethr =  5.98E-08,  avg # of iterations =  1.6

     total cpu time spent up to now is     7451.5 secs

     total energy              =  -10536.25174074 Ry
     Harris-Foulkes estimate   =  -10536.25172083 Ry
     estimated scf accuracy    <       0.00014714 Ry

     total magnetization       =    -0.01 Bohr mag/cell
     absolute magnetization    =    49.42 Bohr mag/cell

     iteration # 22     ecut=    71.00 Ry     beta= 0.10
     Davidson diagonalization with overlap
     ethr =  2.87E-08,  avg # of iterations =  2.4

     total cpu time spent up to now is     7774.1 secs

     total energy              =  -10536.25175892 Ry
     Harris-Foulkes estimate   =  -10536.25175043 Ry
     estimated scf accuracy    <       0.00011854 Ry

     total magnetization       =    -0.00 Bohr mag/cell
     absolute magnetization    =    49.48 Bohr mag/cell

     iteration # 23     ecut=    71.00 Ry     beta= 0.10
     Davidson diagonalization with overlap
     ethr =  2.32E-08,  avg # of iterations =  1.1

     total cpu time spent up to now is     8004.5 secs

     total energy              =  -10536.25177414 Ry
     Harris-Foulkes estimate   =  -10536.25176267 Ry
     estimated scf accuracy    <       0.00009252 Ry

     total magnetization       =    -0.00 Bohr mag/cell
     absolute magnetization    =    49.51 Bohr mag/cell

     iteration # 24     ecut=    71.00 Ry     beta= 0.10
     Davidson diagonalization with overlap
     ethr =  1.81E-08,  avg # of iterations =  1.7

     total cpu time spent up to now is     8285.4 secs

     total energy              =  -10536.25178891 Ry
     Harris-Foulkes estimate   =  -10536.25177922 Ry
     estimated scf accuracy    <       0.00008373 Ry

     total magnetization       =    -0.01 Bohr mag/cell
     absolute magnetization    =    49.56 Bohr mag/cell

     iteration # 25     ecut=    71.00 Ry     beta= 0.10
     Davidson diagonalization with overlap
     ethr =  1.64E-08,  avg # of iterations =  2.9

     total cpu time spent up to now is     8654.3 secs

     total energy              =  -10536.25180669 Ry
     Harris-Foulkes estimate   =  -10536.25180384 Ry
     estimated scf accuracy    <       0.00008357 Ry

     total magnetization       =    -0.00 Bohr mag/cell
     absolute magnetization    =    49.65 Bohr mag/cell

     iteration # 26     ecut=    71.00 Ry     beta= 0.10
     Davidson diagonalization with overlap
     ethr =  1.63E-08,  avg # of iterations =  2.3

     total cpu time spent up to now is     8975.0 secs

     total energy              =  -10536.25181791 Ry
     Harris-Foulkes estimate   =  -10536.25181675 Ry
     estimated scf accuracy    <       0.00002075 Ry

     total magnetization       =    -0.00 Bohr mag/cell
     absolute magnetization    =    49.73 Bohr mag/cell

     iteration # 27     ecut=    71.00 Ry     beta= 0.10
     Davidson diagonalization with overlap
     ethr =  4.05E-09,  avg # of iterations =  3.0

     total cpu time spent up to now is     9353.3 secs

     total energy              =  -10536.25182055 Ry
     Harris-Foulkes estimate   =  -10536.25181949 Ry
     estimated scf accuracy    <       0.00001679 Ry

     total magnetization       =    -0.00 Bohr mag/cell
     absolute magnetization    =    49.76 Bohr mag/cell

     iteration # 28     ecut=    71.00 Ry     beta= 0.10
     Davidson diagonalization with overlap
     ethr =  3.28E-09,  avg # of iterations =  1.1

     total cpu time spent up to now is     9589.4 secs

     total energy              =  -10536.25182404 Ry
     Harris-Foulkes estimate   =  -10536.25182115 Ry
     estimated scf accuracy    <       0.00001421 Ry

     total magnetization       =    -0.00 Bohr mag/cell
     absolute magnetization    =    49.77 Bohr mag/cell

     iteration # 29     ecut=    71.00 Ry     beta= 0.10
     Davidson diagonalization with overlap
     ethr =  2.77E-09,  avg # of iterations =  1.8

     total cpu time spent up to now is     9871.7 secs

     total energy              =  -10536.25182787 Ry
     Harris-Foulkes estimate   =  -10536.25182475 Ry
     estimated scf accuracy    <       0.00000928 Ry

     total magnetization       =    -0.00 Bohr mag/cell
     absolute magnetization    =    49.78 Bohr mag/cell

     iteration # 30     ecut=    71.00 Ry     beta= 0.10
     Davidson diagonalization with overlap
     ethr =  1.81E-09,  avg # of iterations =  2.3

     total cpu time spent up to now is    10201.2 secs

     total energy              =  -10536.25182958 Ry
     Harris-Foulkes estimate   =  -10536.25182852 Ry
     estimated scf accuracy    <       0.00000790 Ry

     total magnetization       =    -0.00 Bohr mag/cell
     absolute magnetization    =    49.80 Bohr mag/cell

     iteration # 31     ecut=    71.00 Ry     beta= 0.10
     Davidson diagonalization with overlap
     ethr =  1.54E-09,  avg # of iterations =  2.6

     total cpu time spent up to now is    10551.1 secs

     total energy              =  -10536.25183351 Ry
     Harris-Foulkes estimate   =  -10536.25183081 Ry
     estimated scf accuracy    <       0.00000706 Ry

     total magnetization       =    -0.00 Bohr mag/cell
     absolute magnetization    =    49.83 Bohr mag/cell

     iteration # 32     ecut=    71.00 Ry     beta= 0.10
     Davidson diagonalization with overlap
     ethr =  1.38E-09,  avg # of iterations =  2.8

     total cpu time spent up to now is    10928.0 secs

     total energy              =  -10536.25183508 Ry
     Harris-Foulkes estimate   =  -10536.25183477 Ry
     estimated scf accuracy    <       0.00000113 Ry

     total magnetization       =    -0.00 Bohr mag/cell
     absolute magnetization    =    49.85 Bohr mag/cell

     iteration # 33     ecut=    71.00 Ry     beta= 0.10
     Davidson diagonalization with overlap
     ethr =  2.21E-10,  avg # of iterations =  2.8

     total cpu time spent up to now is    11276.5 secs

     total energy              =  -10536.25183531 Ry
     Harris-Foulkes estimate   =  -10536.25183516 Ry
     estimated scf accuracy    <       0.00000108 Ry

     total magnetization       =    -0.00 Bohr mag/cell
     absolute magnetization    =    49.85 Bohr mag/cell

     iteration # 34     ecut=    71.00 Ry     beta= 0.10
     Davidson diagonalization with overlap
     ethr =  2.11E-10,  avg # of iterations =  1.1
 
     Magnetic moment per site:
     atom:    1    charge:   14.3892    magn:    1.4998    constr:    0.0000
     atom:    2    charge:   14.3895    magn:   -1.4998    constr:    0.0000
     atom:    3    charge:   14.3889    magn:    1.5025    constr:    0.0000
     atom:    4    charge:   14.3894    magn:   -1.5039    constr:    0.0000
     atom:    5    charge:   14.3892    magn:    1.5007    constr:    0.0000
     atom:    6    charge:   14.3895    magn:   -1.4992    constr:    0.0000
     atom:    7    charge:   14.3889    magn:    1.5025    constr:    0.0000
     atom:    8    charge:   14.3894    magn:   -1.5039    constr:    0.0000
     atom:    9    charge:   14.3893    magn:    1.5006    constr:    0.0000
     atom:   10    charge:   14.3895    magn:   -1.4998    constr:    0.0000
     atom:   11    charge:   14.3890    magn:    1.5021    constr:    0.0000
     atom:   12    charge:   14.3894    magn:   -1.5039    constr:    0.0000
     atom:   13    charge:   14.3893    magn:    1.5012    constr:    0.0000
     atom:   14    charge:   14.3895    magn:   -1.4992    constr:    0.0000
     atom:   15    charge:   14.3890    magn:    1.5021    constr:    0.0000
     atom:   16    charge:   14.3894    magn:   -1.5039    constr:    0.0000
     atom:   17    charge:   14.3891    magn:    1.5011    constr:    0.0000
     atom:   18    charge:   14.3895    magn:   -1.4998    constr:    0.0000
     atom:   19    charge:   14.3889    magn:    1.5025    constr:    0.0000
     atom:   20    charge:   14.3894    magn:   -1.5031    constr:    0.0000
     atom:   21    charge:   14.3892    magn:    1.5014    constr:    0.0000
     atom:   22    charge:   14.3895    magn:   -1.4992    constr:    0.0000
     atom:   23    charge:   14.3889    magn:    1.5025    constr:    0.0000
     atom:   24    charge:   14.3894    magn:   -1.5031    constr:    0.0000
     atom:   25    charge:   14.3894    magn:    1.5000    constr:    0.0000
     atom:   26    charge:   14.3895    magn:   -1.4998    constr:    0.0000
     atom:   27    charge:   14.3890    magn:    1.5021    constr:    0.0000
     atom:   28    charge:   14.3894    magn:   -1.5031    constr:    0.0000
     atom:   29    charge:   14.3894    magn:    1.5000    constr:    0.0000
     atom:   30    charge:   14.3895    magn:   -1.4992    constr:    0.0000
     atom:   31    charge:   14.3890    magn:    1.5021    constr:    0.0000
     atom:   32    charge:   14.3894    magn:   -1.5031    constr:    0.0000

     total cpu time spent up to now is    11508.7 secs

     End of self-consistent calculation

     Number of k-points >= 100: set verbosity='high' to print the bands.

     the Fermi energy is    20.0795 ev

!    total energy              =  -10536.25183579 Ry
     Harris-Foulkes estimate   =  -10536.25183535 Ry
     estimated scf accuracy    <       0.00000071 Ry

     total all-electron energy =    -81457.740894 Ry

     The total energy is the sum of the following terms:

     one-electron contribution =   -3297.39079196 Ry
     hartree contribution      =    1998.31523131 Ry
     xc contribution           =    -886.93568663 Ry
     ewald contribution        =   -5700.69627834 Ry
     one-center paw contrib.   =   -2649.55981815 Ry
     smearing contrib. (-TS)   =       0.01550798 Ry

     total magnetization       =    -0.00 Bohr mag/cell
     absolute magnetization    =    49.86 Bohr mag/cell

     convergence has been achieved in  34 iterations

     Forces acting on atoms (cartesian axes, Ry/au):

     atom    1 type  1   force =     0.00000000    0.00000000    0.00000000
     atom    2 type  2   force =     0.00004249   -0.00002810    0.00000000
     atom    3 type  3   force =     0.00009006    0.00000000    0.00004155
     atom    4 type  4   force =     0.00000000   -0.00008528   -0.00009408
     atom    5 type  1   force =     0.00000000    0.00000000    0.00000000
     atom    6 type  2   force =     0.00004551   -0.00009538    0.00000000
     atom    7 type  3   force =     0.00009006   -0.00000000   -0.00004155
     atom    8 type  4   force =     0.00000000   -0.00008528    0.00009408
     atom    9 type  1   force =     0.00000000    0.00000000    0.00000000
     atom   10 type  2   force =     0.00004249    0.00002810    0.00000000
     atom   11 type  3   force =     0.00003734    0.00000000   -0.00000231
     atom   12 type  4   force =     0.00000000    0.00008528   -0.00009408
     atom   13 type  1   force =     0.00000000    0.00000000    0.00000000
     atom   14 type  2   force =     0.00004551    0.00009538    0.00000000
     atom   15 type  3   force =     0.00003734   -0.00000000    0.00000231
     atom   16 type  4   force =     0.00000000    0.00008528    0.00009408
     atom   17 type  1   force =     0.00000000    0.00000000    0.00000000
     atom   18 type  2   force =    -0.00004249   -0.00002810    0.00000000
     atom   19 type  3   force =    -0.00009006   -0.00000000    0.00004155
     atom   20 type  4   force =     0.00000000    0.00001786   -0.00003937
     atom   21 type  1   force =     0.00000000    0.00000000    0.00000000
     atom   22 type  2   force =    -0.00004551   -0.00009538    0.00000000
     atom   23 type  3   force =    -0.00009006    0.00000000   -0.00004155
     atom   24 type  4   force =     0.00000000    0.00001786    0.00003937
     atom   25 type  1   force =     0.00000000    0.00000000    0.00000000
     atom   26 type  2   force =    -0.00004249    0.00002810    0.00000000
     atom   27 type  3   force =    -0.00003734   -0.00000000   -0.00000231
     atom   28 type  4   force =     0.00000000   -0.00001786   -0.00003937
     atom   29 type  1   force =     0.00000000    0.00000000    0.00000000
     atom   30 type  2   force =    -0.00004551    0.00009538    0.00000000
     atom   31 type  3   force =    -0.00003734    0.00000000    0.00000231
     atom   32 type  4   force =     0.00000000   -0.00001786    0.00003937

     Total force =     0.000415     Total SCF correction =     0.003182
     SCF correction compared to forces is large: reduce conv_thr to get better values


     Computing stress (Cartesian axis) and pressure

          total   stress  (Ry/bohr**3)                   (kbar)     P=   -3.15
  -0.00001464   0.00000000   0.00000000         -2.15      0.00      0.00
   0.00000000  -0.00003506   0.00000000          0.00     -5.16      0.00
   0.00000000   0.00000000  -0.00001454          0.00      0.00     -2.14


     Writing output data file AynGWSLLTKtNSDUu.save/
-------------------------------------------------------
Primary job  terminated normally, but 1 process returned
a non-zero exit code.. Per user-direction, the job has been aborted.
-------------------------------------------------------
--------------------------------------------------------------------------
mpirun detected that one or more processes exited with non-zero status, thus causing
the job to be terminated. The first process to do so was:

  Process name: [[23266,1],0]
  Exit code:    38
--------------------------------------------------------------------------
