--------------------------------------------------------------------------
WARNING: No preset parameters were found for the device that Open MPI
detected:

  Local host:            bear-pg0206u36b
  Device name:           mlx5_0
  Device vendor ID:      0x02c9
  Device vendor part ID: 4123

Default device parameters will be used, which may result in lower
performance.  You can edit any of the files specified by the
btl_openib_device_param_files MCA parameter to set values for your
device.

NOTE: You can turn off this warning by setting the MCA parameter
      btl_openib_warn_no_device_params_found to 0.
--------------------------------------------------------------------------
--------------------------------------------------------------------------
WARNING: There was an error initializing an OpenFabrics device.

  Local host:   bear-pg0206u36b
  Local device: mlx5_0
--------------------------------------------------------------------------

     Program PWSCF v.6.3 starts on 13Jun2020 at 22:15: 2 

     This program is part of the open-source Quantum ESPRESSO suite
     for quantum simulation of materials; please cite
         "P. Giannozzi et al., J. Phys.:Condens. Matter 21 395502 (2009);
         "P. Giannozzi et al., J. Phys.:Condens. Matter 29 465901 (2017);
          URL http://www.quantum-espresso.org", 
     in publications or presentations arising from this work. More details at
     http://www.quantum-espresso.org/quote

     Parallel version (MPI & OpenMP), running on      20 processor cores
     Number of MPI processes:                20
     Threads/MPI process:                     1

     MPI processes distributed on     1 nodes
     R & G space division:  proc/nbgrp/npool/nimage =      20
     Reading input from wd/eos/eos_003.in
Warning: card &IONS ignored
Warning: card ION_DYNAMICS = 'BFGS', ignored
Warning: card / ignored
Warning: card &CELL ignored
Warning: card CELL_DYNAMICS = 'BFGS', ignored
Warning: card CELL_FACTOR = 2.0, ignored
Warning: card PRESS = 0.0, ignored
Warning: card / ignored

     Current dimensions of program PWSCF are:
     Max number of different atomic species (ntypx) = 10
     Max number of k-points (npk) =  40000
     Max angular momentum in pseudopotentials (lmaxx) =  3
               file Fe.pbe-spn-kjpaw_psl.1.0.0.UPF: wavefunction(s)  3P 3D renormalized
               file Fe.pbe-spn-kjpaw_psl.1.0.0.UPF: wavefunction(s)  3P 3D renormalized

     Subspace diagonalization in iterative solution of the eigenvalue problem:
     a serial algorithm will be used

     Found symmetry operation: I + (  0.0000  0.0000 -0.5000)
     This is a supercell, fractional translations are disabled
 
     Parallelization info
     --------------------
     sticks:   dense  smooth     PW     G-vecs:    dense   smooth      PW
     Min         186     122     34                 8568     4596     690
     Max         187     123     36                 8571     4601     691
     Sum        3729    2453    697               171405    91965   13805
 


     bravais-lattice index     =            0
     lattice parameter (alat)  =      10.5935  a.u.
     unit-cell volume          =    1138.6073 (a.u.)^3
     number of atoms/cell      =           16
     number of atomic types    =            2
     number of electrons       =       256.00
     number of Kohn-Sham states=          154
     kinetic-energy cutoff     =      71.0000  Ry
     charge density cutoff     =     430.0000  Ry
     convergence threshold     =      1.0E-06
     mixing beta               =       0.1000
     number of iterations used =           10  plain     mixing
     Exchange-correlation      = SLA PW PBX PBC ( 1  4  3  4 0 0)

     celldm(1)=  10.593520  celldm(2)=   0.000000  celldm(3)=   0.000000
     celldm(4)=   0.000000  celldm(5)=   0.000000  celldm(6)=   0.000000

     crystal axes: (cart. coord. in units of alat)
               a(1) = (   0.985714   0.000000   0.000000 )  
               a(2) = (   0.000000   0.985714   0.000000 )  
               a(3) = (   0.000000   0.000000   0.985714 )  

     reciprocal axes: (cart. coord. in units 2 pi/alat)
               b(1) = (  1.014493  0.000000  0.000000 )  
               b(2) = (  0.000000  1.014493  0.000000 )  
               b(3) = (  0.000000  0.000000  1.014493 )  


     PseudoPot. # 1 for Fe read from file:
     /rds/homes/b/bxp912/pp/Fe.pbe-spn-kjpaw_psl.1.0.0.UPF
     MD5 check sum: 42f43b795421b414b0dc916aa790dbcb
     Pseudo is Projector augmented-wave + core cor, Zval = 16.0
     Generated using "atomic" code by A. Dal Corso v.6.3
     Shape of augmentation charge: PSQ
     Using radial grid of 1191 points,  6 beta functions with: 
                l(1) =   0
                l(2) =   0
                l(3) =   1
                l(4) =   1
                l(5) =   2
                l(6) =   2
     Q(r) pseudized with 0 coefficients 


     PseudoPot. # 2 for Fe read from file:
     /rds/homes/b/bxp912/pp/Fe.pbe-spn-kjpaw_psl.1.0.0.UPF
     MD5 check sum: 42f43b795421b414b0dc916aa790dbcb
     Pseudo is Projector augmented-wave + core cor, Zval = 16.0
     Generated using "atomic" code by A. Dal Corso v.6.3
     Shape of augmentation charge: PSQ
     Using radial grid of 1191 points,  6 beta functions with: 
                l(1) =   0
                l(2) =   0
                l(3) =   1
                l(4) =   1
                l(5) =   2
                l(6) =   2
     Q(r) pseudized with 0 coefficients 


     atomic species   valence    mass     pseudopotential
        Fe1           16.00    55.84500     Fe( 1.00)
        Fe2           16.00    55.84500     Fe( 1.00)

     Starting magnetic structure 
     atomic species   magnetization
        Fe1          0.100
        Fe2          0.100

     48 Sym. Ops., with inversion, found



   Cartesian axes

     site n.     atom                  positions (alat units)
         1           Fe1 tau(   1) = (   0.0000000   0.0000000   0.0000000  )
         2           Fe2 tau(   2) = (   0.2464290   0.2464290   0.2464290  )
         3           Fe1 tau(   3) = (   0.0000000   0.0000000   0.4928571  )
         4           Fe2 tau(   4) = (   0.2464290   0.2464290   0.7392853  )
         5           Fe1 tau(   5) = (   0.0000000   0.4928571   0.0000000  )
         6           Fe2 tau(   6) = (   0.2464290   0.7392853   0.2464290  )
         7           Fe1 tau(   7) = (   0.0000000   0.4928571   0.4928571  )
         8           Fe2 tau(   8) = (   0.2464290   0.7392853   0.7392853  )
         9           Fe1 tau(   9) = (   0.4928571   0.0000000   0.0000000  )
        10           Fe2 tau(  10) = (   0.7392853   0.2464290   0.2464290  )
        11           Fe1 tau(  11) = (   0.4928571   0.0000000   0.4928571  )
        12           Fe2 tau(  12) = (   0.7392853   0.2464290   0.7392853  )
        13           Fe1 tau(  13) = (   0.4928571   0.4928571   0.0000000  )
        14           Fe2 tau(  14) = (   0.7392853   0.7392853   0.2464290  )
        15           Fe1 tau(  15) = (   0.4928571   0.4928571   0.4928571  )
        16           Fe2 tau(  16) = (   0.7392853   0.7392853   0.7392853  )

     number of k points=    35  Marzari-Vanderbilt smearing, width (Ry)=  0.0400
                       cart. coord. in units 2pi/alat
        k(    1) = (   0.0563607   0.0563607   0.0563607), wk =   0.0109739
        k(    2) = (   0.0563607   0.0563607   0.1690821), wk =   0.0329218
        k(    3) = (   0.0563607   0.0563607   0.2818035), wk =   0.0329218
        k(    4) = (   0.0563607   0.0563607   0.3945250), wk =   0.0329218
        k(    5) = (   0.0563607   0.0563607  -0.5072464), wk =   0.0164609
        k(    6) = (   0.0563607   0.1690821   0.1690821), wk =   0.0329218
        k(    7) = (   0.0563607   0.1690821   0.2818035), wk =   0.0658436
        k(    8) = (   0.0563607   0.1690821   0.3945250), wk =   0.0658436
        k(    9) = (   0.0563607   0.1690821  -0.5072464), wk =   0.0329218
        k(   10) = (   0.0563607   0.2818035   0.2818035), wk =   0.0329218
        k(   11) = (   0.0563607   0.2818035   0.3945250), wk =   0.0658436
        k(   12) = (   0.0563607   0.2818035  -0.5072464), wk =   0.0329218
        k(   13) = (   0.0563607   0.3945250   0.3945250), wk =   0.0329218
        k(   14) = (   0.0563607   0.3945250  -0.5072464), wk =   0.0329218
        k(   15) = (   0.0563607  -0.5072464  -0.5072464), wk =   0.0082305
        k(   16) = (   0.1690821   0.1690821   0.1690821), wk =   0.0109739
        k(   17) = (   0.1690821   0.1690821   0.2818035), wk =   0.0329218
        k(   18) = (   0.1690821   0.1690821   0.3945250), wk =   0.0329218
        k(   19) = (   0.1690821   0.1690821  -0.5072464), wk =   0.0164609
        k(   20) = (   0.1690821   0.2818035   0.2818035), wk =   0.0329218
        k(   21) = (   0.1690821   0.2818035   0.3945250), wk =   0.0658436
        k(   22) = (   0.1690821   0.2818035  -0.5072464), wk =   0.0329218
        k(   23) = (   0.1690821   0.3945250   0.3945250), wk =   0.0329218
        k(   24) = (   0.1690821   0.3945250  -0.5072464), wk =   0.0329218
        k(   25) = (   0.1690821  -0.5072464  -0.5072464), wk =   0.0082305
        k(   26) = (   0.2818035   0.2818035   0.2818035), wk =   0.0109739
        k(   27) = (   0.2818035   0.2818035   0.3945250), wk =   0.0329218
        k(   28) = (   0.2818035   0.2818035  -0.5072464), wk =   0.0164609
        k(   29) = (   0.2818035   0.3945250   0.3945250), wk =   0.0329218
        k(   30) = (   0.2818035   0.3945250  -0.5072464), wk =   0.0329218
        k(   31) = (   0.2818035  -0.5072464  -0.5072464), wk =   0.0082305
        k(   32) = (   0.3945250   0.3945250   0.3945250), wk =   0.0109739
        k(   33) = (   0.3945250   0.3945250  -0.5072464), wk =   0.0164609
        k(   34) = (   0.3945250  -0.5072464  -0.5072464), wk =   0.0082305
        k(   35) = (  -0.5072464  -0.5072464  -0.5072464), wk =   0.0013717

     Dense  grid:   171405 G-vectors     FFT dimensions: (  72,  72,  72)

     Smooth grid:    91965 G-vectors     FFT dimensions: (  60,  60,  60)

     Estimated max dynamical RAM per process >     148.00 MB

     Estimated total dynamical RAM >       2.89 GB
     Generating pointlists ...
     new r_m :   0.1761 (alat units)  1.8652 (a.u.) for type    1
     new r_m :   0.1761 (alat units)  1.8652 (a.u.) for type    2

     Check: negative/imaginary core charge=   -0.000006    0.000000

     Initial potential from superposition of free atoms

     starting charge  255.99300, renormalised to  256.00000
     Starting wfcs are  160 randomized atomic wfcs
     Checking if some PAW data can be deallocated... 

     total cpu time spent up to now is        8.9 secs

     Self-consistent Calculation

     iteration #  1     ecut=    71.00 Ry     beta= 0.10
     Davidson diagonalization with overlap
     ethr =  1.00E-02,  avg # of iterations =  3.3

     Threshold (ethr) on eigenvalues was too large:
     Diagonalizing with lowered threshold

     Davidson diagonalization with overlap
     ethr =  2.18E-04,  avg # of iterations =  3.3

     total cpu time spent up to now is       66.5 secs

     total energy              =   -5267.96453728 Ry
     Harris-Foulkes estimate   =   -5268.02419472 Ry
     estimated scf accuracy    <       0.63829725 Ry

     total magnetization       =    27.22 Bohr mag/cell
     absolute magnetization    =    27.31 Bohr mag/cell

     iteration #  2     ecut=    71.00 Ry     beta= 0.10
     Davidson diagonalization with overlap
     ethr =  2.49E-04,  avg # of iterations =  1.0

     total cpu time spent up to now is       84.3 secs

     total energy              =   -5267.93404427 Ry
     Harris-Foulkes estimate   =   -5267.97689890 Ry
     estimated scf accuracy    <       0.36171887 Ry

     total magnetization       =    27.85 Bohr mag/cell
     absolute magnetization    =    27.97 Bohr mag/cell

     iteration #  3     ecut=    71.00 Ry     beta= 0.10
     Davidson diagonalization with overlap
     ethr =  1.41E-04,  avg # of iterations =  3.2

     total cpu time spent up to now is      114.4 secs

     total energy              =   -5268.00140267 Ry
     Harris-Foulkes estimate   =   -5268.00539463 Ry
     estimated scf accuracy    <       0.31434643 Ry

     total magnetization       =    29.19 Bohr mag/cell
     absolute magnetization    =    29.47 Bohr mag/cell

     iteration #  4     ecut=    71.00 Ry     beta= 0.10
     Davidson diagonalization with overlap
     ethr =  1.23E-04,  avg # of iterations =  1.0

     total cpu time spent up to now is      132.3 secs

     total energy              =   -5268.01678551 Ry
     Harris-Foulkes estimate   =   -5268.00912217 Ry
     estimated scf accuracy    <       0.10428582 Ry

     total magnetization       =    29.38 Bohr mag/cell
     absolute magnetization    =    29.67 Bohr mag/cell

     iteration #  5     ecut=    71.00 Ry     beta= 0.10
     Davidson diagonalization with overlap
     ethr =  4.07E-05,  avg # of iterations =  1.6

     total cpu time spent up to now is      152.0 secs

     total energy              =   -5268.09133655 Ry
     Harris-Foulkes estimate   =   -5268.02119195 Ry
     estimated scf accuracy    <       0.09187187 Ry

     total magnetization       =    29.43 Bohr mag/cell
     absolute magnetization    =    29.77 Bohr mag/cell

     iteration #  6     ecut=    71.00 Ry     beta= 0.10
     Davidson diagonalization with overlap
     ethr =  3.59E-05,  avg # of iterations =  3.2

     negative rho (up, down):  0.000E+00 2.784E-03

     total cpu time spent up to now is      182.2 secs

     total energy              =   -5268.11285615 Ry
     Harris-Foulkes estimate   =   -5268.11930572 Ry
     estimated scf accuracy    <       0.17669187 Ry

     total magnetization       =    30.11 Bohr mag/cell
     absolute magnetization    =    30.73 Bohr mag/cell

     iteration #  7     ecut=    71.00 Ry     beta= 0.10
     Davidson diagonalization with overlap
     ethr =  3.59E-05,  avg # of iterations =  2.9

     negative rho (up, down):  0.000E+00 1.608E-03

     total cpu time spent up to now is      211.0 secs

     total energy              =   -5268.14670467 Ry
     Harris-Foulkes estimate   =   -5268.15229544 Ry
     estimated scf accuracy    <       0.01159018 Ry

     total magnetization       =    31.52 Bohr mag/cell
     absolute magnetization    =    32.84 Bohr mag/cell

     iteration #  8     ecut=    71.00 Ry     beta= 0.10
     Davidson diagonalization with overlap
     ethr =  4.53E-06,  avg # of iterations =  2.4

     negative rho (up, down):  0.000E+00 1.752E-03

     total cpu time spent up to now is      235.4 secs

     total energy              =   -5268.15036144 Ry
     Harris-Foulkes estimate   =   -5268.14816918 Ry
     estimated scf accuracy    <       0.00807918 Ry

     total magnetization       =    31.47 Bohr mag/cell
     absolute magnetization    =    32.64 Bohr mag/cell

     iteration #  9     ecut=    71.00 Ry     beta= 0.10
     Davidson diagonalization with overlap
     ethr =  3.16E-06,  avg # of iterations =  1.5

     negative rho (up, down):  0.000E+00 2.116E-03

     total cpu time spent up to now is      255.1 secs

     total energy              =   -5268.15327262 Ry
     Harris-Foulkes estimate   =   -5268.15067039 Ry
     estimated scf accuracy    <       0.00495866 Ry

     total magnetization       =    31.61 Bohr mag/cell
     absolute magnetization    =    32.86 Bohr mag/cell

     iteration # 10     ecut=    71.00 Ry     beta= 0.10
     Davidson diagonalization with overlap
     ethr =  1.94E-06,  avg # of iterations =  3.2

     negative rho (up, down):  0.000E+00 1.917E-03

     total cpu time spent up to now is      283.0 secs

     total energy              =   -5268.15450608 Ry
     Harris-Foulkes estimate   =   -5268.15437685 Ry
     estimated scf accuracy    <       0.00096335 Ry

     total magnetization       =    31.91 Bohr mag/cell
     absolute magnetization    =    33.34 Bohr mag/cell

     iteration # 11     ecut=    71.00 Ry     beta= 0.10
     Davidson diagonalization with overlap
     ethr =  3.76E-07,  avg # of iterations =  1.5

     negative rho (up, down):  0.000E+00 2.022E-03

     total cpu time spent up to now is      302.6 secs

     total energy              =   -5268.15487820 Ry
     Harris-Foulkes estimate   =   -5268.15454637 Ry
     estimated scf accuracy    <       0.00076469 Ry

     total magnetization       =    31.93 Bohr mag/cell
     absolute magnetization    =    33.36 Bohr mag/cell

     iteration # 12     ecut=    71.00 Ry     beta= 0.10
     Davidson diagonalization with overlap
     ethr =  2.99E-07,  avg # of iterations =  3.1

     negative rho (up, down):  0.000E+00 2.125E-03

     total cpu time spent up to now is      331.9 secs

     total energy              =   -5268.15516223 Ry
     Harris-Foulkes estimate   =   -5268.15516757 Ry
     estimated scf accuracy    <       0.00022451 Ry

     total magnetization       =    32.11 Bohr mag/cell
     absolute magnetization    =    33.63 Bohr mag/cell

     iteration # 13     ecut=    71.00 Ry     beta= 0.10
     Davidson diagonalization with overlap
     ethr =  8.77E-08,  avg # of iterations =  2.5

     negative rho (up, down):  0.000E+00 2.191E-03

     total cpu time spent up to now is      355.3 secs

     total energy              =   -5268.15517199 Ry
     Harris-Foulkes estimate   =   -5268.15518467 Ry
     estimated scf accuracy    <       0.00008233 Ry

     total magnetization       =    32.15 Bohr mag/cell
     absolute magnetization    =    33.69 Bohr mag/cell

     iteration # 14     ecut=    71.00 Ry     beta= 0.10
     Davidson diagonalization with overlap
     ethr =  3.22E-08,  avg # of iterations =  2.6

     negative rho (up, down):  0.000E+00 2.180E-03

     total cpu time spent up to now is      382.2 secs

     total energy              =   -5268.15518663 Ry
     Harris-Foulkes estimate   =   -5268.15519304 Ry
     estimated scf accuracy    <       0.00008873 Ry

     total magnetization       =    32.18 Bohr mag/cell
     absolute magnetization    =    33.73 Bohr mag/cell

     iteration # 15     ecut=    71.00 Ry     beta= 0.10
     Davidson diagonalization with overlap
     ethr =  3.22E-08,  avg # of iterations =  2.3

     negative rho (up, down):  0.000E+00 2.202E-03

     total cpu time spent up to now is      405.5 secs

     total energy              =   -5268.15520747 Ry
     Harris-Foulkes estimate   =   -5268.15519629 Ry
     estimated scf accuracy    <       0.00002895 Ry

     total magnetization       =    32.19 Bohr mag/cell
     absolute magnetization    =    33.75 Bohr mag/cell

     iteration # 16     ecut=    71.00 Ry     beta= 0.10
     Davidson diagonalization with overlap
     ethr =  1.13E-08,  avg # of iterations =  2.1

     negative rho (up, down):  0.000E+00 2.196E-03

     total cpu time spent up to now is      427.0 secs

     total energy              =   -5268.15521713 Ry
     Harris-Foulkes estimate   =   -5268.15521018 Ry
     estimated scf accuracy    <       0.00001268 Ry

     total magnetization       =    32.19 Bohr mag/cell
     absolute magnetization    =    33.75 Bohr mag/cell

     iteration # 17     ecut=    71.00 Ry     beta= 0.10
     Davidson diagonalization with overlap
     ethr =  4.95E-09,  avg # of iterations =  3.1

     negative rho (up, down):  0.000E+00 2.204E-03

     total cpu time spent up to now is      454.8 secs

     total energy              =   -5268.15522008 Ry
     Harris-Foulkes estimate   =   -5268.15522075 Ry
     estimated scf accuracy    <       0.00000521 Ry

     total magnetization       =    32.18 Bohr mag/cell
     absolute magnetization    =    33.73 Bohr mag/cell

     iteration # 18     ecut=    71.00 Ry     beta= 0.10
     Davidson diagonalization with overlap
     ethr =  2.04E-09,  avg # of iterations =  2.8

     negative rho (up, down):  0.000E+00 2.221E-03
 
     Magnetic moment per site:
     atom:    1    charge:   14.3316    magn:    2.0459    constr:    0.0000
     atom:    2    charge:   14.3313    magn:    2.0477    constr:    0.0000
     atom:    3    charge:   14.3314    magn:    2.0466    constr:    0.0000
     atom:    4    charge:   14.3313    magn:    2.0477    constr:    0.0000
     atom:    5    charge:   14.3314    magn:    2.0466    constr:    0.0000
     atom:    6    charge:   14.3313    magn:    2.0477    constr:    0.0000
     atom:    7    charge:   14.3313    magn:    2.0470    constr:    0.0000
     atom:    8    charge:   14.3313    magn:    2.0477    constr:    0.0000
     atom:    9    charge:   14.3314    magn:    2.0466    constr:    0.0000
     atom:   10    charge:   14.3313    magn:    2.0477    constr:    0.0000
     atom:   11    charge:   14.3313    magn:    2.0470    constr:    0.0000
     atom:   12    charge:   14.3313    magn:    2.0477    constr:    0.0000
     atom:   13    charge:   14.3313    magn:    2.0470    constr:    0.0000
     atom:   14    charge:   14.3313    magn:    2.0477    constr:    0.0000
     atom:   15    charge:   14.3313    magn:    2.0472    constr:    0.0000
     atom:   16    charge:   14.3313    magn:    2.0477    constr:    0.0000

     total cpu time spent up to now is      480.9 secs

     End of self-consistent calculation

 ------ SPIN UP ------------


          k = 0.0564 0.0564 0.0564 ( 11483 PWs)   bands (ev):

   -68.1010 -68.0099 -68.0099 -68.0098 -67.9951 -67.9951 -67.9951 -67.9937
   -67.9937 -67.9937 -67.9932 -67.9932 -67.9931 -67.9874 -67.9861 -67.9164
   -34.3568 -34.3568 -34.3568 -34.3539 -34.3539 -34.3539 -34.2040 -34.2040
   -34.1980 -34.1317 -34.1285 -34.1285 -34.1285 -34.1092 -34.1092 -34.0957
   -34.0957 -34.0957 -34.0626 -34.0626 -34.0391 -34.0255 -34.0255 -34.0255
   -34.0147 -34.0147 -34.0147 -34.0031 -34.0030 -34.0030 -33.9999 -33.9999
   -33.9999 -33.9923 -33.9923 -33.9923 -33.9823 -33.9823 -33.9823 -33.8299
   -33.8287 -33.8287 -33.8287 -33.8258 -33.8258 -33.8258 -33.8237 -33.8237
    11.1221  14.6995  14.6995  14.6995  14.7185  14.7185  14.7185  14.7275
    14.7275  14.8170  14.8171  14.8171  15.2232  15.2232  15.2232  16.4176
    16.4255  16.4255  16.4255  16.4391  16.4391  16.4391  16.5082  16.5082
    16.5842  16.5842  16.5842  16.6617  16.6617  16.7215  16.9474  16.9475
    16.9475  17.6435  17.6435  17.6881  17.9868  17.9868  17.9868  18.0717
    18.0717  18.0717  18.1708  18.1708  18.1708  18.2575  18.2575  18.2575
    18.9376  18.9377  18.9377  18.9604  18.9604  19.0009  19.0009  19.0009
    19.0540  19.0540  19.0540  19.0612  19.0612  19.0612  19.1746  19.1746
    19.1746  19.1892  19.1893  19.1893  19.2317  19.2317  19.2331  19.2331
    20.1307  20.1307  20.1307  20.1514  20.1514  20.1514  20.3074  20.3576
    20.3577  20.3577  20.3788  20.3788  20.7495  20.7496  20.7496  20.9166
    20.9166  20.9166

          k = 0.0564 0.0564 0.1691 ( 11471 PWs)   bands (ev):

   -68.0979 -68.0262 -68.0092 -68.0092 -67.9968 -67.9968 -67.9946 -67.9935
   -67.9935 -67.9927 -67.9924 -67.9924 -67.9878 -67.9865 -67.9782 -67.9187
   -34.3493 -34.3493 -34.3483 -34.3457 -34.3409 -34.3409 -34.2069 -34.1979
   -34.1886 -34.1658 -34.1576 -34.1575 -34.1556 -34.1552 -34.1262 -34.1261
   -34.0941 -34.0683 -34.0587 -34.0583 -34.0474 -34.0254 -34.0254 -34.0164
   -34.0082 -34.0063 -34.0063 -34.0046 -34.0042 -33.9974 -33.9974 -33.9928
   -33.9928 -33.9884 -33.9884 -33.9599 -33.9570 -33.9569 -33.9505 -33.8448
   -33.8373 -33.8373 -33.8359 -33.8333 -33.8292 -33.8286 -33.8286 -33.8263
    11.2581  14.2622  14.7222  14.7222  14.7803  14.7803  14.7875  14.7922
    14.7974  14.8152  14.8644  14.8644  15.2592  15.2593  15.4407  16.2263
    16.3049  16.4071  16.4117  16.4239  16.4324  16.4732  16.4732  16.5137
    16.5137  16.5430  16.5662  16.5662  16.8725  16.8729  16.8945  16.8945
    17.2967  17.6202  17.6402  17.7475  17.7806  17.7807  17.8418  17.9425
    17.9531  17.9532  18.1987  18.1987  18.3307  18.3307  18.3956  18.4914
    18.5863  18.5863  18.7060  18.8743  18.8743  18.8956  18.9361  18.9865
    19.0073  19.0074  19.0681  19.0704  19.0907  19.0907  19.1550  19.1550
    19.1920  19.2264  19.2288  19.2292  19.2325  19.3852  19.3852  19.4100
    19.4910  19.7597  19.7691  20.0704  20.0704  20.1495  20.1737  20.1737
    20.2541  20.3715  20.4861  20.4861  20.7928  20.7928  20.8130  20.8130
    21.2248  21.2248

          k = 0.0564 0.0564 0.2818 ( 11497 PWs)   bands (ev):

   -68.0917 -68.0422 -68.0079 -68.0078 -67.9989 -67.9989 -67.9937 -67.9931
   -67.9931 -67.9920 -67.9920 -67.9919 -67.9887 -67.9873 -67.9638 -67.9235
   -34.3323 -34.3323 -34.3317 -34.3297 -34.3187 -34.3187 -34.2075 -34.2045
   -34.1993 -34.1967 -34.1967 -34.1859 -34.1764 -34.1749 -34.1672 -34.1672
   -34.0906 -34.0801 -34.0788 -34.0641 -34.0236 -34.0236 -34.0186 -34.0177
   -34.0139 -34.0100 -34.0099 -33.9956 -33.9956 -33.9930 -33.9930 -33.9735
   -33.9665 -33.9558 -33.9558 -33.9294 -33.9261 -33.9261 -33.9206 -33.8679
   -33.8515 -33.8515 -33.8500 -33.8486 -33.8404 -33.8373 -33.8373 -33.8356
    11.5259  13.6326  14.7790  14.7791  14.8804  14.8804  14.9060  14.9133
    14.9271  14.9271  14.9856  15.0008  15.2861  15.2861  15.4835  15.8872
    16.1487  16.2013  16.3505  16.3874  16.3975  16.4052  16.5797  16.5797
    16.6031  16.6031  16.6467  16.6467  16.8828  16.8828  17.1333  17.1448
    17.5034  17.5034  17.5751  17.6068  17.6358  17.6595  17.6595  17.7347
    17.8365  17.9112  18.0871  18.0871  18.3540  18.3540  18.3995  18.3995
    18.4536  18.4536  18.4863  18.6625  18.7074  18.7678  18.7684  18.8754
    18.9348  18.9348  19.0257  19.0257  19.0386  19.0937  19.1099  19.1968
    19.2130  19.2159  19.2246  19.2320  19.4026  19.4367  19.4367  19.5085
    19.6367  19.6594  19.6594  19.9098  20.0275  20.0986  20.0986  20.2186
    20.2186  20.3038  20.4652  20.4652  20.6575  20.6575  20.9294  20.9294
    21.3306  21.3306

          k = 0.0564 0.0564 0.3945 ( 11498 PWs)   bands (ev):

   -68.0826 -68.0573 -68.0060 -68.0059 -68.0013 -68.0013 -67.9927 -67.9926
   -67.9925 -67.9919 -67.9919 -67.9908 -67.9899 -67.9884 -67.9509 -67.9305
   -34.3077 -34.3067 -34.3067 -34.3064 -34.2883 -34.2883 -34.2425 -34.2404
   -34.2367 -34.2367 -34.2103 -34.2103 -34.2058 -34.1913 -34.1686 -34.1569
   -34.1201 -34.1082 -34.0650 -34.0537 -34.0327 -34.0267 -34.0210 -34.0210
   -34.0137 -34.0137 -33.9943 -33.9943 -33.9930 -33.9930 -33.9755 -33.9343
   -33.9304 -33.9239 -33.9239 -33.9013 -33.8986 -33.8968 -33.8968 -33.8934
   -33.8711 -33.8708 -33.8708 -33.8708 -33.8565 -33.8519 -33.8518 -33.8502
    11.9167  12.9994  14.8554  14.8554  14.9556  14.9556  15.0080  15.0080
    15.0740  15.0803  15.2480  15.2480  15.2487  15.2593  15.4008  15.5774
    15.8820  15.8940  16.3303  16.3480  16.3594  16.3677  16.7403  16.7403
    16.7776  16.7776  16.8317  16.8317  16.9932  16.9932  17.2440  17.2440
    17.3653  17.3653  17.4691  17.4778  17.5852  17.5852  17.6060  17.6359
    17.6533  17.6633  17.8050  17.8050  17.9563  18.0911  18.2847  18.2997
    18.3452  18.5836  18.5914  18.5914  18.6075  18.6075  18.8393  18.8393
    18.9293  18.9293  18.9647  19.0781  19.1140  19.1266  19.1318  19.1915
    19.1932  19.2036  19.2181  19.2336  19.2783  19.3386  19.6127  19.7086
    19.7086  19.7332  19.8470  19.9276  19.9276  20.0630  20.0630  20.1880
    20.2879  20.2879  20.3475  20.3476  20.5135  20.5135  21.0771  21.0771
    21.3223  21.3223

          k = 0.0564 0.0564-0.5072 ( 11492 PWs)   bands (ev):

   -68.0710 -68.0708 -68.0038 -68.0038 -68.0037 -68.0036 -67.9922 -67.9922
   -67.9921 -67.9920 -67.9912 -67.9912 -67.9898 -67.9895 -67.9398 -67.9396
   -34.2771 -34.2770 -34.2769 -34.2768 -34.2741 -34.2741 -34.2741 -34.2741
   -34.2516 -34.2516 -34.2516 -34.2515 -34.2007 -34.2006 -34.1466 -34.1464
   -34.1345 -34.1344 -34.0488 -34.0486 -34.0406 -34.0405 -34.0175 -34.0175
   -34.0173 -34.0173 -33.9935 -33.9935 -33.9934 -33.9934 -33.9352 -33.9351
   -33.8998 -33.8996 -33.8981 -33.8980 -33.8951 -33.8951 -33.8951 -33.8951
   -33.8769 -33.8768 -33.8718 -33.8718 -33.8718 -33.8717 -33.8696 -33.8695
    12.4155  12.4156  14.9253  14.9254  14.9254  14.9254  15.1421  15.1421
    15.1422  15.1422  15.2487  15.2487  15.3060  15.3060  15.5624  15.5624
    15.5655  15.5656  16.3368  16.3369  16.3458  16.3459  16.9419  16.9419
    16.9419  16.9419  17.0172  17.0172  17.0172  17.0172  17.1870  17.1870
    17.1870  17.1870  17.3523  17.3523  17.3523  17.3523  17.6227  17.6227
    17.6441  17.6442  17.8680  17.8682  17.8738  17.8739  18.1066  18.1067
    18.3503  18.3503  18.7233  18.7233  18.7233  18.7234  18.7891  18.7891
    18.7891  18.7891  19.1617  19.1618  19.1628  19.1629  19.2108  19.2108
    19.2124  19.2125  19.2435  19.2436  19.2885  19.2886  19.4068  19.4070
    19.9291  19.9292  19.9292  19.9292  20.0332  20.0333  20.1628  20.1628
    20.1628  20.1628  20.3851  20.3852  20.3852  20.3852  21.2225  21.2226
    21.2226  21.2226

          k = 0.0564 0.1691 0.1691 ( 11492 PWs)   bands (ev):

   -68.0948 -68.0251 -68.0250 -68.0085 -68.0013 -67.9963 -67.9963 -67.9933
   -67.9920 -67.9920 -67.9888 -67.9884 -67.9867 -67.9785 -67.9784 -67.9210
   -34.3474 -34.3412 -34.3412 -34.3337 -34.3337 -34.3228 -34.2132 -34.1942
   -34.1875 -34.1831 -34.1831 -34.1759 -34.1739 -34.1690 -34.1460 -34.1038
   -34.0894 -34.0894 -34.0579 -34.0578 -34.0578 -34.0307 -34.0203 -34.0203
   -34.0155 -34.0125 -34.0125 -34.0024 -34.0024 -33.9986 -33.9967 -33.9892
   -33.9784 -33.9678 -33.9611 -33.9611 -33.9388 -33.9268 -33.9268 -33.8641
   -33.8514 -33.8432 -33.8432 -33.8358 -33.8357 -33.8340 -33.8257 -33.8243
    11.3925  14.3297  14.3297  14.6945  14.8215  14.8215  14.8464  14.8566
    14.8728  14.8762  14.8762  14.9202  15.3072  15.4773  15.4773  16.2039
    16.2335  16.2335  16.3140  16.4562  16.4563  16.4848  16.4922  16.4922
    16.4933  16.5286  16.6097  16.6143  16.8239  16.8730  16.8843  17.1921
    17.1921  17.5630  17.6260  17.6473  17.6473  17.7028  17.8311  17.8462
    18.1198  18.1198  18.1642  18.1642  18.1938  18.2429  18.3780  18.5074
    18.5074  18.5113  18.5113  18.7933  18.7933  18.8861  18.9207  18.9265
    18.9265  18.9322  18.9676  19.0238  19.0238  19.0843  19.0843  19.1690
    19.2180  19.2254  19.2271  19.2371  19.2992  19.4962  19.4973  19.5859
    19.5860  19.6117  19.6118  19.7519  19.7519  19.9400  19.9862  19.9863
    20.1611  20.2339  20.3969  20.5646  20.5982  20.9139  21.4794  21.4794
    21.6917  21.6917

          k = 0.0564 0.1691 0.2818 ( 11483 PWs)   bands (ev):

   -68.0887 -68.0406 -68.0228 -68.0071 -68.0061 -67.9984 -67.9953 -67.9928
   -67.9916 -67.9913 -67.9895 -67.9874 -67.9857 -67.9790 -67.9645 -67.9256
   -34.3360 -34.3254 -34.3252 -34.3195 -34.3130 -34.2958 -34.2189 -34.2188
   -34.2153 -34.2051 -34.2029 -34.2017 -34.1828 -34.1777 -34.1558 -34.1319
   -34.0934 -34.0891 -34.0547 -34.0541 -34.0518 -34.0486 -34.0323 -34.0245
   -34.0243 -34.0173 -34.0112 -34.0008 -33.9987 -33.9866 -33.9818 -33.9643
   -33.9632 -33.9492 -33.9411 -33.9312 -33.9149 -33.8987 -33.8986 -33.8917
   -33.8703 -33.8548 -33.8545 -33.8498 -33.8446 -33.8428 -33.8284 -33.8277
    11.6570  13.7207  14.4422  14.6861  14.8799  14.9582  14.9760  14.9811
    14.9969  14.9986  15.0125  15.0596  15.3559  15.4927  15.5267  15.9139
    16.0892  16.1762  16.3116  16.4101  16.4268  16.4554  16.5014  16.5289
    16.5538  16.5721  16.6111  16.7722  16.7754  17.0380  17.0738  17.1237
    17.3940  17.4123  17.5109  17.5114  17.5559  17.6110  17.6163  17.7504
    17.8586  17.9730  18.0244  18.1282  18.2555  18.3215  18.3653  18.4032
    18.4150  18.4877  18.4947  18.5186  18.5412  18.7034  18.7457  18.7911
    18.8287  18.9546  19.0072  19.0233  19.0557  19.0784  19.0873  19.2006
    19.2102  19.2125  19.2266  19.2470  19.3283  19.4505  19.4752  19.4869
    19.6195  19.6579  19.6642  19.6971  19.7392  19.8268  19.8727  19.9413
    20.0703  20.3567  20.3631  20.3815  20.5838  21.0972  21.2690  21.8721
    21.9024  22.1978

          k = 0.0564 0.1691 0.3945 ( 11500 PWs)   bands (ev):

   -68.0798 -68.0552 -68.0195 -68.0109 -68.0053 -68.0007 -67.9940 -67.9924
   -67.9916 -67.9909 -67.9903 -67.9882 -67.9832 -67.9799 -67.9521 -67.9324
   -34.3159 -34.3025 -34.3015 -34.2992 -34.2849 -34.2614 -34.2551 -34.2452
   -34.2396 -34.2386 -34.2216 -34.2145 -34.2139 -34.1768 -34.1658 -34.1342
   -34.1182 -34.0817 -34.0771 -34.0485 -34.0472 -34.0404 -34.0333 -34.0306
   -34.0234 -34.0224 -34.0064 -33.9999 -33.9993 -33.9754 -33.9663 -33.9530
   -33.9290 -33.9259 -33.9200 -33.9149 -33.9039 -33.8940 -33.8917 -33.8740
   -33.8730 -33.8715 -33.8710 -33.8706 -33.8600 -33.8547 -33.8378 -33.8372
    12.0422  13.1042  14.5593  14.6771  14.9567  15.0441  15.1035  15.1166
    15.1440  15.1522  15.2785  15.3130  15.3358  15.4274  15.4489  15.6204
    15.8891  15.9162  16.3617  16.3926  16.4047  16.4150  16.5270  16.6525
    16.6920  16.7057  16.7593  16.8171  16.9773  17.0843  17.2501  17.3039
    17.3246  17.3285  17.3578  17.3868  17.4784  17.4833  17.5415  17.5452
    17.5622  17.5942  17.7389  17.9176  18.0287  18.1054  18.1235  18.2525
    18.4916  18.5892  18.6001  18.6084  18.6209  18.6348  18.7041  18.7379
    18.8627  18.9243  18.9755  19.0273  19.0837  19.0976  19.1092  19.1744
    19.1819  19.2272  19.2529  19.2679  19.3123  19.3494  19.4124  19.4795
    19.5346  19.6125  19.6540  19.7288  19.7428  19.8196  20.0210  20.0497
    20.1227  20.1269  20.3082  20.4910  20.5593  21.0392  21.3293  21.7741
    22.0852  22.3392

          k = 0.0564 0.1691-0.5072 ( 11512 PWs)   bands (ev):

   -68.0686 -68.0684 -68.0155 -68.0154 -68.0032 -68.0030 -67.9925 -67.9925
   -67.9920 -67.9918 -67.9894 -67.9892 -67.9814 -67.9812 -67.9413 -67.9412
   -34.2883 -34.2883 -34.2740 -34.2739 -34.2736 -34.2734 -34.2719 -34.2719
   -34.2514 -34.2514 -34.2210 -34.2210 -34.2201 -34.2201 -34.1441 -34.1440
   -34.1093 -34.1092 -34.0587 -34.0586 -34.0414 -34.0413 -34.0361 -34.0360
   -34.0271 -34.0270 -33.9997 -33.9996 -33.9705 -33.9703 -33.9647 -33.9646
   -33.9217 -33.9217 -33.8974 -33.8972 -33.8937 -33.8936 -33.8913 -33.8913
   -33.8800 -33.8799 -33.8713 -33.8713 -33.8534 -33.8534 -33.8522 -33.8522
    12.5326  12.5326  14.6412  14.6413  15.0238  15.0239  15.2366  15.2367
    15.2959  15.2959  15.2970  15.2970  15.3642  15.3642  15.5935  15.5935
    15.6063  15.6063  16.3655  16.3656  16.3885  16.3885  16.8249  16.8249
    16.8256  16.8257  16.8633  16.8633  16.8862  16.8862  17.2564  17.2564
    17.2815  17.2815  17.3658  17.3659  17.4691  17.4691  17.4776  17.4776
    17.5752  17.5753  17.6878  17.6879  17.6922  17.6924  18.2968  18.2968
    18.4438  18.4438  18.6560  18.6560  18.7499  18.7499  18.7811  18.7811
    18.8181  18.8182  19.0215  19.0216  19.1416  19.1417  19.1424  19.1425
    19.1842  19.1843  19.2324  19.2324  19.3133  19.3133  19.3386  19.3388
    19.5783  19.5783  19.6970  19.6970  19.8857  19.8857  19.9571  19.9572
    20.1846  20.1847  20.3338  20.3338  20.7957  20.7957  21.5690  21.5690
    22.2690  22.2690

          k = 0.0564 0.2818 0.2818 ( 11499 PWs)   bands (ev):

   -68.0828 -68.0374 -68.0373 -68.0134 -68.0059 -67.9973 -67.9973 -67.9924
   -67.9910 -67.9910 -67.9908 -67.9877 -67.9801 -67.9661 -67.9660 -67.9298
   -34.3302 -34.3116 -34.3116 -34.3020 -34.3020 -34.2649 -34.2341 -34.2340
   -34.2306 -34.2303 -34.2214 -34.2184 -34.1978 -34.1722 -34.1326 -34.0943
   -34.0915 -34.0915 -34.0836 -34.0836 -34.0501 -34.0402 -34.0388 -34.0307
   -34.0307 -34.0181 -34.0181 -34.0099 -34.0099 -34.0047 -33.9691 -33.9421
   -33.9351 -33.9350 -33.9280 -33.9244 -33.9218 -33.8997 -33.8935 -33.8740
   -33.8740 -33.8622 -33.8622 -33.8543 -33.8539 -33.8539 -33.8253 -33.8245
    11.9143  13.8816  13.8816  14.5862  15.0551  15.0729  15.0729  15.1097
    15.1137  15.1275  15.1577  15.1577  15.4522  15.5474  15.5474  16.0264
    16.0264  16.0287  16.0998  16.4543  16.4576  16.5087  16.5087  16.5292
    16.5503  16.5503  16.6225  16.6689  16.9535  16.9908  17.0502  17.2698
    17.2698  17.3610  17.3610  17.3696  17.4148  17.4348  17.5057  17.5779
    17.8868  17.8869  18.0383  18.0383  18.0990  18.0991  18.1431  18.2929
    18.3751  18.3752  18.4864  18.5714  18.6885  18.6886  18.7306  18.7938
    18.9846  18.9864  18.9865  18.9937  18.9937  19.0296  19.0296  19.0591
    19.1329  19.1746  19.1907  19.2374  19.2714  19.3579  19.4444  19.4444
    19.4519  19.4520  19.5129  19.6728  19.7316  19.7352  19.7353  20.0657
    20.0658  20.1173  20.4308  20.6099  20.6196  21.3775  21.9368  21.9368
    22.5926  22.5926

          k = 0.0564 0.2818 0.3945 ( 11493 PWs)   bands (ev):

   -68.0744 -68.0512 -68.0327 -68.0205 -68.0041 -67.9996 -67.9959 -67.9925
   -67.9919 -67.9910 -67.9902 -67.9883 -67.9753 -67.9683 -67.9544 -67.9361
   -34.3157 -34.2922 -34.2915 -34.2865 -34.2786 -34.2656 -34.2487 -34.2434
   -34.2423 -34.2418 -34.2393 -34.2266 -34.2234 -34.1561 -34.1376 -34.1110
   -34.1068 -34.0839 -34.0753 -34.0523 -34.0494 -34.0485 -34.0480 -34.0439
   -34.0433 -34.0370 -34.0218 -34.0097 -34.0082 -33.9837 -33.9629 -33.9581
   -33.9408 -33.9206 -33.9162 -33.9095 -33.9068 -33.9029 -33.8844 -33.8733
   -33.8724 -33.8702 -33.8686 -33.8613 -33.8535 -33.8527 -33.8284 -33.8279
    12.2874  13.3035  14.0846  14.4587  15.1487  15.1896  15.1970  15.2640
    15.2835  15.2968  15.3392  15.4048  15.4805  15.4849  15.4961  15.7595
    15.9070  15.9266  16.2635  16.4181  16.4575  16.4602  16.4843  16.4960
    16.6107  16.6448  16.6451  16.7264  16.9704  17.0706  17.1408  17.1886
    17.1951  17.2756  17.3192  17.3392  17.3458  17.3618  17.4385  17.4927
    17.5392  17.5949  17.6772  17.7344  17.7729  17.8485  18.3328  18.3792
    18.4535  18.6093  18.6356  18.6413  18.6598  18.6873  18.7116  18.7596
    18.9044  18.9099  18.9313  18.9567  19.0256  19.0350  19.0465  19.0543
    19.1375  19.1546  19.1867  19.2538  19.2616  19.2644  19.3114  19.3340
    19.3983  19.4600  19.5124  19.5161  19.5351  19.7080  19.7679  19.8637
    20.2283  20.2840  20.4199  20.5653  20.9383  21.6156  21.7108  22.3586
    22.6348  23.2626

          k = 0.0564 0.2818-0.5072 ( 11500 PWs)   bands (ev):

   -68.0638 -68.0636 -68.0271 -68.0270 -68.0020 -68.0019 -67.9943 -67.9942
   -67.9915 -67.9913 -67.9893 -67.9891 -67.9715 -67.9713 -67.9444 -67.9443
   -34.2936 -34.2936 -34.2684 -34.2683 -34.2683 -34.2682 -34.2679 -34.2678
   -34.2515 -34.2515 -34.2433 -34.2432 -34.1835 -34.1835 -34.1356 -34.1355
   -34.0788 -34.0788 -34.0673 -34.0672 -34.0649 -34.0648 -34.0417 -34.0417
   -34.0341 -34.0339 -34.0094 -34.0093 -34.0048 -34.0047 -33.9509 -33.9509
   -33.9486 -33.9485 -33.8915 -33.8914 -33.8882 -33.8881 -33.8872 -33.8871
   -33.8860 -33.8860 -33.8715 -33.8715 -33.8380 -33.8380 -33.8375 -33.8374
    12.7592  12.7593  14.2884  14.2885  15.2057  15.2057  15.3434  15.3434
    15.3930  15.3931  15.4102  15.4103  15.5155  15.5155  15.6445  15.6446
    15.6780  15.6780  16.4184  16.4185  16.4410  16.4411  16.5915  16.5916
    16.6289  16.6290  16.6697  16.6697  16.8791  16.8791  17.2914  17.2915
    17.2971  17.2972  17.3235  17.3236  17.4147  17.4148  17.4292  17.4293
    17.4638  17.4638  17.4965  17.4965  17.5087  17.5087  18.5363  18.5364
    18.5841  18.5841  18.6286  18.6287  18.6927  18.6927  18.7953  18.7953
    18.8057  18.8057  18.8086  18.8086  19.0940  19.0941  19.1039  19.1040
    19.1326  19.1327  19.1715  19.1716  19.2760  19.2760  19.2805  19.2806
    19.3826  19.3826  19.5386  19.5386  19.5927  19.5927  19.7485  19.7485
    20.3496  20.3496  20.4546  20.4546  21.2786  21.2786  22.0509  22.0509
    23.3472  23.3473

          k = 0.0564 0.3945 0.3945 ( 11522 PWs)   bands (ev):

   -68.0666 -68.0454 -68.0454 -68.0297 -68.0024 -67.9981 -67.9981 -67.9944
   -67.9913 -67.9904 -67.9903 -67.9888 -67.9684 -67.9579 -67.9579 -67.9417
   -34.3073 -34.2784 -34.2784 -34.2703 -34.2703 -34.2686 -34.2686 -34.2545
   -34.2542 -34.2520 -34.2509 -34.2366 -34.1860 -34.1416 -34.1005 -34.1004
   -34.0943 -34.0943 -34.0818 -34.0773 -34.0705 -34.0547 -34.0547 -34.0530
   -34.0397 -34.0214 -34.0213 -34.0154 -34.0151 -34.0151 -34.0047 -33.9502
   -33.9425 -33.9179 -33.9178 -33.9000 -33.8944 -33.8914 -33.8812 -33.8781
   -33.8767 -33.8767 -33.8711 -33.8711 -33.8378 -33.8377 -33.8250 -33.8246
    12.6400  13.5750  13.5751  14.1905  15.2868  15.3545  15.3624  15.4063
    15.4063  15.4725  15.4725  15.4975  15.5203  15.5203  15.6168  15.8687
    15.8907  15.9971  15.9971  16.4107  16.4404  16.4530  16.5217  16.5217
    16.5262  16.5262  16.5423  16.6324  16.7998  17.0698  17.0823  17.0823
    17.1365  17.2209  17.2485  17.2890  17.3700  17.3700  17.3918  17.3918
    17.4044  17.4044  17.4337  17.4854  17.6423  18.0438  18.0438  18.5591
    18.6332  18.6473  18.6473  18.6845  18.7298  18.7584  18.7711  18.7711
    18.7825  18.9101  18.9658  18.9658  18.9749  18.9749  19.0113  19.0407
    19.0408  19.0842  19.0898  19.1086  19.1938  19.1938  19.2160  19.2873
    19.3634  19.3974  19.3974  19.4840  19.5672  19.5672  19.6000  19.6368
    20.4024  20.4024  20.4761  20.5752  21.3587  22.1417  22.2195  22.2195
    22.9901  22.9901

          k = 0.0564 0.3945-0.5072 ( 11514 PWs)   bands (ev):

   -68.0569 -68.0567 -68.0382 -68.0380 -68.0003 -68.0002 -67.9963 -67.9962
   -67.9908 -67.9906 -67.9896 -67.9895 -67.9627 -67.9625 -67.9491 -67.9489
   -34.2910 -34.2910 -34.2644 -34.2643 -34.2641 -34.2640 -34.2639 -34.2638
   -34.2618 -34.2617 -34.2528 -34.2527 -34.1411 -34.1411 -34.1228 -34.1227
   -34.0867 -34.0866 -34.0709 -34.0709 -34.0567 -34.0567 -34.0494 -34.0494
   -34.0465 -34.0465 -34.0321 -34.0320 -34.0196 -34.0196 -33.9820 -33.9819
   -33.9291 -33.9289 -33.8980 -33.8979 -33.8843 -33.8843 -33.8841 -33.8840
   -33.8824 -33.8824 -33.8735 -33.8734 -33.8282 -33.8282 -33.8281 -33.8281
    13.0794  13.0795  13.8845  13.8846  15.3905  15.3905  15.4310  15.4311
    15.4329  15.4329  15.6197  15.6198  15.6776  15.6776  15.7370  15.7370
    15.7556  15.7556  16.2978  16.2978  16.4486  16.4486  16.4564  16.4565
    16.4678  16.4678  16.5335  16.5335  16.9204  16.9204  17.1330  17.1330
    17.1871  17.1872  17.2246  17.2246  17.2266  17.2267  17.2457  17.2457
    17.4424  17.4424  17.4700  17.4700  17.7234  17.7234  18.3515  18.3516
    18.6720  18.6721  18.7151  18.7151  18.8004  18.8004  18.8089  18.8089
    18.8512  18.8512  18.8844  18.8844  18.9722  18.9724  19.0222  19.0223
    19.0459  19.0459  19.0722  19.0722  19.1175  19.1176  19.3265  19.3266
    19.3305  19.3305  19.4405  19.4405  19.4433  19.4433  19.5987  19.5987
    20.4691  20.4691  20.5208  20.5208  21.7911  21.7912  22.5795  22.5795
    22.8345  22.8346

          k = 0.0564-0.5072-0.5072 ( 11512 PWs)   bands (ev):

   -68.0483 -68.0482 -68.0482 -68.0480 -67.9985 -67.9984 -67.9984 -67.9982
   -67.9902 -67.9901 -67.9901 -67.9899 -67.9552 -67.9551 -67.9551 -67.9549
   -34.2807 -34.2807 -34.2807 -34.2807 -34.2623 -34.2622 -34.2622 -34.2622
   -34.2563 -34.2563 -34.2563 -34.2562 -34.1063 -34.1062 -34.1062 -34.1061
   -34.0955 -34.0955 -34.0955 -34.0955 -34.0675 -34.0675 -34.0674 -34.0674
   -34.0277 -34.0277 -34.0276 -34.0276 -34.0140 -34.0140 -34.0140 -34.0140
   -33.9120 -33.9119 -33.9119 -33.9117 -33.8818 -33.8817 -33.8817 -33.8817
   -33.8780 -33.8779 -33.8779 -33.8779 -33.8249 -33.8248 -33.8248 -33.8248
    13.4669  13.4670  13.4670  13.4671  15.4264  15.4264  15.4264  15.4265
    15.6171  15.6171  15.6171  15.6172  15.7635  15.7635  15.7635  15.7636
    16.0055  16.0055  16.0055  16.0055  16.4086  16.4086  16.4086  16.4087
    16.4657  16.4657  16.4657  16.4657  17.0070  17.0070  17.0070  17.0070
    17.1392  17.1393  17.1393  17.1394  17.1861  17.1862  17.1862  17.1863
    17.4339  17.4340  17.4340  17.4341  18.0230  18.0231  18.0231  18.0231
    18.7930  18.7931  18.7931  18.7932  18.8039  18.8039  18.8039  18.8039
    18.9350  18.9351  18.9351  18.9351  18.9699  18.9700  18.9700  18.9700
    19.0473  19.0474  19.0474  19.0475  19.0624  19.0624  19.0624  19.0624
    19.3808  19.3809  19.3809  19.3809  19.5039  19.5039  19.5039  19.5039
    20.5269  20.5269  20.5269  20.5269  22.3135  22.3136  22.3136  22.3136
    23.1176  23.1176

          k = 0.1691 0.1691 0.1691 ( 11536 PWs)   bands (ev):

   -68.0918 -68.0239 -68.0239 -68.0238 -68.0008 -68.0008 -68.0007 -67.9897
   -67.9885 -67.9885 -67.9885 -67.9864 -67.9788 -67.9788 -67.9787 -67.9232
   -34.3392 -34.3391 -34.3391 -34.3171 -34.3171 -34.3171 -34.2070 -34.2070
   -34.2065 -34.1990 -34.1990 -34.1990 -34.1558 -34.1494 -34.1494 -34.1106
   -34.1106 -34.1106 -34.0648 -34.0648 -34.0648 -34.0233 -34.0233 -34.0233
   -34.0132 -34.0132 -33.9978 -33.9978 -33.9978 -33.9934 -33.9934 -33.9934
   -33.9633 -33.9633 -33.9633 -33.9559 -33.9115 -33.9115 -33.9115 -33.8836
   -33.8548 -33.8548 -33.8548 -33.8336 -33.8335 -33.8335 -33.8301 -33.8301
    11.5255  14.4025  14.4025  14.4025  14.7979  14.7979  14.7979  14.9125
    14.9125  14.9663  14.9663  14.9663  15.5300  15.5301  15.5301  16.1194
    16.2211  16.2211  16.2211  16.4055  16.4055  16.4763  16.4763  16.4763
    16.5830  16.5830  16.5830  16.7820  16.7820  16.7962  17.0813  17.0813
    17.0813  17.5507  17.5507  17.5839  17.5839  17.5840  17.9570  17.9788
    17.9788  17.9788  18.1292  18.1292  18.1292  18.1870  18.1870  18.1870
    18.5771  18.5771  18.5771  18.8125  18.8125  18.8125  18.9164  18.9164
    18.9511  18.9511  18.9511  19.1032  19.1033  19.1033  19.1557  19.1557
    19.1557  19.1719  19.1719  19.1719  19.2128  19.2128  19.2381  19.2381
    19.6873  19.6987  19.6987  19.6988  19.7686  19.7687  19.7687  20.2111
    20.2111  20.2111  20.2724  20.2724  21.1201  21.1201  21.1201  21.8219
    21.8219  21.8219

          k = 0.1691 0.1691 0.2818 ( 11493 PWs)   bands (ev):

   -68.0857 -68.0390 -68.0217 -68.0216 -68.0054 -68.0053 -67.9995 -67.9916
   -67.9881 -67.9862 -67.9856 -67.9855 -67.9793 -67.9792 -67.9652 -67.9277
   -34.3282 -34.3282 -34.3229 -34.3057 -34.2919 -34.2919 -34.2271 -34.2248
   -34.2248 -34.2175 -34.2148 -34.1948 -34.1928 -34.1444 -34.1444 -34.1346
   -34.1277 -34.0970 -34.0709 -34.0657 -34.0657 -34.0382 -34.0343 -34.0343
   -34.0272 -34.0208 -34.0000 -33.9853 -33.9853 -33.9708 -33.9692 -33.9692
   -33.9661 -33.9661 -33.9320 -33.9317 -33.9123 -33.8910 -33.8910 -33.8868
   -33.8708 -33.8708 -33.8623 -33.8482 -33.8408 -33.8355 -33.8354 -33.8301
    11.7870  13.8119  14.5254  14.5254  14.7935  14.7935  14.9974  15.0227
    15.0360  15.0893  15.0893  15.1443  15.5723  15.5723  15.5899  15.9208
    16.0396  16.2654  16.2654  16.2761  16.3664  16.4468  16.5295  16.5508
    16.5508  16.6112  16.7206  16.7207  16.8890  16.9835  16.9835  16.9995
    17.2721  17.4124  17.4124  17.4782  17.4871  17.5285  17.7063  17.7063
    17.7318  17.7318  17.9922  18.1051  18.1720  18.2239  18.3139  18.3139
    18.3736  18.3736  18.3964  18.6290  18.6290  18.8177  18.8298  18.8720
    18.8720  18.8964  18.9753  19.0049  19.0500  19.0500  19.0824  19.1779
    19.1922  19.2075  19.2237  19.2642  19.2880  19.2880  19.3102  19.3102
    19.3809  19.4747  19.8324  19.8325  19.8398  19.8462  19.8463  19.8924
    20.0470  20.2883  20.2883  20.3137  20.8183  20.8183  21.7977  22.0477
    22.0477  22.6573

          k = 0.1691 0.1691 0.3945 ( 11506 PWs)   bands (ev):

   -68.0771 -68.0532 -68.0184 -68.0184 -68.0100 -68.0100 -67.9978 -67.9937
   -67.9875 -67.9864 -67.9833 -67.9832 -67.9801 -67.9800 -67.9531 -67.9342
   -34.3094 -34.3094 -34.2992 -34.2897 -34.2601 -34.2601 -34.2546 -34.2546
   -34.2488 -34.2332 -34.2246 -34.2240 -34.1833 -34.1833 -34.1770 -34.1274
   -34.1108 -34.1049 -34.0617 -34.0617 -34.0584 -34.0567 -34.0451 -34.0451
   -34.0289 -34.0215 -34.0086 -33.9786 -33.9786 -33.9692 -33.9692 -33.9475
   -33.9405 -33.9405 -33.9325 -33.9092 -33.9035 -33.8908 -33.8908 -33.8739
   -33.8712 -33.8712 -33.8701 -33.8655 -33.8573 -33.8424 -33.8424 -33.8366
    12.1672  13.2106  14.6554  14.6554  14.7864  14.7864  15.1844  15.1990
    15.2368  15.2368  15.2771  15.3871  15.5207  15.5209  15.5209  15.6408
    15.8982  15.9651  16.3605  16.4111  16.4532  16.4532  16.4723  16.4726
    16.6718  16.6718  16.8681  16.8681  16.9303  16.9303  17.1594  17.2529
    17.2851  17.2851  17.3103  17.3103  17.3882  17.4267  17.4274  17.4733
    17.4733  17.4970  17.7829  17.7859  17.7859  17.9342  18.2767  18.3458
    18.4230  18.5916  18.5916  18.6741  18.6741  18.6776  18.6797  18.7952
    18.7952  18.9472  18.9472  19.0506  19.0572  19.0699  19.0992  19.1222
    19.1643  19.1853  19.1886  19.2007  19.2904  19.3143  19.3812  19.3812
    19.4233  19.4233  19.5730  19.7572  20.0010  20.0011  20.0125  20.0125
    20.0631  20.2608  20.2608  20.2858  20.5345  20.5345  22.3152  22.3152
    22.5146  22.7062

          k = 0.1691 0.1691-0.5072 ( 11512 PWs)   bands (ev):

   -68.0662 -68.0661 -68.0145 -68.0145 -68.0144 -68.0144 -67.9958 -67.9957
   -67.9870 -67.9868 -67.9815 -67.9815 -67.9814 -67.9813 -67.9428 -67.9426
   -34.2841 -34.2841 -34.2840 -34.2840 -34.2700 -34.2699 -34.2692 -34.2690
   -34.2269 -34.2268 -34.2229 -34.2229 -34.2229 -34.2229 -34.1543 -34.1542
   -34.0846 -34.0846 -34.0812 -34.0811 -34.0546 -34.0546 -34.0545 -34.0544
   -34.0167 -34.0166 -33.9872 -33.9872 -33.9733 -33.9733 -33.9732 -33.9732
   -33.9143 -33.9143 -33.9143 -33.9143 -33.8984 -33.8983 -33.8896 -33.8895
   -33.8785 -33.8783 -33.8547 -33.8547 -33.8547 -33.8546 -33.8488 -33.8487
    12.6500  12.6501  14.7471  14.7471  14.7472  14.7472  15.3738  15.3738
    15.3914  15.3914  15.3914  15.3915  15.3926  15.3926  15.6122  15.6122
    15.6595  15.6595  16.3790  16.3790  16.4384  16.4384  16.7500  16.7500
    16.7500  16.7500  16.8194  16.8194  16.8194  16.8194  17.2498  17.2498
    17.2498  17.2498  17.4078  17.4078  17.4079  17.4079  17.4080  17.4080
    17.4542  17.4543  17.5153  17.5155  17.5241  17.5242  18.4694  18.4694
    18.5114  18.5114  18.7230  18.7230  18.7281  18.7281  18.7281  18.7281
    18.7910  18.7910  18.7910  18.7910  19.1310  19.1311  19.1349  19.1350
    19.1598  19.1599  19.1934  19.1934  19.4078  19.4078  19.4318  19.4319
    19.4319  19.4319  19.4390  19.4392  20.1602  20.1602  20.1602  20.1602
    20.1984  20.1985  20.2554  20.2554  20.2554  20.2554  22.5610  22.5611
    22.5611  22.5611

          k = 0.1691 0.2818 0.2818 ( 11510 PWs)   bands (ev):

   -68.0801 -68.0358 -68.0358 -68.0194 -68.0125 -68.0039 -68.0039 -67.9941
   -67.9855 -67.9854 -67.9852 -67.9802 -67.9797 -67.9667 -67.9666 -67.9317
   -34.3223 -34.3130 -34.3130 -34.2845 -34.2845 -34.2633 -34.2389 -34.2374
   -34.2374 -34.2373 -34.2242 -34.2017 -34.1917 -34.1668 -34.1383 -34.1100
   -34.1058 -34.1058 -34.0980 -34.0979 -34.0755 -34.0520 -34.0520 -34.0514
   -34.0072 -33.9981 -33.9981 -33.9907 -33.9907 -33.9714 -33.9699 -33.9554
   -33.9462 -33.9437 -33.9353 -33.9353 -33.9141 -33.8906 -33.8797 -33.8728
   -33.8728 -33.8700 -33.8700 -33.8492 -33.8491 -33.8479 -33.8328 -33.8305
    12.0420  13.9790  13.9790  14.6698  14.6997  15.0006  15.0007  15.1251
    15.1615  15.2190  15.2645  15.2645  15.6387  15.6387  15.6815  16.0044
    16.0044  16.0087  16.2281  16.2284  16.4134  16.5128  16.5128  16.6006
    16.6349  16.6349  16.6365  16.7748  16.8512  16.8769  16.9596  17.1352
    17.1352  17.3326  17.3392  17.3406  17.3406  17.3921  17.4731  17.5511
    17.6129  17.6129  17.8863  17.8863  17.9784  17.9784  18.0549  18.2850
    18.4070  18.4070  18.4700  18.7242  18.7999  18.8273  18.8317  18.8317
    18.9475  18.9475  18.9526  19.0143  19.0337  19.0337  19.0514  19.1364
    19.1468  19.1468  19.1675  19.2016  19.2240  19.2244  19.2244  19.2929
    19.3772  19.4700  19.4700  19.8395  19.9330  19.9512  19.9512  20.0204
    20.0204  20.0514  20.3057  20.3784  20.4750  21.4101  21.4101  22.3422
    23.1899  23.1899

          k = 0.1691 0.2818 0.3945 ( 11513 PWs)   bands (ev):

   -68.0719 -68.0493 -68.0313 -68.0194 -68.0164 -68.0084 -68.0019 -67.9968
   -67.9852 -67.9850 -67.9832 -67.9804 -67.9756 -67.9688 -67.9554 -67.9378
   -34.3083 -34.2967 -34.2909 -34.2745 -34.2633 -34.2579 -34.2554 -34.2505
   -34.2423 -34.2343 -34.2315 -34.2279 -34.1960 -34.1760 -34.1463 -34.1276
   -34.1227 -34.0918 -34.0835 -34.0781 -34.0749 -34.0670 -34.0646 -34.0642
   -34.0269 -34.0054 -33.9974 -33.9838 -33.9809 -33.9739 -33.9681 -33.9591
   -33.9410 -33.9249 -33.9239 -33.9136 -33.9074 -33.8987 -33.8868 -33.8779
   -33.8693 -33.8691 -33.8628 -33.8541 -33.8530 -33.8529 -33.8350 -33.8327
    12.4114  13.4129  14.1904  14.5750  14.8291  14.9958  15.2636  15.2910
    15.3374  15.3566  15.4119  15.4999  15.5728  15.5931  15.6874  15.7616
    15.9366  15.9866  16.2335  16.3347  16.4046  16.4669  16.5224  16.5430
    16.6124  16.6993  16.7122  16.7744  16.9202  16.9345  16.9951  17.0976
    17.1094  17.2181  17.2303  17.2711  17.2813  17.3102  17.3268  17.3615
    17.4243  17.4693  17.5476  17.5957  17.6013  17.6638  18.1052  18.4888
    18.4985  18.6088  18.6283  18.7110  18.7453  18.7575  18.7887  18.7920
    18.8922  18.9314  18.9361  18.9428  19.0139  19.0367  19.0520  19.0880
    19.1309  19.1697  19.1883  19.2018  19.2075  19.2505  19.2739  19.2976
    19.3608  19.3836  19.5950  19.6746  19.6759  19.8766  19.9723  20.1641
    20.1679  20.1711  20.3102  20.3583  20.3751  21.0495  22.0446  22.6879
    23.2655  23.3590

          k = 0.1691 0.2818-0.5072 ( 11508 PWs)   bands (ev):

   -68.0615 -68.0614 -68.0258 -68.0257 -68.0127 -68.0125 -67.9995 -67.9994
   -67.9851 -67.9849 -67.9816 -67.9815 -67.9719 -67.9717 -67.9458 -67.9456
   -34.2879 -34.2879 -34.2765 -34.2764 -34.2631 -34.2630 -34.2629 -34.2628
   -34.2409 -34.2409 -34.2273 -34.2273 -34.1880 -34.1880 -34.1541 -34.1540
   -34.0997 -34.0996 -34.0810 -34.0809 -34.0740 -34.0739 -34.0556 -34.0556
   -34.0219 -34.0219 -34.0028 -34.0026 -33.9782 -33.9781 -33.9490 -33.9488
   -33.9397 -33.9397 -33.9038 -33.9038 -33.8949 -33.8948 -33.8866 -33.8865
   -33.8830 -33.8829 -33.8596 -33.8596 -33.8420 -33.8420 -33.8403 -33.8403
    12.8773  12.8774  14.4018  14.4019  14.9462  14.9463  15.4261  15.4262
    15.4879  15.4880  15.5407  15.5407  15.5676  15.5676  15.6366  15.6366
    15.7513  15.7513  16.4255  16.4255  16.4852  16.4853  16.5589  16.5589
    16.5794  16.5794  16.7132  16.7133  16.8376  16.8376  17.2147  17.2147
    17.2348  17.2350  17.2559  17.2559  17.2692  17.2692  17.2878  17.2878
    17.3344  17.3344  17.3711  17.3712  17.3790  17.3790  18.3869  18.3870
    18.6200  18.6200  18.7139  18.7140  18.7549  18.7550  18.7913  18.7913
    18.7949  18.7949  18.8423  18.8424  19.0892  19.0893  19.1151  19.1152
    19.1221  19.1222  19.2030  19.2030  19.2381  19.2381  19.3536  19.3536
    19.3783  19.3784  19.4827  19.4827  19.8694  19.8695  19.9347  19.9348
    20.2638  20.2638  20.2991  20.2991  20.6990  20.6990  22.6969  22.6970
    23.0207  23.0207

          k = 0.1691 0.3945 0.3945 ( 11503 PWs)   bands (ev):

   -68.0643 -68.0436 -68.0436 -68.0283 -68.0136 -68.0060 -68.0060 -68.0000
   -67.9841 -67.9833 -67.9832 -67.9810 -67.9689 -67.9588 -67.9587 -67.9431
   -34.2994 -34.2792 -34.2792 -34.2639 -34.2638 -34.2593 -34.2552 -34.2552
   -34.2517 -34.2474 -34.2406 -34.2136 -34.1898 -34.1635 -34.1235 -34.1194
   -34.1194 -34.1054 -34.1054 -34.0904 -34.0876 -34.0876 -34.0876 -34.0549
   -34.0202 -33.9983 -33.9965 -33.9964 -33.9892 -33.9892 -33.9788 -33.9418
   -33.9392 -33.9154 -33.9153 -33.9081 -33.9076 -33.8909 -33.8845 -33.8845
   -33.8757 -33.8680 -33.8680 -33.8676 -33.8414 -33.8414 -33.8322 -33.8309
    12.7621  13.6886  13.6887  14.3101  15.0363  15.2845  15.2845  15.3648
    15.4555  15.5333  15.5652  15.5652  15.6426  15.6426  15.8368  15.8816
    15.9626  16.0009  16.0010  16.2677  16.4491  16.4818  16.5428  16.5429
    16.5575  16.5575  16.6304  16.6622  16.7728  16.8517  17.0411  17.0413
    17.0413  17.1316  17.1915  17.2082  17.2082  17.2400  17.2654  17.2654
    17.2685  17.2822  17.2822  17.3651  17.4644  17.7944  17.7944  18.3702
    18.6644  18.6644  18.7208  18.7264  18.7744  18.7910  18.8934  18.9048
    18.9646  18.9646  18.9727  18.9728  18.9963  19.0019  19.0019  19.0785
    19.0915  19.1520  19.1521  19.1633  19.2161  19.2581  19.2581  19.2744
    19.2744  19.3476  19.4253  19.4602  19.7218  19.7219  19.7823  19.8527
    20.2842  20.2842  20.3475  20.4095  20.7591  21.6044  21.6044  22.7592
    23.1211  23.9100

          k = 0.1691 0.3945-0.5072 ( 11506 PWs)   bands (ev):

   -68.0548 -68.0547 -68.0366 -68.0364 -68.0101 -68.0099 -68.0033 -68.0031
   -67.9836 -67.9835 -67.9820 -67.9818 -67.9633 -67.9632 -67.9502 -67.9501
   -34.2840 -34.2840 -34.2676 -34.2675 -34.2592 -34.2591 -34.2581 -34.2581
   -34.2532 -34.2531 -34.2341 -34.2340 -34.1481 -34.1481 -34.1440 -34.1438
   -34.1094 -34.1093 -34.1056 -34.1055 -34.0936 -34.0935 -34.0625 -34.0625
   -34.0257 -34.0257 -33.9943 -33.9943 -33.9836 -33.9835 -33.9670 -33.9670
   -33.9270 -33.9269 -33.8945 -33.8945 -33.8935 -33.8934 -33.8870 -33.8869
   -33.8860 -33.8860 -33.8672 -33.8672 -33.8342 -33.8342 -33.8336 -33.8336
    13.1983  13.1984  14.0024  14.0025  15.2060  15.2061  15.4751  15.4751
    15.5259  15.5259  15.6099  15.6099  15.7620  15.7620  15.7885  15.7886
    15.8662  15.8662  16.3017  16.3017  16.4105  16.4105  16.4569  16.4570
    16.4826  16.4827  16.6042  16.6042  16.8890  16.8890  17.0055  17.0056
    17.1004  17.1005  17.1014  17.1014  17.1102  17.1103  17.1515  17.1515
    17.3153  17.3154  17.3226  17.3227  17.5110  17.5110  18.0564  18.0564
    18.7386  18.7386  18.8116  18.8116  18.8493  18.8494  18.8523  18.8524
    18.9597  18.9597  18.9812  18.9812  19.0183  19.0184  19.0634  19.0635
    19.0988  19.0989  19.1122  19.1122  19.2077  19.2078  19.2343  19.2344
    19.3068  19.3068  19.5394  19.5394  19.5522  19.5522  19.7422  19.7422
    20.3437  20.3437  20.3748  20.3748  21.1774  21.1775  22.1763  22.1764
    23.5521  23.5521

          k = 0.1691-0.5072-0.5072 ( 11508 PWs)   bands (ev):

   -68.0464 -68.0463 -68.0463 -68.0461 -68.0069 -68.0068 -68.0068 -68.0066
   -67.9826 -67.9825 -67.9825 -67.9823 -67.9562 -67.9561 -67.9561 -67.9559
   -34.2735 -34.2735 -34.2735 -34.2735 -34.2607 -34.2606 -34.2606 -34.2605
   -34.2433 -34.2433 -34.2433 -34.2432 -34.1272 -34.1271 -34.1271 -34.1270
   -34.1069 -34.1068 -34.1068 -34.1068 -34.1053 -34.1053 -34.1053 -34.1053
   -33.9960 -33.9960 -33.9959 -33.9959 -33.9888 -33.9887 -33.9887 -33.9887
   -33.9084 -33.9083 -33.9083 -33.9082 -33.8884 -33.8884 -33.8884 -33.8883
   -33.8770 -33.8769 -33.8769 -33.8769 -33.8314 -33.8314 -33.8314 -33.8314
    13.5861  13.5862  13.5862  13.5863  15.4593  15.4594  15.4594  15.4594
    15.5151  15.5151  15.5151  15.5151  15.9299  15.9299  15.9299  15.9300
    16.0248  16.0248  16.0248  16.0248  16.3529  16.3529  16.3529  16.3529
    16.5283  16.5283  16.5283  16.5283  16.9746  16.9747  16.9747  16.9748
    16.9769  16.9769  16.9769  16.9769  17.0902  17.0903  17.0903  17.0904
    17.2956  17.2956  17.2956  17.2957  17.7572  17.7572  17.7572  17.7572
    18.8166  18.8166  18.8166  18.8166  18.9322  18.9323  18.9323  18.9323
    19.0138  19.0138  19.0138  19.0139  19.0437  19.0437  19.0437  19.0438
    19.0489  19.0490  19.0490  19.0490  19.2616  19.2616  19.2616  19.2616
    19.2694  19.2695  19.2695  19.2695  19.6134  19.6135  19.6135  19.6135
    20.3877  20.3877  20.3877  20.3877  21.6717  21.6718  21.6718  21.6718
    24.0946  24.0946

          k = 0.2818 0.2818 0.2818 ( 11506 PWs)   bands (ev):

   -68.0747 -68.0329 -68.0329 -68.0328 -68.0106 -68.0106 -68.0105 -67.9977
   -67.9835 -67.9804 -67.9804 -67.9803 -67.9679 -67.9679 -67.9679 -67.9355
   -34.3067 -34.3066 -34.3066 -34.2599 -34.2599 -34.2599 -34.2455 -34.2455
   -34.2455 -34.2445 -34.2114 -34.2114 -34.1805 -34.1805 -34.1311 -34.1310
   -34.1310 -34.1097 -34.1096 -34.1096 -34.0834 -34.0725 -34.0725 -34.0725
   -33.9742 -33.9738 -33.9738 -33.9738 -33.9726 -33.9725 -33.9725 -33.9663
   -33.9663 -33.9373 -33.9372 -33.9372 -33.9019 -33.8869 -33.8869 -33.8869
   -33.8637 -33.8637 -33.8637 -33.8471 -33.8471 -33.8471 -33.8421 -33.8421
    12.2922  14.1588  14.1588  14.1588  14.9202  14.9202  14.9202  15.2556
    15.2556  15.3924  15.3924  15.3924  15.7789  15.7789  15.7789  15.9945
    15.9945  15.9945  16.0207  16.4054  16.4054  16.4488  16.5619  16.5619
    16.5619  16.7521  16.7521  16.7521  16.7689  16.7689  16.9991  16.9991
    16.9991  17.2364  17.2364  17.2365  17.2769  17.2769  17.2769  17.3490
    17.3490  17.6271  17.6271  17.6271  17.6980  17.6980  17.6980  18.4879
    18.5129  18.5129  18.5129  18.7038  18.8906  18.8906  18.9136  18.9136
    18.9136  18.9371  18.9371  18.9371  19.0105  19.0105  19.0105  19.1428
    19.1428  19.1428  19.1640  19.1640  19.2626  19.2626  19.2626  19.2858
    19.2858  19.6230  19.6230  19.6230  19.9895  19.9895  19.9895  20.0681
    20.0681  20.0681  20.0819  20.0819  20.9841  20.9841  20.9841  23.3635
    23.4927  23.4927

          k = 0.2818 0.2818 0.3945 ( 11537 PWs)   bands (ev):

   -68.0669 -68.0455 -68.0286 -68.0286 -68.0172 -68.0172 -68.0080 -68.0013
   -67.9822 -67.9807 -67.9761 -67.9761 -67.9699 -67.9699 -67.9574 -67.9411
   -34.2939 -34.2939 -34.2839 -34.2598 -34.2597 -34.2563 -34.2487 -34.2463
   -34.2302 -34.2302 -34.2282 -34.2196 -34.1930 -34.1627 -34.1627 -34.1552
   -34.1412 -34.1119 -34.1118 -34.0994 -34.0915 -34.0909 -34.0909 -34.0558
   -34.0109 -34.0000 -33.9763 -33.9734 -33.9602 -33.9602 -33.9476 -33.9476
   -33.9417 -33.9417 -33.9286 -33.9073 -33.9040 -33.9040 -33.8929 -33.8853
   -33.8684 -33.8590 -33.8571 -33.8570 -33.8514 -33.8480 -33.8480 -33.8403
    12.6532  13.6213  14.3885  14.3885  14.8003  14.8003  15.2325  15.3921
    15.4263  15.5325  15.5325  15.6246  15.7411  15.7699  15.7782  15.7782
    16.0083  16.0295  16.1719  16.1720  16.4250  16.5130  16.5772  16.6183
    16.6503  16.6503  16.6685  16.7931  16.7931  16.8826  16.8826  16.9145
    17.0235  17.0235  17.1168  17.1415  17.1415  17.1816  17.1840  17.2478
    17.2881  17.3222  17.3761  17.3761  17.3776  17.3776  17.7883  18.3567
    18.5976  18.6610  18.6610  18.7186  18.8039  18.9072  18.9072  18.9358
    18.9358  18.9567  18.9568  18.9774  19.0374  19.0400  19.1226  19.1495
    19.1514  19.1607  19.1619  19.1619  19.1995  19.2395  19.2582  19.2582
    19.2891  19.3903  19.7797  19.7988  19.9196  19.9197  20.0140  20.0141
    20.0987  20.0987  20.1018  20.1580  20.6102  20.6102  21.5480  22.7375
    23.8432  23.8432

          k = 0.2818 0.2818-0.5072 ( 11518 PWs)   bands (ev):

   -68.0571 -68.0570 -68.0233 -68.0233 -68.0232 -68.0231 -68.0050 -68.0048
   -67.9813 -67.9811 -67.9727 -67.9727 -67.9726 -67.9725 -67.9485 -67.9483
   -34.2772 -34.2771 -34.2771 -34.2771 -34.2543 -34.2542 -34.2527 -34.2526
   -34.2402 -34.2401 -34.1967 -34.1967 -34.1967 -34.1967 -34.1693 -34.1691
   -34.1276 -34.1275 -34.1047 -34.1047 -34.1047 -34.1047 -34.0506 -34.0506
   -34.0275 -34.0275 -33.9766 -33.9765 -33.9494 -33.9494 -33.9493 -33.9493
   -33.9243 -33.9243 -33.9243 -33.9243 -33.8960 -33.8959 -33.8872 -33.8871
   -33.8813 -33.8812 -33.8513 -33.8513 -33.8513 -33.8513 -33.8434 -33.8433
    13.1059  13.1060  14.6184  14.6184  14.6185  14.6185  15.5660  15.5660
    15.6044  15.6044  15.6137  15.6137  15.6692  15.6692  15.6693  15.6693
    15.8653  15.8653  16.4638  16.4639  16.4860  16.4860  16.4860  16.4861
    16.5290  16.5290  16.7654  16.7654  16.7654  16.7654  16.9723  16.9724
    17.0573  17.0574  17.1583  17.1583  17.1583  17.1583  17.1719  17.1719
    17.1720  17.1720  17.1891  17.1891  17.2110  17.2111  18.0409  18.0409
    18.7012  18.7012  18.8112  18.8112  18.8112  18.8112  18.9295  18.9295
    18.9295  18.9295  18.9658  18.9658  19.0780  19.0781  19.0841  19.0841
    19.1544  19.1544  19.1558  19.1559  19.2140  19.2140  19.2141  19.2141
    19.4945  19.4946  19.5519  19.5520  20.0679  20.0680  20.0680  20.0680
    20.1620  20.1621  20.2579  20.2579  20.2579  20.2580  22.1350  22.1351
    24.1428  24.1428

          k = 0.2818 0.3945 0.3945 ( 11523 PWs)   bands (ev):

   -68.0597 -68.0402 -68.0401 -68.0257 -68.0247 -68.0141 -68.0140 -68.0060
   -67.9799 -67.9769 -67.9769 -67.9716 -67.9699 -67.9605 -67.9605 -67.9460
   -34.2844 -34.2732 -34.2732 -34.2587 -34.2563 -34.2562 -34.2446 -34.2339
   -34.2338 -34.2338 -34.2238 -34.1974 -34.1896 -34.1845 -34.1639 -34.1428
   -34.1427 -34.1261 -34.1253 -34.1253 -34.1185 -34.1184 -34.1143 -34.0468
   -34.0274 -33.9727 -33.9726 -33.9601 -33.9601 -33.9597 -33.9440 -33.9398
   -33.9274 -33.9244 -33.9158 -33.9125 -33.9125 -33.8958 -33.8958 -33.8902
   -33.8678 -33.8668 -33.8668 -33.8608 -33.8487 -33.8487 -33.8460 -33.8432
    12.9996  13.9060  13.9060  14.5416  14.6479  15.1176  15.1176  15.5108
    15.6029  15.6338  15.7432  15.7432  15.7694  15.7695  15.8601  15.9937
    16.0042  16.0042  16.0849  16.1177  16.4793  16.5194  16.5892  16.5893
    16.5949  16.6206  16.6206  16.6242  16.7240  16.7727  16.8245  16.9510
    16.9510  16.9699  16.9699  17.0098  17.0246  17.0664  17.0664  17.1051
    17.1051  17.1368  17.1673  17.1972  17.2046  17.4864  17.4864  18.0113
    18.7229  18.7229  18.7583  18.8415  18.9245  18.9663  18.9705  18.9727
    18.9727  18.9799  19.0625  19.0625  19.0647  19.0819  19.0939  19.1462
    19.1462  19.1513  19.1582  19.1582  19.1769  19.1770  19.2297  19.2601
    19.4460  19.5667  19.5667  19.6844  19.8242  19.8242  19.8924  20.1035
    20.1035  20.1224  20.1491  20.2378  20.2960  21.1077  21.1077  22.1688
    24.2747  24.8995

          k = 0.2818 0.3945-0.5072 ( 11514 PWs)   bands (ev):

   -68.0508 -68.0506 -68.0335 -68.0333 -68.0198 -68.0196 -68.0103 -68.0102
   -67.9782 -67.9781 -67.9739 -67.9738 -67.9648 -67.9646 -67.9526 -67.9524
   -34.2708 -34.2708 -34.2633 -34.2632 -34.2480 -34.2479 -34.2468 -34.2467
   -34.2390 -34.2389 -34.2090 -34.2090 -34.1697 -34.1695 -34.1615 -34.1615
   -34.1453 -34.1452 -34.1327 -34.1326 -34.1286 -34.1285 -34.0857 -34.0857
   -33.9993 -33.9993 -33.9593 -33.9592 -33.9498 -33.9497 -33.9475 -33.9475
   -33.9236 -33.9235 -33.9099 -33.9098 -33.8910 -33.8909 -33.8908 -33.8907
   -33.8875 -33.8874 -33.8642 -33.8642 -33.8464 -33.8464 -33.8445 -33.8444
    13.4283  13.4284  14.2294  14.2295  14.9134  14.9135  15.4950  15.4950
    15.6342  15.6342  15.7047  15.7047  15.8103  15.8103  15.9158  15.9158
    16.0096  16.0096  16.3055  16.3055  16.3701  16.3702  16.4828  16.4829
    16.5282  16.5282  16.6795  16.6795  16.7860  16.7861  16.8317  16.8317
    16.8775  16.8775  16.9563  16.9564  17.0007  17.0007  17.0436  17.0436
    17.1028  17.1029  17.1379  17.1379  17.2247  17.2247  17.7084  17.7085
    18.7947  18.7947  18.8447  18.8448  18.8707  18.8707  19.0258  19.0259
    19.0418  19.0419  19.0742  19.0742  19.0869  19.0869  19.1051  19.1051
    19.1545  19.1545  19.1901  19.1902  19.1937  19.1938  19.2604  19.2605
    19.4333  19.4334  19.5977  19.5978  19.8421  19.8421  19.8943  19.8944
    20.1363  20.1363  20.1392  20.1392  20.6943  20.6943  21.6294  21.6294
    24.6790  24.6790

          k = 0.2818-0.5072-0.5072 ( 11496 PWs)   bands (ev):

   -68.0428 -68.0427 -68.0427 -68.0425 -68.0154 -68.0153 -68.0153 -68.0151
   -67.9758 -67.9757 -67.9757 -67.9755 -67.9581 -67.9580 -67.9580 -67.9578
   -34.2593 -34.2593 -34.2592 -34.2592 -34.2512 -34.2511 -34.2511 -34.2510
   -34.2237 -34.2236 -34.2236 -34.2236 -34.1555 -34.1554 -34.1554 -34.1553
   -34.1449 -34.1449 -34.1449 -34.1449 -34.1238 -34.1237 -34.1237 -34.1237
   -33.9726 -33.9726 -33.9725 -33.9725 -33.9517 -33.9517 -33.9517 -33.9517
   -33.9024 -33.9023 -33.9023 -33.9022 -33.8986 -33.8986 -33.8986 -33.8985
   -33.8786 -33.8785 -33.8785 -33.8784 -33.8445 -33.8445 -33.8445 -33.8445
    13.8164  13.8165  13.8165  13.8166  15.2360  15.2361  15.2361  15.2361
    15.6844  15.6845  15.6845  15.6845  16.0615  16.0615  16.0615  16.0615
    16.1225  16.1225  16.1225  16.1225  16.2948  16.2948  16.2948  16.2949
    16.5996  16.5997  16.5997  16.5997  16.7974  16.7975  16.7975  16.7976
    16.8914  16.8914  16.8914  16.8915  16.9212  16.9212  16.9212  16.9212
    17.0958  17.0958  17.0958  17.0959  17.4229  17.4230  17.4230  17.4230
    18.8576  18.8576  18.8576  18.8576  18.9489  18.9489  18.9489  18.9490
    19.0349  19.0350  19.0350  19.0350  19.1731  19.1731  19.1731  19.1732
    19.1811  19.1811  19.1811  19.1811  19.2591  19.2591  19.2591  19.2592
    19.5678  19.5678  19.5678  19.5678  19.6779  19.6779  19.6779  19.6780
    20.1529  20.1529  20.1530  20.1530  21.1531  21.1532  21.1532  21.1532
    25.2212  25.2213

          k = 0.3945 0.3945 0.3945 ( 11506 PWs)   bands (ev):

   -68.0531 -68.0352 -68.0352 -68.0352 -68.0218 -68.0218 -68.0218 -68.0117
   -67.9764 -67.9714 -67.9714 -67.9714 -67.9632 -67.9632 -67.9632 -67.9504
   -34.2626 -34.2626 -34.2626 -34.2502 -34.2502 -34.2502 -34.2334 -34.2143
   -34.2143 -34.2078 -34.2078 -34.2078 -34.2013 -34.2013 -34.1594 -34.1594
   -34.1594 -34.1510 -34.1509 -34.1509 -34.1442 -34.1442 -34.1442 -34.0793
   -33.9999 -33.9496 -33.9496 -33.9496 -33.9360 -33.9360 -33.9360 -33.9236
   -33.9236 -33.9123 -33.9123 -33.9123 -33.9104 -33.9104 -33.9104 -33.8927
   -33.8662 -33.8661 -33.8661 -33.8611 -33.8611 -33.8571 -33.8571 -33.8570
    13.3378  14.2049  14.2049  14.2049  14.8685  14.8686  14.8686  15.6403
    15.7025  15.7025  15.8806  15.8806  15.8806  15.9678  15.9678  15.9678
    16.0212  16.0213  16.0213  16.2357  16.5293  16.5293  16.5573  16.5573
    16.6113  16.6113  16.6113  16.6605  16.6606  16.6606  16.7657  16.7657
    16.7657  16.8762  16.8763  16.8763  16.9179  16.9179  16.9179  16.9490
    16.9490  16.9491  17.0621  17.0621  17.1898  17.1898  17.1898  17.6652
    18.8103  18.8103  18.8103  18.9227  18.9227  18.9682  18.9682  18.9682
    19.0883  19.0883  19.0952  19.0952  19.0952  19.1217  19.1218  19.1218
    19.1600  19.1600  19.1600  19.2695  19.2901  19.2901  19.2901  19.4092
    19.4092  19.8454  19.8454  19.8683  19.8684  19.8684  19.9162  19.9163
    19.9163  19.9465  19.9465  19.9466  20.6811  20.6811  20.6811  21.6430
    25.5606  25.5606

          k = 0.3945 0.3945-0.5072 ( 11498 PWs)   bands (ev):

   -68.0449 -68.0447 -68.0290 -68.0290 -68.0289 -68.0289 -68.0171 -68.0170
   -67.9736 -67.9735 -67.9669 -67.9669 -67.9668 -67.9667 -67.9562 -67.9560
   -34.2525 -34.2525 -34.2525 -34.2524 -34.2351 -34.2350 -34.2346 -34.2345
   -34.2201 -34.2201 -34.1892 -34.1891 -34.1793 -34.1793 -34.1793 -34.1793
   -34.1741 -34.1740 -34.1603 -34.1603 -34.1603 -34.1603 -34.1151 -34.1151
   -33.9738 -33.9738 -33.9306 -33.9306 -33.9285 -33.9285 -33.9285 -33.9285
   -33.9193 -33.9193 -33.9193 -33.9193 -33.8997 -33.8997 -33.8923 -33.8922
   -33.8844 -33.8843 -33.8635 -33.8634 -33.8634 -33.8634 -33.8573 -33.8572
    13.7520  13.7521  14.5454  14.5454  14.5455  14.5455  15.2583  15.2584
    15.8266  15.8267  15.8978  15.8978  15.9543  15.9543  15.9544  15.9544
    16.1593  16.1594  16.3004  16.3004  16.3004  16.3004  16.5364  16.5365
    16.5890  16.5891  16.5925  16.5925  16.6762  16.6763  16.7590  16.7590
    16.7590  16.7590  16.8826  16.8826  16.8826  16.8827  16.9385  16.9385
    16.9385  16.9386  16.9698  16.9698  16.9735  16.9735  17.3720  17.3720
    18.8685  18.8685  18.9038  18.9038  18.9038  18.9038  19.0181  19.0182
    19.0254  19.0255  19.0934  19.0934  19.0952  19.0952  19.0953  19.0953
    19.2643  19.2643  19.2643  19.2643  19.3114  19.3115  19.5576  19.5577
    19.5808  19.5808  19.6140  19.6141  19.8833  19.8833  19.8833  19.8833
    19.9329  19.9329  20.2892  20.2892  20.2892  20.2893  21.1516  21.1516
    25.8854  25.8854

          k = 0.3945-0.5072-0.5072 ( 11532 PWs)   bands (ev):

   -68.0376 -68.0375 -68.0375 -68.0373 -68.0236 -68.0235 -68.0235 -68.0233
   -67.9699 -67.9698 -67.9698 -67.9696 -67.9611 -67.9609 -67.9609 -67.9607
   -34.2386 -34.2386 -34.2385 -34.2385 -34.2347 -34.2346 -34.2346 -34.2345
   -34.1997 -34.1996 -34.1996 -34.1996 -34.1851 -34.1850 -34.1850 -34.1849
   -34.1804 -34.1804 -34.1804 -34.1804 -34.1474 -34.1474 -34.1474 -34.1474
   -33.9499 -33.9499 -33.9499 -33.9499 -33.9181 -33.9181 -33.9181 -33.9181
   -33.9122 -33.9122 -33.9122 -33.9122 -33.8953 -33.8953 -33.8953 -33.8952
   -33.8828 -33.8827 -33.8827 -33.8826 -33.8636 -33.8636 -33.8636 -33.8636
    14.1396  14.1397  14.1397  14.1398  14.9117  14.9118  14.9118  14.9119
    15.9163  15.9163  15.9163  15.9163  16.1118  16.1118  16.1118  16.1118
    16.2334  16.2334  16.2334  16.2334  16.2843  16.2844  16.2844  16.2844
    16.6791  16.6791  16.6791  16.6791  16.6983  16.6984  16.6984  16.6984
    16.7179  16.7180  16.7180  16.7181  16.8471  16.8472  16.8472  16.8472
    16.9031  16.9032  16.9032  16.9032  17.0894  17.0895  17.0895  17.0895
    18.9212  18.9212  18.9212  18.9213  18.9736  18.9737  18.9737  18.9737
    19.0201  19.0202  19.0202  19.0203  19.0841  19.0841  19.0841  19.0842
    19.3691  19.3691  19.3691  19.3691  19.4636  19.4637  19.4637  19.4638
    19.6782  19.6782  19.6782  19.6783  19.8778  19.8778  19.8778  19.8778
    19.9238  19.9239  19.9239  19.9239  20.7096  20.7097  20.7097  20.7097
    26.4417  26.4418

          k =-0.5072-0.5072-0.5072 ( 11536 PWs)   bands (ev):

   -68.0311 -68.0310 -68.0310 -68.0310 -68.0309 -68.0309 -68.0309 -68.0306
   -67.9651 -67.9650 -67.9650 -67.9650 -67.9649 -67.9649 -67.9649 -67.9646
   -34.2123 -34.2123 -34.2123 -34.2123 -34.2123 -34.2123 -34.2122 -34.2122
   -34.2122 -34.2122 -34.2121 -34.2121 -34.2121 -34.2120 -34.2120 -34.2120
   -34.1733 -34.1733 -34.1733 -34.1733 -34.1733 -34.1732 -34.1732 -34.1732
   -33.9299 -33.9298 -33.9298 -33.9298 -33.9298 -33.9298 -33.9298 -33.9298
   -33.8883 -33.8883 -33.8883 -33.8882 -33.8882 -33.8882 -33.8882 -33.8882
   -33.8881 -33.8881 -33.8881 -33.8881 -33.8881 -33.8880 -33.8880 -33.8880
    14.5228  14.5230  14.5230  14.5230  14.5231  14.5231  14.5231  14.5231
    16.1708  16.1708  16.1708  16.1708  16.1708  16.1708  16.1708  16.1708
    16.1709  16.1709  16.1709  16.1709  16.1709  16.1709  16.1709  16.1709
    16.7638  16.7638  16.7638  16.7638  16.7638  16.7638  16.7638  16.7638
    16.7639  16.7639  16.7639  16.7639  16.7639  16.7639  16.7639  16.7639
    16.7988  16.7988  16.7988  16.7988  16.7989  16.7989  16.7989  16.7989
    18.9993  18.9993  18.9993  18.9993  18.9993  18.9993  18.9993  18.9993
    18.9993  18.9993  18.9993  18.9994  18.9994  18.9994  18.9994  18.9994
    19.6062  19.6062  19.6062  19.6063  19.6063  19.6063  19.6063  19.6063
    19.6064  19.6064  19.6064  19.6064  19.6064  19.6065  19.6065  19.6065
    20.3057  20.3057  20.3057  20.3057  20.3058  20.3058  20.3058  20.3058
    27.6244  27.6244

 ------ SPIN DOWN ----------


          k = 0.0564 0.0564 0.0564 ( 11483 PWs)   bands (ev):

   -65.6706 -65.5724 -65.5723 -65.5723 -65.5562 -65.5561 -65.5561 -65.5549
   -65.5548 -65.5548 -65.5545 -65.5545 -65.5545 -65.5475 -65.5470 -65.4715
   -32.0151 -32.0151 -32.0150 -32.0120 -32.0119 -32.0119 -31.8446 -31.8446
   -31.8380 -31.7679 -31.7653 -31.7652 -31.7652 -31.7433 -31.7433 -31.7296
   -31.7296 -31.7296 -31.6921 -31.6921 -31.6663 -31.6497 -31.6497 -31.6497
   -31.6381 -31.6381 -31.6381 -31.6246 -31.6246 -31.6246 -31.6214 -31.6214
   -31.6214 -31.6135 -31.6135 -31.6135 -31.6029 -31.6028 -31.6028 -31.4369
   -31.4359 -31.4359 -31.4359 -31.4327 -31.4327 -31.4327 -31.4300 -31.4300
    11.2857  15.3114  15.3114  15.3114  15.8508  15.8508  15.8508  15.8887
    15.8887  15.8887  15.9425  15.9425  15.9425  16.4821  16.4821  17.6573
    17.7392  17.7392  17.8511  17.8511  17.8736  17.9098  17.9098  17.9098
    17.9237  17.9237  17.9237  18.6691  18.6691  18.6692  19.0783  19.0783
    19.0783  19.3118  19.3118  19.3611  19.5938  19.5938  19.5938  19.7427
    19.7427  19.7427  19.7882  19.7882  19.7882  19.8988  19.8988  19.8988
    20.4059  20.4059  20.4059  20.4630  20.4630  20.4630  20.7194  20.7194
    20.7194  20.9796  20.9796  20.9796  21.4699  21.4699  21.4699  21.4966
    21.4966  21.4966  21.6617  21.6617  21.9579  21.9579  21.9579  22.0073
    22.0073  22.0082  22.0082  22.1156  22.1156  22.1156  22.2214  22.3082
    22.3082  22.5775  22.5775  22.5775  22.6961  22.6961  22.6961  22.7445
    22.7445  22.7446

          k = 0.0564 0.0564 0.1691 ( 11471 PWs)   bands (ev):

   -65.6673 -65.5900 -65.5716 -65.5716 -65.5581 -65.5580 -65.5556 -65.5547
   -65.5546 -65.5540 -65.5535 -65.5535 -65.5479 -65.5473 -65.5382 -65.4741
   -32.0067 -32.0067 -32.0056 -32.0029 -31.9976 -31.9976 -31.8479 -31.8379
   -31.8278 -31.8054 -31.7967 -31.7967 -31.7946 -31.7938 -31.7625 -31.7625
   -31.7266 -31.6983 -31.6887 -31.6859 -31.6738 -31.6495 -31.6495 -31.6415
   -31.6305 -31.6283 -31.6283 -31.6280 -31.6267 -31.6187 -31.6186 -31.6141
   -31.6141 -31.6098 -31.6097 -31.5782 -31.5755 -31.5754 -31.5681 -31.4532
   -31.4453 -31.4453 -31.4437 -31.4409 -31.4360 -31.4358 -31.4358 -31.4329
    11.4228  14.6053  15.3797  15.3797  15.8343  15.8343  15.9512  15.9512
    15.9528  15.9892  15.9974  15.9974  16.4312  16.5365  16.5518  17.5568
    17.6484  17.6798  17.7674  17.8857  17.8981  17.9623  17.9624  17.9949
    18.0036  18.0037  18.0209  18.2464  18.5737  18.5737  18.8975  18.8975
    19.2832  19.3043  19.3336  19.3767  19.3767  19.4248  19.4466  19.5590
    19.5590  19.7932  19.9967  19.9967  20.0190  20.0190  20.0291  20.0616
    20.0616  20.1119  20.1119  20.1232  20.1360  20.1455  20.4655  20.9545
    20.9545  21.2093  21.2094  21.2382  21.3854  21.3855  21.4589  21.4589
    21.4972  21.5202  21.5780  21.6939  21.9613  21.9664  21.9694  22.0034
    22.0062  22.0277  22.0331  22.0584  22.0584  22.1513  22.3011  22.3606
    22.3800  22.3800  22.5764  22.5764  22.6037  22.6037  22.7873  22.7873
    22.9351  22.9351

          k = 0.0564 0.0564 0.2818 ( 11497 PWs)   bands (ev):

   -65.6606 -65.6072 -65.5702 -65.5701 -65.5604 -65.5604 -65.5547 -65.5543
   -65.5543 -65.5531 -65.5531 -65.5530 -65.5489 -65.5482 -65.5227 -65.4792
   -31.9881 -31.9880 -31.9875 -31.9853 -31.9733 -31.9732 -31.8488 -31.8478
   -31.8422 -31.8393 -31.8393 -31.8249 -31.8169 -31.8129 -31.8072 -31.8072
   -31.7208 -31.7110 -31.7081 -31.6934 -31.6476 -31.6476 -31.6441 -31.6420
   -31.6371 -31.6323 -31.6323 -31.6168 -31.6168 -31.6142 -31.6142 -31.5945
   -31.5867 -31.5744 -31.5744 -31.5450 -31.5420 -31.5420 -31.5356 -31.4787
   -31.4608 -31.4608 -31.4592 -31.4577 -31.4481 -31.4453 -31.4453 -31.4430
    11.6932  13.8878  15.4980  15.4980  15.8255  15.8255  16.0313  16.0313
    16.0814  16.0815  16.1486  16.1818  16.6331  16.6899  16.7337  17.3776
    17.4058  17.6646  17.6972  17.8414  17.8440  17.8517  18.0788  18.0788
    18.1472  18.1473  18.2202  18.2512  18.4876  18.4877  18.7450  18.7450
    19.0797  19.0797  19.2424  19.2424  19.2615  19.2924  19.3377  19.3445
    19.5204  19.5315  19.5316  19.6181  19.6181  19.7103  19.7141  20.1279
    20.2254  20.3126  20.3126  20.3168  20.3217  20.3217  20.4309  21.2488
    21.2489  21.2719  21.2719  21.3527  21.3527  21.4135  21.4873  21.5166
    21.5166  21.5496  21.5682  21.7370  21.7567  21.8726  21.8941  21.8990
    21.9673  21.9951  21.9975  22.0012  22.1911  22.1911  22.2018  22.2252
    22.4338  22.4338  22.4886  22.4886  22.5712  22.5712  22.9161  22.9162
    22.9840  22.9840

          k = 0.0564 0.0564 0.3945 ( 11498 PWs)   bands (ev):

   -65.6507 -65.6234 -65.5681 -65.5680 -65.5631 -65.5630 -65.5539 -65.5537
   -65.5533 -65.5530 -65.5529 -65.5520 -65.5503 -65.5494 -65.5088 -65.4869
   -31.9611 -31.9599 -31.9598 -31.9597 -31.9399 -31.9399 -31.8895 -31.8873
   -31.8831 -31.8830 -31.8544 -31.8544 -31.8474 -31.8327 -31.8060 -31.7933
   -31.7530 -31.7401 -31.6940 -31.6818 -31.6579 -31.6514 -31.6446 -31.6446
   -31.6365 -31.6365 -31.6154 -31.6154 -31.6141 -31.6141 -31.5976 -31.5515
   -31.5472 -31.5397 -31.5397 -31.5144 -31.5127 -31.5101 -31.5101 -31.5059
   -31.4823 -31.4819 -31.4818 -31.4818 -31.4656 -31.4612 -31.4612 -31.4589
    12.0896  13.2078  15.6314  15.6314  15.8022  15.8022  16.1106  16.1106
    16.1488  16.1488  16.4218  16.4493  16.7466  16.8538  16.8934  17.0891
    17.0921  17.4776  17.6848  17.6975  17.7857  17.7939  18.2544  18.2545
    18.3483  18.3484  18.5072  18.5073  18.5121  18.5421  18.6786  18.6786
    18.8124  18.8125  18.9237  18.9237  19.0726  19.0726  19.1726  19.1727
    19.2498  19.2693  19.2829  19.2834  19.2876  19.3033  19.6497  20.0058
    20.5129  20.5833  20.5833  20.6450  20.6450  20.6477  20.7719  21.0651
[...]
   -31.4739 -31.4738 -31.4738 -31.4560 -31.4560 -31.4559 -31.4502 -31.4502
    12.4708  14.4791  14.4791  14.4791  15.6840  15.6840  15.6840  16.6955
    16.6955  16.6955  16.9994  16.9994  17.0503  17.0504  17.0504  17.1588
    17.3224  17.7842  17.7842  17.8021  17.8021  17.8021  18.0487  18.0487
    18.0487  18.0722  18.0722  18.2510  18.2510  18.2510  18.6684  18.6684
    18.6684  18.7492  18.7493  18.7493  18.7600  18.7600  18.7600  18.7914
    18.7914  18.7914  18.9750  18.9750  19.2226  19.2226  19.2227  20.2087
    20.3316  20.7768  20.7768  20.7768  20.8434  20.8434  20.8434  21.1440
    21.1440  21.1440  21.2461  21.2461  21.2461  21.4728  21.4728  21.4728
    21.5428  21.5428  21.7821  21.7821  21.8569  21.8569  21.8828  21.8828
    21.8828  21.9443  21.9444  21.9444  21.9557  21.9557  22.0850  22.0850
    22.0850  22.1661  22.1661  22.1661  22.6575  22.6575  22.6575  24.7615
    24.8964  24.8964

          k = 0.2818 0.2818 0.3945 ( 11537 PWs)   bands (ev):

   -65.6339 -65.6108 -65.5925 -65.5925 -65.5802 -65.5802 -65.5703 -65.5630
   -65.5424 -65.5409 -65.5359 -65.5359 -65.5293 -65.5293 -65.5159 -65.4983
   -31.9454 -31.9453 -31.9345 -31.9077 -31.9077 -31.9047 -31.8962 -31.8925
   -31.8762 -31.8762 -31.8720 -31.8640 -31.8331 -31.8022 -31.8022 -31.7931
   -31.7765 -31.7446 -31.7446 -31.7313 -31.7242 -31.7216 -31.7216 -31.6830
   -31.6356 -31.6222 -31.5965 -31.5939 -31.5787 -31.5787 -31.5651 -31.5651
   -31.5587 -31.5587 -31.5451 -31.5212 -31.5177 -31.5177 -31.5056 -31.4972
   -31.4793 -31.4686 -31.4666 -31.4665 -31.4604 -31.4569 -31.4569 -31.4482
    12.8414  13.8692  14.7524  14.7524  15.3926  15.3926  15.9998  16.7959
    16.8842  16.8842  16.9250  17.1153  17.1153  17.1297  17.1518  17.2173
    17.3071  17.5655  17.8334  17.8595  17.8596  17.9292  17.9624  17.9774
    18.0954  18.1550  18.1550  18.2381  18.3203  18.3203  18.4732  18.4835
    18.4835  18.5504  18.5504  18.6012  18.6339  18.6340  18.6434  18.6434
    18.7313  18.7587  18.8529  18.9126  18.9508  18.9508  19.3636  19.9419
    20.4499  20.8783  20.8783  20.9793  21.0174  21.0378  21.0389  21.0390
    21.0402  21.0402  21.3129  21.3927  21.3927  21.4044  21.5531  21.5637
    21.5638  21.6390  21.6461  21.6537  21.7581  21.8089  21.8676  21.8676
    21.8710  21.8827  21.9212  21.9906  22.0019  22.0019  22.0289  22.0545
    22.0564  22.0565  22.1481  22.1481  22.3367  22.3368  23.1524  24.2152
    25.2047  25.2047

          k = 0.2818 0.2818-0.5072 ( 11518 PWs)   bands (ev):

   -65.6233 -65.6231 -65.5869 -65.5868 -65.5866 -65.5866 -65.5670 -65.5668
   -65.5415 -65.5413 -65.5323 -65.5322 -65.5321 -65.5321 -65.5062 -65.5060
   -31.9269 -31.9268 -31.9268 -31.9268 -31.9021 -31.9019 -31.9006 -31.9005
   -31.8854 -31.8854 -31.8396 -31.8395 -31.8395 -31.8395 -31.8073 -31.8070
   -31.7626 -31.7625 -31.7369 -31.7368 -31.7367 -31.7367 -31.6792 -31.6792
   -31.6522 -31.6521 -31.5972 -31.5971 -31.5670 -31.5670 -31.5668 -31.5668
   -31.5398 -31.5398 -31.5397 -31.5397 -31.5095 -31.5093 -31.4993 -31.4992
   -31.4929 -31.4927 -31.4605 -31.4605 -31.4604 -31.4604 -31.4516 -31.4516
    13.3142  13.3143  15.0699  15.0699  15.0700  15.0700  16.3836  16.3838
    17.0438  17.0438  17.0439  17.0439  17.1593  17.1595  17.2257  17.2258
    17.3440  17.3441  17.9014  17.9016  17.9744  17.9745  18.0706  18.0707
    18.0708  18.0708  18.1751  18.1751  18.3033  18.3033  18.3034  18.3034
    18.4204  18.4205  18.5920  18.5920  18.5921  18.5921  18.7066  18.7067
    18.7067  18.7067  18.7680  18.7680  18.8392  18.8394  19.6062  19.6062
    20.7090  20.7090  20.9551  20.9551  20.9551  20.9551  21.2313  21.2314
    21.2344  21.2344  21.2345  21.2345  21.3140  21.3142  21.4860  21.4861
    21.6517  21.6518  21.7816  21.7818  21.8157  21.8157  21.8157  21.8158
    21.8742  21.8743  21.8792  21.8794  22.0736  22.0737  22.0843  22.0843
    22.0843  22.0843  22.0944  22.0944  22.0944  22.0944  23.6787  23.6788
    25.4434  25.4435

          k = 0.2818 0.3945 0.3945 ( 11523 PWs)   bands (ev):

   -65.6262 -65.6050 -65.6050 -65.5893 -65.5883 -65.5768 -65.5767 -65.5681
   -65.5400 -65.5368 -65.5368 -65.5311 -65.5293 -65.5192 -65.5191 -65.5035
   -31.9347 -31.9227 -31.9227 -31.9065 -31.9035 -31.9035 -31.8917 -31.8801
   -31.8800 -31.8783 -31.8685 -31.8403 -31.8296 -31.8261 -31.8026 -31.7784
   -31.7784 -31.7612 -31.7611 -31.7604 -31.7523 -31.7522 -31.7473 -31.6749
   -31.6520 -31.5924 -31.5924 -31.5790 -31.5789 -31.5789 -31.5614 -31.5565
   -31.5430 -31.5399 -31.5310 -31.5268 -31.5268 -31.5086 -31.5086 -31.5025
   -31.4782 -31.4775 -31.4774 -31.4706 -31.4576 -31.4575 -31.4547 -31.4515
    13.1996  14.1808  14.1808  14.9775  15.0379  15.7062  15.7062  16.4717
    17.0856  17.1113  17.1113  17.2429  17.2738  17.2960  17.2960  17.3075
    17.3921  17.6758  17.6758  17.8099  17.9164  17.9519  17.9546  18.0755
    18.0755  18.1217  18.1218  18.2060  18.2097  18.2414  18.3591  18.3701
    18.3702  18.4354  18.4354  18.4597  18.5426  18.5427  18.5505  18.5907
    18.6615  18.6616  18.7194  18.7291  18.8136  19.0354  19.0355  19.5549
    20.7195  21.0103  21.0466  21.0521  21.0521  21.1891  21.1921  21.1922
    21.2393  21.2393  21.3007  21.3007  21.4133  21.4351  21.4843  21.4843
    21.5321  21.5769  21.6346  21.7000  21.7755  21.8083  21.8095  21.8476
    21.8651  21.8651  21.8688  21.8688  21.9344  21.9631  21.9631  21.9783
    22.0250  22.0507  22.0507  22.1401  22.1517  22.7752  22.7752  23.7227
    25.5996  26.0982

          k = 0.2818 0.3945-0.5072 ( 11514 PWs)   bands (ev):

   -65.6165 -65.6163 -65.5978 -65.5976 -65.5830 -65.5828 -65.5728 -65.5726
   -65.5382 -65.5380 -65.5336 -65.5334 -65.5238 -65.5236 -65.5106 -65.5104
   -31.9196 -31.9195 -31.9116 -31.9115 -31.8951 -31.8949 -31.8928 -31.8927
   -31.8856 -31.8855 -31.8529 -31.8528 -31.8078 -31.8076 -31.8008 -31.8008
   -31.7819 -31.7819 -31.7674 -31.7673 -31.7633 -31.7632 -31.7177 -31.7176
   -31.6214 -31.6214 -31.5783 -31.5783 -31.5677 -31.5676 -31.5650 -31.5649
   -31.5389 -31.5388 -31.5239 -31.5238 -31.5037 -31.5035 -31.5033 -31.5032
   -31.4996 -31.4994 -31.4745 -31.4745 -31.4551 -31.4551 -31.4529 -31.4529
    13.6534  13.6535  14.5610  14.5611  15.3706  15.3707  16.0822  16.0823
    17.2343  17.2344  17.2645  17.2646  17.3197  17.3198  17.3263  17.3264
    17.4905  17.4906  17.9223  17.9224  17.9308  17.9310  17.9654  17.9655
    17.9919  17.9920  18.1253  18.1253  18.2093  18.2094  18.3116  18.3117
    18.3677  18.3679  18.3713  18.3713  18.5252  18.5252  18.6013  18.6014
    18.6172  18.6172  18.7315  18.7316  18.7580  18.7580  19.2371  19.2371
    21.0060  21.0060  21.0246  21.0246  21.1596  21.1596  21.2853  21.2855
    21.3374  21.3375  21.3396  21.3397  21.3488  21.3489  21.4275  21.4276
    21.5930  21.5931  21.6296  21.6296  21.7300  21.7302  21.8232  21.8233
    21.8346  21.8346  21.8560  21.8562  21.8683  21.8684  21.9314  21.9314
    22.0586  22.0587  22.1107  22.1107  22.4203  22.4204  23.2439  23.2440
    25.9479  25.9480

          k = 0.2818-0.5072-0.5072 ( 11496 PWs)   bands (ev):

   -65.6079 -65.6077 -65.6077 -65.6075 -65.5783 -65.5780 -65.5780 -65.5779
   -65.5357 -65.5355 -65.5355 -65.5353 -65.5166 -65.5164 -65.5164 -65.5163
   -31.9067 -31.9067 -31.9067 -31.9066 -31.8985 -31.8983 -31.8983 -31.8982
   -31.8689 -31.8688 -31.8688 -31.8687 -31.7924 -31.7922 -31.7922 -31.7921
   -31.7814 -31.7814 -31.7814 -31.7813 -31.7594 -31.7594 -31.7594 -31.7593
   -31.5923 -31.5923 -31.5923 -31.5922 -31.5701 -31.5701 -31.5700 -31.5700
   -31.5159 -31.5157 -31.5157 -31.5156 -31.5117 -31.5116 -31.5116 -31.5115
   -31.4903 -31.4901 -31.4901 -31.4900 -31.4530 -31.4530 -31.4529 -31.4529
    14.0776  14.0777  14.0777  14.0778  15.7244  15.7245  15.7245  15.7246
    17.3210  17.3211  17.3211  17.3212  17.4113  17.4113  17.4113  17.4114
    17.7131  17.7133  17.7133  17.7134  17.8611  17.8612  17.8612  17.8613
    18.1071  18.1071  18.1071  18.1072  18.1916  18.1917  18.1917  18.1918
    18.3784  18.3784  18.3784  18.3784  18.4752  18.4752  18.4753  18.4753
    18.6528  18.6530  18.6530  18.6531  18.9388  18.9388  18.9389  18.9389
    21.1510  21.1511  21.1511  21.1511  21.3184  21.3184  21.3184  21.3184
    21.3238  21.3239  21.3239  21.3240  21.3923  21.3924  21.3924  21.3925
    21.4777  21.4778  21.4778  21.4779  21.7254  21.7255  21.7255  21.7256
    21.8443  21.8443  21.8443  21.8443  21.8631  21.8633  21.8633  21.8635
    22.0961  22.0961  22.0961  22.0962  22.8238  22.8239  22.8239  22.8240
    26.4424  26.4424

          k = 0.3945 0.3945 0.3945 ( 11506 PWs)   bands (ev):

   -65.6189 -65.5997 -65.5996 -65.5996 -65.5852 -65.5851 -65.5851 -65.5743
   -65.5362 -65.5309 -65.5309 -65.5309 -65.5221 -65.5221 -65.5221 -65.5082
   -31.9108 -31.9108 -31.9108 -31.8970 -31.8969 -31.8969 -31.8794 -31.8569
   -31.8569 -31.8515 -31.8515 -31.8515 -31.8436 -31.8436 -31.7969 -31.7969
   -31.7968 -31.7892 -31.7892 -31.7892 -31.7805 -31.7804 -31.7804 -31.7105
   -31.6220 -31.5671 -31.5671 -31.5671 -31.5526 -31.5526 -31.5526 -31.5395
   -31.5395 -31.5268 -31.5268 -31.5267 -31.5244 -31.5244 -31.5244 -31.5052
   -31.4767 -31.4767 -31.4767 -31.4709 -31.4709 -31.4667 -31.4666 -31.4666
    13.5491  14.4961  14.4961  14.4961  15.2975  15.2976  15.2976  16.0970
    17.3223  17.3223  17.3224  17.4102  17.4102  17.4996  17.4996  17.4996
    17.5741  17.6718  17.6718  17.6718  17.9869  17.9869  18.0240  18.0240
    18.1574  18.1574  18.1574  18.1604  18.1604  18.1605  18.2631  18.2631
    18.2631  18.3428  18.3429  18.3429  18.4573  18.4573  18.4574  18.4583
    18.4584  18.4584  18.6487  18.6487  18.7075  18.7075  18.7076  19.1599
    21.0135  21.2194  21.2194  21.2194  21.2485  21.2485  21.2485  21.3198
    21.3198  21.3199  21.5079  21.5079  21.5079  21.5512  21.5512  21.6285
    21.6285  21.6285  21.6396  21.6396  21.7373  21.7373  21.7404  21.7404
    21.7954  21.7954  21.7954  21.8443  21.8443  21.8444  21.9240  21.9241
    21.9241  21.9323  21.9323  21.9324  22.3850  22.3850  22.3850  23.2612
    26.7367  26.7368

          k = 0.3945 0.3945-0.5072 ( 11498 PWs)   bands (ev):

   -65.6101 -65.6099 -65.5930 -65.5929 -65.5928 -65.5928 -65.5801 -65.5799
   -65.5333 -65.5331 -65.5261 -65.5261 -65.5259 -65.5259 -65.5145 -65.5144
   -31.8995 -31.8995 -31.8995 -31.8994 -31.8802 -31.8800 -31.8800 -31.8800
   -31.8650 -31.8648 -31.8295 -31.8293 -31.8203 -31.8203 -31.8202 -31.8202
   -31.8135 -31.8134 -31.7981 -31.7980 -31.7980 -31.7979 -31.7499 -31.7498
   -31.5936 -31.5935 -31.5470 -31.5469 -31.5442 -31.5441 -31.5441 -31.5441
   -31.5345 -31.5345 -31.5344 -31.5344 -31.5128 -31.5127 -31.5053 -31.5051
   -31.4964 -31.4962 -31.4737 -31.4737 -31.4737 -31.4736 -31.4668 -31.4668
    13.9893  13.9894  14.8799  14.8800  14.8801  14.8801  15.6849  15.6850
    17.4801  17.4801  17.4802  17.4802  17.5336  17.5337  17.5350  17.5351
    17.5596  17.5597  17.8805  17.8805  17.8806  17.8806  18.0200  18.0200
    18.0717  18.0719  18.0946  18.0947  18.1293  18.1294  18.2866  18.2867
    18.2867  18.2867  18.3817  18.3818  18.3819  18.3819  18.4390  18.4390
    18.4390  18.4390  18.5244  18.5245  18.5554  18.5556  18.8500  18.8500
    21.2665  21.2665  21.2665  21.2665  21.3253  21.3253  21.4431  21.4431
    21.4432  21.4433  21.4440  21.4441  21.4572  21.4573  21.4628  21.4629
    21.6211  21.6213  21.6846  21.6847  21.7572  21.7573  21.7725  21.7727
    21.7752  21.7753  21.7754  21.7754  21.8651  21.8652  21.8980  21.8980
    21.8980  21.8980  22.0247  22.0248  22.0248  22.0248  22.8178  22.8179
    27.0305  27.0305

          k = 0.3945-0.5072-0.5072 ( 11532 PWs)   bands (ev):

   -65.6023 -65.6021 -65.6021 -65.6019 -65.5872 -65.5869 -65.5869 -65.5868
   -65.5294 -65.5291 -65.5291 -65.5290 -65.5199 -65.5196 -65.5196 -65.5195
   -31.8840 -31.8840 -31.8840 -31.8839 -31.8801 -31.8799 -31.8799 -31.8798
   -31.8425 -31.8424 -31.8424 -31.8423 -31.8251 -31.8250 -31.8250 -31.8248
   -31.8203 -31.8203 -31.8203 -31.8202 -31.7853 -31.7852 -31.7852 -31.7851
   -31.5675 -31.5675 -31.5675 -31.5674 -31.5334 -31.5334 -31.5333 -31.5333
   -31.5264 -31.5263 -31.5263 -31.5263 -31.5084 -31.5082 -31.5082 -31.5081
   -31.4949 -31.4947 -31.4947 -31.4946 -31.4738 -31.4738 -31.4738 -31.4738
    14.4074  14.4075  14.4075  14.4076  15.2673  15.2674  15.2674  15.2675
    17.5539  17.5540  17.5540  17.5541  17.7134  17.7135  17.7135  17.7136
    17.7498  17.7499  17.7499  17.7500  17.8271  17.8272  17.8272  17.8273
    18.1867  18.1868  18.1868  18.1868  18.1959  18.1959  18.1959  18.1960
    18.2001  18.2002  18.2002  18.2003  18.3895  18.3895  18.3895  18.3896
    18.4526  18.4528  18.4528  18.4529  18.5445  18.5445  18.5445  18.5446
    21.4101  21.4102  21.4102  21.4102  21.4359  21.4359  21.4359  21.4360
    21.5000  21.5002  21.5002  21.5003  21.5568  21.5569  21.5569  21.5570
    21.6645  21.6646  21.6646  21.6647  21.6838  21.6840  21.6840  21.6841
    21.7534  21.7534  21.7534  21.7534  21.7554  21.7556  21.7556  21.7557
    21.8414  21.8414  21.8414  21.8415  22.4132  22.4133  22.4133  22.4134
    27.5617  27.5618

          k =-0.5072-0.5072-0.5072 ( 11536 PWs)   bands (ev):

   -65.5953 -65.5950 -65.5950 -65.5950 -65.5948 -65.5948 -65.5948 -65.5947
   -65.5244 -65.5240 -65.5240 -65.5240 -65.5239 -65.5239 -65.5239 -65.5238
   -31.8553 -31.8553 -31.8553 -31.8552 -31.8552 -31.8551 -31.8551 -31.8551
   -31.8550 -31.8550 -31.8550 -31.8550 -31.8550 -31.8550 -31.8550 -31.8550
   -31.8136 -31.8135 -31.8135 -31.8135 -31.8134 -31.8134 -31.8134 -31.8133
   -31.5456 -31.5456 -31.5456 -31.5456 -31.5454 -31.5454 -31.5454 -31.5454
   -31.5009 -31.5009 -31.5009 -31.5007 -31.5007 -31.5007 -31.5007 -31.5007
   -31.5005 -31.5005 -31.5005 -31.5005 -31.5005 -31.5005 -31.5005 -31.5005
    14.8145  14.8146  14.8146  14.8146  14.8147  14.8147  14.8147  14.8148
    17.7892  17.7892  17.7893  17.7893  17.7893  17.7893  17.7893  17.7893
    17.7894  17.7894  17.7894  17.7894  17.7894  17.7894  17.7895  17.7895
    18.1985  18.1985  18.1985  18.1986  18.1986  18.1986  18.1986  18.1987
    18.2929  18.2929  18.2929  18.2930  18.2930  18.2930  18.2931  18.2931
    18.2932  18.2932  18.2932  18.2932  18.2932  18.2932  18.2932  18.2932
    21.6117  21.6117  21.6117  21.6118  21.6118  21.6118  21.6118  21.6118
    21.6119  21.6119  21.6119  21.6119  21.6119  21.6120  21.6120  21.6120
    21.6271  21.6271  21.6274  21.6274  21.6274  21.6274  21.6274  21.6274
    21.6275  21.6275  21.6275  21.6275  21.6275  21.6275  21.6276  21.6276
    22.0319  22.0319  22.0319  22.0319  22.0320  22.0320  22.0320  22.0321
    28.6747  28.6747

     the Fermi energy is    20.0356 ev

!    total energy              =   -5268.15522209 Ry
     Harris-Foulkes estimate   =   -5268.15522110 Ry
     estimated scf accuracy    <       0.00000044 Ry

     total all-electron energy =    -40728.899751 Ry

     The total energy is the sum of the following terms:

     one-electron contribution =   -1643.12354215 Ry
     hartree contribution      =     999.31675131 Ry
     xc contribution           =    -444.75686300 Ry
     ewald contribution        =   -2855.01592451 Ry
     one-center paw contrib.   =   -1324.67806133 Ry
     smearing contrib. (-TS)   =       0.10241758 Ry

     total magnetization       =    32.19 Bohr mag/cell
     absolute magnetization    =    33.74 Bohr mag/cell

     convergence has been achieved in  18 iterations

     negative rho (up, down):  0.000E+00 2.221E-03

     Forces acting on atoms (cartesian axes, Ry/au):

     atom    1 type  1   force =     0.00000000    0.00000000    0.00000000
     atom    2 type  2   force =     0.00008074    0.00008074    0.00008074
     atom    3 type  1   force =     0.00000000    0.00000000    0.00000000
     atom    4 type  2   force =     0.00008074    0.00008074   -0.00008074
     atom    5 type  1   force =     0.00000000    0.00000000    0.00000000
     atom    6 type  2   force =     0.00008074   -0.00008074    0.00008074
     atom    7 type  1   force =     0.00000000    0.00000000   -0.00000000
     atom    8 type  2   force =     0.00008074   -0.00008074   -0.00008074
     atom    9 type  1   force =     0.00000000    0.00000000    0.00000000
     atom   10 type  2   force =    -0.00008074    0.00008074    0.00008074
     atom   11 type  1   force =     0.00000000    0.00000000    0.00000000
     atom   12 type  2   force =    -0.00008074    0.00008074   -0.00008074
     atom   13 type  1   force =     0.00000000    0.00000000    0.00000000
     atom   14 type  2   force =    -0.00008074   -0.00008074    0.00008074
     atom   15 type  1   force =     0.00000000    0.00000000    0.00000000
     atom   16 type  2   force =    -0.00008074   -0.00008074   -0.00008074

     Total force =     0.000396     Total SCF correction =     0.001006
     SCF correction compared to forces is large: reduce conv_thr to get better values


     Computing stress (Cartesian axis) and pressure


     negative rho (up, down):  0.000E+00 2.221E-03
          total   stress  (Ry/bohr**3)                   (kbar)     P=  108.60
   0.00073822   0.00000000   0.00000000        108.60      0.00      0.00
   0.00000000   0.00073822   0.00000000          0.00    108.60      0.00
   0.00000000   0.00000000   0.00073822          0.00      0.00    108.60


     Writing output data file gthnJSwHHvedbHFs.save/
 
     init_run     :      7.35s CPU      7.61s WALL (       1 calls)
     electrons    :    462.45s CPU    472.07s WALL (       1 calls)
     forces       :      2.38s CPU      2.50s WALL (       1 calls)
     stress       :      9.76s CPU      9.82s WALL (       1 calls)

     Called by init_run:
     wfcinit      :      6.68s CPU      6.88s WALL (       1 calls)
     potinit      :      0.30s CPU      0.33s WALL (       1 calls)
     hinit0       :      0.13s CPU      0.13s WALL (       1 calls)

     Called by electrons:
     c_bands      :    411.84s CPU    419.29s WALL (      19 calls)
     sum_band     :     44.55s CPU     46.21s WALL (      19 calls)
     v_of_rho     :      0.46s CPU      0.50s WALL (      19 calls)
     newd         :      0.92s CPU      1.14s WALL (      19 calls)
     PAW_pot      :      4.77s CPU      5.01s WALL (      19 calls)
     mix_rho      :      0.12s CPU      0.13s WALL (      19 calls)

     Called by c_bands:
     init_us_2    :      2.81s CPU      2.87s WALL (    2870 calls)
     cegterg      :    396.82s CPU    404.15s WALL (    1330 calls)

     Called by sum_band:
     sum_band:bec :      0.49s CPU      0.50s WALL (    1330 calls)
     addusdens    :      1.76s CPU      2.00s WALL (      19 calls)

     Called by *egterg:
     h_psi        :    174.60s CPU    179.59s WALL (    4664 calls)
     s_psi        :     12.18s CPU     12.24s WALL (    4664 calls)
     g_psi        :      0.59s CPU      0.59s WALL (    3264 calls)
     cdiaghg      :    168.51s CPU    168.96s WALL (    4524 calls)

     Called by h_psi:
     h_psi:pot    :    173.39s CPU    178.37s WALL (    4664 calls)
     h_psi:calbec :     14.47s CPU     15.58s WALL (    4664 calls)
     vloc_psi     :    146.46s CPU    150.29s WALL (    4664 calls)
     add_vuspsi   :     12.42s CPU     12.48s WALL (    4664 calls)

     General routines
     calbec       :     22.00s CPU     23.70s WALL (    6344 calls)
     fft          :      0.36s CPU      0.40s WALL (     517 calls)
     ffts         :      0.03s CPU      0.04s WALL (      76 calls)
     fftw         :    167.77s CPU    172.11s WALL ( 1134890 calls)
     interpolate  :      0.05s CPU      0.05s WALL (      38 calls)
 
     Parallel routines
     fft_scatt_xy :     14.07s CPU     14.43s WALL ( 1135483 calls)
     fft_scatt_yz :     96.83s CPU     99.39s WALL ( 1135483 calls)
 
     PWSCF        :  8m 5.42s CPU     8m22.77s WALL

 
   This run was terminated on:  22:23:25  13Jun2020            

=------------------------------------------------------------------------------=
   JOB DONE.
=------------------------------------------------------------------------------=
