--------------------------------------------------------------------------
WARNING: No preset parameters were found for the device that Open MPI
detected:

  Local host:            bear-pg0206u37a
  Device name:           mlx5_0
  Device vendor ID:      0x02c9
  Device vendor part ID: 4123

Default device parameters will be used, which may result in lower
performance.  You can edit any of the files specified by the
btl_openib_device_param_files MCA parameter to set values for your
device.

NOTE: You can turn off this warning by setting the MCA parameter
      btl_openib_warn_no_device_params_found to 0.
--------------------------------------------------------------------------
--------------------------------------------------------------------------
WARNING: There was an error initializing an OpenFabrics device.

  Local host:   bear-pg0206u37a
  Local device: mlx5_0
--------------------------------------------------------------------------

     Program PWSCF v.6.3 starts on 14Jun2020 at  1:22:21 

     This program is part of the open-source Quantum ESPRESSO suite
     for quantum simulation of materials; please cite
         "P. Giannozzi et al., J. Phys.:Condens. Matter 21 395502 (2009);
         "P. Giannozzi et al., J. Phys.:Condens. Matter 29 465901 (2017);
          URL http://www.quantum-espresso.org", 
     in publications or presentations arising from this work. More details at
     http://www.quantum-espresso.org/quote

     Parallel version (MPI & OpenMP), running on      20 processor cores
     Number of MPI processes:                20
     Threads/MPI process:                     1

     MPI processes distributed on     1 nodes
     R & G space division:  proc/nbgrp/npool/nimage =      20
     Reading input from wd/eos/eos_013.in
Warning: card &IONS ignored
Warning: card ION_DYNAMICS = 'BFGS', ignored
Warning: card / ignored
Warning: card &CELL ignored
Warning: card CELL_DYNAMICS = 'BFGS', ignored
Warning: card CELL_FACTOR = 2.0, ignored
Warning: card PRESS = 0.0, ignored
Warning: card / ignored

     Current dimensions of program PWSCF are:
     Max number of different atomic species (ntypx) = 10
     Max number of k-points (npk) =  40000
     Max angular momentum in pseudopotentials (lmaxx) =  3
               file Fe.pbe-spn-kjpaw_psl.1.0.0.UPF: wavefunction(s)  3P 3D renormalized
               file Fe.pbe-spn-kjpaw_psl.1.0.0.UPF: wavefunction(s)  3P 3D renormalized

     Subspace diagonalization in iterative solution of the eigenvalue problem:
     a serial algorithm will be used

     Found symmetry operation: I + (  0.0000  0.0000 -0.5000)
     This is a supercell, fractional translations are disabled
 
     Parallelization info
     --------------------
     sticks:   dense  smooth     PW     G-vecs:    dense   smooth      PW
     Min         197     130     36                 9341     5016     745
     Max         198     131     38                 9344     5020     749
     Sum        3953    2601    741               186863   100377   14939
 


     bravais-lattice index     =            0
     lattice parameter (alat)  =      10.5935  a.u.
     unit-cell volume          =    1240.5142 (a.u.)^3
     number of atoms/cell      =           16
     number of atomic types    =            2
     number of electrons       =       256.00
     number of Kohn-Sham states=          154
     kinetic-energy cutoff     =      71.0000  Ry
     charge density cutoff     =     430.0000  Ry
     convergence threshold     =      1.0E-06
     mixing beta               =       0.1000
     number of iterations used =           10  plain     mixing
     Exchange-correlation      = SLA PW PBX PBC ( 1  4  3  4 0 0)

     celldm(1)=  10.593520  celldm(2)=   0.000000  celldm(3)=   0.000000
     celldm(4)=   0.000000  celldm(5)=   0.000000  celldm(6)=   0.000000

     crystal axes: (cart. coord. in units of alat)
               a(1) = (   1.014286   0.000000   0.000000 )  
               a(2) = (   0.000000   1.014286   0.000000 )  
               a(3) = (   0.000000   0.000000   1.014286 )  

     reciprocal axes: (cart. coord. in units 2 pi/alat)
               b(1) = (  0.985915  0.000000  0.000000 )  
               b(2) = (  0.000000  0.985915  0.000000 )  
               b(3) = (  0.000000  0.000000  0.985915 )  


     PseudoPot. # 1 for Fe read from file:
     /rds/homes/b/bxp912/pp/Fe.pbe-spn-kjpaw_psl.1.0.0.UPF
     MD5 check sum: 42f43b795421b414b0dc916aa790dbcb
     Pseudo is Projector augmented-wave + core cor, Zval = 16.0
     Generated using "atomic" code by A. Dal Corso v.6.3
     Shape of augmentation charge: PSQ
     Using radial grid of 1191 points,  6 beta functions with: 
                l(1) =   0
                l(2) =   0
                l(3) =   1
                l(4) =   1
                l(5) =   2
                l(6) =   2
     Q(r) pseudized with 0 coefficients 


     PseudoPot. # 2 for Fe read from file:
     /rds/homes/b/bxp912/pp/Fe.pbe-spn-kjpaw_psl.1.0.0.UPF
     MD5 check sum: 42f43b795421b414b0dc916aa790dbcb
     Pseudo is Projector augmented-wave + core cor, Zval = 16.0
     Generated using "atomic" code by A. Dal Corso v.6.3
     Shape of augmentation charge: PSQ
     Using radial grid of 1191 points,  6 beta functions with: 
                l(1) =   0
                l(2) =   0
                l(3) =   1
                l(4) =   1
                l(5) =   2
                l(6) =   2
     Q(r) pseudized with 0 coefficients 


     atomic species   valence    mass     pseudopotential
        Fe1           16.00    55.84500     Fe( 1.00)
        Fe2           16.00    55.84500     Fe( 1.00)

     Starting magnetic structure 
     atomic species   magnetization
        Fe1          0.100
        Fe2          0.100

     48 Sym. Ops., with inversion, found



   Cartesian axes

     site n.     atom                  positions (alat units)
         1           Fe1 tau(   1) = (   0.0000000   0.0000000   0.0000000  )
         2           Fe2 tau(   2) = (   0.2535719   0.2535719   0.2535719  )
         3           Fe1 tau(   3) = (   0.0000000   0.0000000   0.5071429  )
         4           Fe2 tau(   4) = (   0.2535719   0.2535719   0.7607138  )
         5           Fe1 tau(   5) = (   0.0000000   0.5071429   0.0000000  )
         6           Fe2 tau(   6) = (   0.2535719   0.7607138   0.2535719  )
         7           Fe1 tau(   7) = (   0.0000000   0.5071429   0.5071429  )
         8           Fe2 tau(   8) = (   0.2535719   0.7607138   0.7607138  )
         9           Fe1 tau(   9) = (   0.5071429   0.0000000   0.0000000  )
        10           Fe2 tau(  10) = (   0.7607138   0.2535719   0.2535719  )
        11           Fe1 tau(  11) = (   0.5071429   0.0000000   0.5071429  )
        12           Fe2 tau(  12) = (   0.7607138   0.2535719   0.7607138  )
        13           Fe1 tau(  13) = (   0.5071429   0.5071429   0.0000000  )
        14           Fe2 tau(  14) = (   0.7607138   0.7607138   0.2535719  )
        15           Fe1 tau(  15) = (   0.5071429   0.5071429   0.5071429  )
        16           Fe2 tau(  16) = (   0.7607138   0.7607138   0.7607138  )

     number of k points=    35  Marzari-Vanderbilt smearing, width (Ry)=  0.0400
                       cart. coord. in units 2pi/alat
        k(    1) = (   0.0547731   0.0547731   0.0547731), wk =   0.0109739
        k(    2) = (   0.0547731   0.0547731   0.1643192), wk =   0.0329218
        k(    3) = (   0.0547731   0.0547731   0.2738654), wk =   0.0329218
        k(    4) = (   0.0547731   0.0547731   0.3834116), wk =   0.0329218
        k(    5) = (   0.0547731   0.0547731  -0.4929577), wk =   0.0164609
        k(    6) = (   0.0547731   0.1643192   0.1643192), wk =   0.0329218
        k(    7) = (   0.0547731   0.1643192   0.2738654), wk =   0.0658436
        k(    8) = (   0.0547731   0.1643192   0.3834116), wk =   0.0658436
        k(    9) = (   0.0547731   0.1643192  -0.4929577), wk =   0.0329218
        k(   10) = (   0.0547731   0.2738654   0.2738654), wk =   0.0329218
        k(   11) = (   0.0547731   0.2738654   0.3834116), wk =   0.0658436
        k(   12) = (   0.0547731   0.2738654  -0.4929577), wk =   0.0329218
        k(   13) = (   0.0547731   0.3834116   0.3834116), wk =   0.0329218
        k(   14) = (   0.0547731   0.3834116  -0.4929577), wk =   0.0329218
        k(   15) = (   0.0547731  -0.4929577  -0.4929577), wk =   0.0082305
        k(   16) = (   0.1643192   0.1643192   0.1643192), wk =   0.0109739
        k(   17) = (   0.1643192   0.1643192   0.2738654), wk =   0.0329218
        k(   18) = (   0.1643192   0.1643192   0.3834116), wk =   0.0329218
        k(   19) = (   0.1643192   0.1643192  -0.4929577), wk =   0.0164609
        k(   20) = (   0.1643192   0.2738654   0.2738654), wk =   0.0329218
        k(   21) = (   0.1643192   0.2738654   0.3834116), wk =   0.0658436
        k(   22) = (   0.1643192   0.2738654  -0.4929577), wk =   0.0329218
        k(   23) = (   0.1643192   0.3834116   0.3834116), wk =   0.0329218
        k(   24) = (   0.1643192   0.3834116  -0.4929577), wk =   0.0329218
        k(   25) = (   0.1643192  -0.4929577  -0.4929577), wk =   0.0082305
        k(   26) = (   0.2738654   0.2738654   0.2738654), wk =   0.0109739
        k(   27) = (   0.2738654   0.2738654   0.3834116), wk =   0.0329218
        k(   28) = (   0.2738654   0.2738654  -0.4929577), wk =   0.0164609
        k(   29) = (   0.2738654   0.3834116   0.3834116), wk =   0.0329218
        k(   30) = (   0.2738654   0.3834116  -0.4929577), wk =   0.0329218
        k(   31) = (   0.2738654  -0.4929577  -0.4929577), wk =   0.0082305
        k(   32) = (   0.3834116   0.3834116   0.3834116), wk =   0.0109739
        k(   33) = (   0.3834116   0.3834116  -0.4929577), wk =   0.0164609
        k(   34) = (   0.3834116  -0.4929577  -0.4929577), wk =   0.0082305
        k(   35) = (  -0.4929577  -0.4929577  -0.4929577), wk =   0.0013717

     Dense  grid:   186863 G-vectors     FFT dimensions: (  72,  72,  72)

     Smooth grid:   100377 G-vectors     FFT dimensions: (  60,  60,  60)

     Estimated max dynamical RAM per process >     158.84 MB

     Estimated total dynamical RAM >       3.10 GB
     Generating pointlists ...
     new r_m :   0.1812 (alat units)  1.9192 (a.u.) for type    1
     new r_m :   0.1812 (alat units)  1.9192 (a.u.) for type    2

     Check: negative/imaginary core charge=   -0.000006    0.000000

     Initial potential from superposition of free atoms

     starting charge  255.99300, renormalised to  256.00000
     Starting wfcs are  160 randomized atomic wfcs
     Checking if some PAW data can be deallocated... 

     total cpu time spent up to now is        9.0 secs

     Self-consistent Calculation

     iteration #  1     ecut=    71.00 Ry     beta= 0.10
     Davidson diagonalization with overlap
     ethr =  1.00E-02,  avg # of iterations =  3.2

     Threshold (ethr) on eigenvalues was too large:
     Diagonalizing with lowered threshold

     Davidson diagonalization with overlap
     ethr =  1.81E-04,  avg # of iterations =  3.8

     total cpu time spent up to now is       69.3 secs

     total energy              =   -5267.95457460 Ry
     Harris-Foulkes estimate   =   -5267.99226777 Ry
     estimated scf accuracy    <       0.54964616 Ry

     total magnetization       =    28.73 Bohr mag/cell
     absolute magnetization    =    28.85 Bohr mag/cell

     iteration #  2     ecut=    71.00 Ry     beta= 0.10
     Davidson diagonalization with overlap
     ethr =  2.15E-04,  avg # of iterations =  1.0

     total cpu time spent up to now is       87.5 secs

     total energy              =   -5267.95608108 Ry
     Harris-Foulkes estimate   =   -5267.96511394 Ry
     estimated scf accuracy    <       0.32698509 Ry

     total magnetization       =    29.37 Bohr mag/cell
     absolute magnetization    =    29.53 Bohr mag/cell

     iteration #  3     ecut=    71.00 Ry     beta= 0.10
     Davidson diagonalization with overlap
     ethr =  1.28E-04,  avg # of iterations =  3.0

     total cpu time spent up to now is      116.2 secs

     total energy              =   -5268.00996938 Ry
     Harris-Foulkes estimate   =   -5268.01151751 Ry
     estimated scf accuracy    <       0.39211001 Ry

     total magnetization       =    30.59 Bohr mag/cell
     absolute magnetization    =    30.96 Bohr mag/cell

     iteration #  4     ecut=    71.00 Ry     beta= 0.10
     Davidson diagonalization with overlap
     ethr =  1.28E-04,  avg # of iterations =  1.0

     total cpu time spent up to now is      134.4 secs

     total energy              =   -5268.02883847 Ry
     Harris-Foulkes estimate   =   -5268.01933852 Ry
     estimated scf accuracy    <       0.12575439 Ry

     total magnetization       =    30.85 Bohr mag/cell
     absolute magnetization    =    31.24 Bohr mag/cell

     iteration #  5     ecut=    71.00 Ry     beta= 0.10
     Davidson diagonalization with overlap
     ethr =  4.91E-05,  avg # of iterations =  1.0

     total cpu time spent up to now is      152.7 secs

     total energy              =   -5268.11955161 Ry
     Harris-Foulkes estimate   =   -5268.03250937 Ry
     estimated scf accuracy    <       0.11449869 Ry

     total magnetization       =    30.90 Bohr mag/cell
     absolute magnetization    =    31.34 Bohr mag/cell

     iteration #  6     ecut=    71.00 Ry     beta= 0.10
     Davidson diagonalization with overlap
     ethr =  4.47E-05,  avg # of iterations =  3.4

     negative rho (up, down):  0.000E+00 3.888E-03

     total cpu time spent up to now is      185.4 secs

     total energy              =   -5268.13392683 Ry
     Harris-Foulkes estimate   =   -5268.16324857 Ry
     estimated scf accuracy    <       0.24647127 Ry

     total magnetization       =    31.57 Bohr mag/cell
     absolute magnetization    =    32.43 Bohr mag/cell

     iteration #  7     ecut=    71.00 Ry     beta= 0.10
     Davidson diagonalization with overlap
     ethr =  4.47E-05,  avg # of iterations =  2.9

     negative rho (up, down):  0.000E+00 2.576E-03

     total cpu time spent up to now is      215.1 secs

     total energy              =   -5268.18207024 Ry
     Harris-Foulkes estimate   =   -5268.18625154 Ry
     estimated scf accuracy    <       0.01234581 Ry

     total magnetization       =    33.11 Bohr mag/cell
     absolute magnetization    =    34.89 Bohr mag/cell

     iteration #  8     ecut=    71.00 Ry     beta= 0.10
     Davidson diagonalization with overlap
     ethr =  4.82E-06,  avg # of iterations =  2.4

     negative rho (up, down):  0.000E+00 2.218E-03

     total cpu time spent up to now is      240.3 secs

     total energy              =   -5268.18304031 Ry
     Harris-Foulkes estimate   =   -5268.18375862 Ry
     estimated scf accuracy    <       0.00935271 Ry

     total magnetization       =    33.02 Bohr mag/cell
     absolute magnetization    =    34.61 Bohr mag/cell

     iteration #  9     ecut=    71.00 Ry     beta= 0.10
     Davidson diagonalization with overlap
     ethr =  3.65E-06,  avg # of iterations =  1.1

     negative rho (up, down):  0.000E+00 2.729E-03

     total cpu time spent up to now is      258.9 secs

     total energy              =   -5268.18628884 Ry
     Harris-Foulkes estimate   =   -5268.18332270 Ry
     estimated scf accuracy    <       0.00580459 Ry

     total magnetization       =    33.07 Bohr mag/cell
     absolute magnetization    =    34.67 Bohr mag/cell

     iteration # 10     ecut=    71.00 Ry     beta= 0.10
     Davidson diagonalization with overlap
     ethr =  2.27E-06,  avg # of iterations =  3.4

     negative rho (up, down):  0.000E+00 2.676E-03

     total cpu time spent up to now is      289.8 secs

     total energy              =   -5268.18828083 Ry
     Harris-Foulkes estimate   =   -5268.18817659 Ry
     estimated scf accuracy    <       0.00093187 Ry

     total magnetization       =    33.49 Bohr mag/cell
     absolute magnetization    =    35.35 Bohr mag/cell

     iteration # 11     ecut=    71.00 Ry     beta= 0.10
     Davidson diagonalization with overlap
     ethr =  3.64E-07,  avg # of iterations =  1.0

     negative rho (up, down):  0.000E+00 2.442E-03

     total cpu time spent up to now is      308.1 secs

     total energy              =   -5268.18853590 Ry
     Harris-Foulkes estimate   =   -5268.18829541 Ry
     estimated scf accuracy    <       0.00072095 Ry

     total magnetization       =    33.50 Bohr mag/cell
     absolute magnetization    =    35.37 Bohr mag/cell

     iteration # 12     ecut=    71.00 Ry     beta= 0.10
     Davidson diagonalization with overlap
     ethr =  2.82E-07,  avg # of iterations =  1.8

     negative rho (up, down):  0.000E+00 2.689E-03

     total cpu time spent up to now is      329.3 secs

     total energy              =   -5268.18860595 Ry
     Harris-Foulkes estimate   =   -5268.18861545 Ry
     estimated scf accuracy    <       0.00070664 Ry

     total magnetization       =    33.57 Bohr mag/cell
     absolute magnetization    =    35.45 Bohr mag/cell

     iteration # 13     ecut=    71.00 Ry     beta= 0.10
     Davidson diagonalization with overlap
     ethr =  2.76E-07,  avg # of iterations =  3.2

     negative rho (up, down):  0.000E+00 2.728E-03

     total cpu time spent up to now is      359.3 secs

     total energy              =   -5268.18890027 Ry
     Harris-Foulkes estimate   =   -5268.18890886 Ry
     estimated scf accuracy    <       0.00024390 Ry

     total magnetization       =    33.77 Bohr mag/cell
     absolute magnetization    =    35.76 Bohr mag/cell

     iteration # 14     ecut=    71.00 Ry     beta= 0.10
     Davidson diagonalization with overlap
     ethr =  9.53E-08,  avg # of iterations =  1.8

     negative rho (up, down):  0.000E+00 2.731E-03

     total cpu time spent up to now is      380.5 secs

     total energy              =   -5268.18895597 Ry
     Harris-Foulkes estimate   =   -5268.18893215 Ry
     estimated scf accuracy    <       0.00016338 Ry

     total magnetization       =    33.81 Bohr mag/cell
     absolute magnetization    =    35.80 Bohr mag/cell

     iteration # 15     ecut=    71.00 Ry     beta= 0.10
     Davidson diagonalization with overlap
     ethr =  6.38E-08,  avg # of iterations =  1.1

     negative rho (up, down):  0.000E+00 2.747E-03

     total cpu time spent up to now is      399.0 secs

     total energy              =   -5268.18899504 Ry
     Harris-Foulkes estimate   =   -5268.18896842 Ry
     estimated scf accuracy    <       0.00003122 Ry

     total magnetization       =    33.84 Bohr mag/cell
     absolute magnetization    =    35.83 Bohr mag/cell

     iteration # 16     ecut=    71.00 Ry     beta= 0.10
     Davidson diagonalization with overlap
     ethr =  1.22E-08,  avg # of iterations =  3.1

     negative rho (up, down):  0.000E+00 2.742E-03

     total cpu time spent up to now is      428.0 secs

     total energy              =   -5268.18900480 Ry
     Harris-Foulkes estimate   =   -5268.18900113 Ry
     estimated scf accuracy    <       0.00001206 Ry

     total magnetization       =    33.84 Bohr mag/cell
     absolute magnetization    =    35.83 Bohr mag/cell

     iteration # 17     ecut=    71.00 Ry     beta= 0.10
     Davidson diagonalization with overlap
     ethr =  4.71E-09,  avg # of iterations =  2.5

     negative rho (up, down):  0.000E+00 2.770E-03

     total cpu time spent up to now is      453.8 secs

     total energy              =   -5268.18901001 Ry
     Harris-Foulkes estimate   =   -5268.18900677 Ry
     estimated scf accuracy    <       0.00000507 Ry

     total magnetization       =    33.85 Bohr mag/cell
     absolute magnetization    =    35.83 Bohr mag/cell

     iteration # 18     ecut=    71.00 Ry     beta= 0.10
     Davidson diagonalization with overlap
     ethr =  1.98E-09,  avg # of iterations =  2.6

     negative rho (up, down):  0.000E+00 2.791E-03
 
     Magnetic moment per site:
     atom:    1    charge:   14.4008    magn:    2.1674    constr:    0.0000
     atom:    2    charge:   14.4007    magn:    2.1695    constr:    0.0000
     atom:    3    charge:   14.4007    magn:    2.1681    constr:    0.0000
     atom:    4    charge:   14.4007    magn:    2.1695    constr:    0.0000
     atom:    5    charge:   14.4007    magn:    2.1681    constr:    0.0000
     atom:    6    charge:   14.4007    magn:    2.1695    constr:    0.0000
     atom:    7    charge:   14.4009    magn:    2.1687    constr:    0.0000
     atom:    8    charge:   14.4007    magn:    2.1695    constr:    0.0000
     atom:    9    charge:   14.4007    magn:    2.1681    constr:    0.0000
     atom:   10    charge:   14.4007    magn:    2.1695    constr:    0.0000
     atom:   11    charge:   14.4009    magn:    2.1687    constr:    0.0000
     atom:   12    charge:   14.4007    magn:    2.1695    constr:    0.0000
     atom:   13    charge:   14.4009    magn:    2.1687    constr:    0.0000
     atom:   14    charge:   14.4007    magn:    2.1695    constr:    0.0000
     atom:   15    charge:   14.4009    magn:    2.1693    constr:    0.0000
     atom:   16    charge:   14.4007    magn:    2.1695    constr:    0.0000

     total cpu time spent up to now is      478.7 secs

     End of self-consistent calculation

 ------ SPIN UP ------------


          k = 0.0548 0.0548 0.0548 ( 12572 PWs)   bands (ev):

   -70.0293 -69.9656 -69.9656 -69.9656 -69.9559 -69.9559 -69.9559 -69.9547
   -69.9545 -69.9545 -69.9540 -69.9540 -69.9538 -69.9507 -69.9493 -69.9001
   -36.2259 -36.2259 -36.2259 -36.2235 -36.2235 -36.2235 -36.1166 -36.1166
   -36.1121 -36.0583 -36.0556 -36.0556 -36.0556 -36.0414 -36.0414 -36.0311
   -36.0311 -36.0311 -36.0067 -36.0067 -35.9897 -35.9819 -35.9819 -35.9819
   -35.9737 -35.9737 -35.9737 -35.9660 -35.9660 -35.9660 -35.9635 -35.9635
   -35.9635 -35.9565 -35.9565 -35.9565 -35.9492 -35.9492 -35.9492 -35.8350
   -35.8331 -35.8331 -35.8331 -35.8311 -35.8311 -35.8311 -35.8304 -35.8304
     9.6357  13.1629  13.1629  13.1629  13.1705  13.1705  13.1705  13.1894
    13.1894  13.1894  13.2422  13.2422  13.5723  13.5723  13.5723  14.7257
    14.7389  14.7389  14.7389  14.7510  14.7510  14.7510  14.8061  14.8061
    14.8824  14.8824  14.8824  14.9410  14.9410  14.9925  15.2002  15.2002
    15.2002  15.8019  15.8019  15.8410  16.1132  16.1132  16.1132  16.1876
    16.1876  16.1876  16.2759  16.2759  16.2759  16.3520  16.3520  16.3520
    16.9359  16.9359  16.9460  16.9460  16.9460  16.9793  16.9793  16.9793
    17.0176  17.0176  17.0176  17.0236  17.0236  17.0236  17.1281  17.1281
    17.1281  17.1542  17.1542  17.1542  17.1637  17.1637  17.1651  17.1651
    17.9797  17.9797  17.9798  18.0956  18.0956  18.0956  18.1447  18.2064
    18.2064  18.2532  18.2533  18.2533  18.5301  18.5301  18.5301  18.7621
    18.7621  18.7621

          k = 0.0548 0.0548 0.1643 ( 12558 PWs)   bands (ev):

   -70.0270 -69.9770 -69.9652 -69.9652 -69.9569 -69.9569 -69.9555 -69.9544
   -69.9542 -69.9538 -69.9536 -69.9536 -69.9510 -69.9497 -69.9434 -69.9017
   -36.2203 -36.2203 -36.2196 -36.2177 -36.2141 -36.2141 -36.1185 -36.1120
   -36.1050 -36.0839 -36.0778 -36.0778 -36.0761 -36.0758 -36.0543 -36.0543
   -36.0307 -36.0113 -36.0069 -36.0032 -35.9983 -35.9817 -35.9817 -35.9730
   -35.9695 -35.9684 -35.9684 -35.9667 -35.9642 -35.9616 -35.9616 -35.9573
   -35.9573 -35.9532 -35.9532 -35.9322 -35.9296 -35.9296 -35.9249 -35.8453
   -35.8394 -35.8394 -35.8385 -35.8367 -35.8345 -35.8330 -35.8330 -35.8322
     9.7628  12.6173  13.1855  13.1855  13.2116  13.2116  13.2443  13.2443
    13.2588  13.2766  13.2957  13.2980  13.6089  13.6089  13.8029  14.5686
    14.6250  14.7178  14.7268  14.7364  14.7376  14.7811  14.7811  14.8169
    14.8169  14.8355  14.8659  14.8659  15.1258  15.1275  15.1534  15.1534
    15.5047  15.7821  15.7996  15.8941  15.9319  15.9319  15.9848  16.0720
    16.0846  16.0846  16.2968  16.2968  16.4143  16.4143  16.4744  16.5585
    16.6298  16.6298  16.7422  16.8731  16.8731  16.8807  16.9327  16.9588
    16.9790  16.9790  17.0300  17.0326  17.0509  17.0509  17.1303  17.1359
    17.1359  17.1603  17.1613  17.1625  17.1646  17.3382  17.3382  17.3608
    17.4927  17.6274  17.7086  18.0028  18.0028  18.0081  18.0107  18.0108
    18.0990  18.2000  18.3227  18.3227  18.5924  18.5924  18.6250  18.6250
    19.0957  19.0957

          k = 0.0548 0.0548 0.2739 ( 12548 PWs)   bands (ev):

   -70.0226 -69.9881 -69.9643 -69.9643 -69.9584 -69.9584 -69.9549 -69.9541
   -69.9540 -69.9534 -69.9533 -69.9532 -69.9516 -69.9502 -69.9333 -69.9051
   -36.2078 -36.2078 -36.2073 -36.2057 -36.1978 -36.1978 -36.1188 -36.1127
   -36.1087 -36.1071 -36.1071 -36.1031 -36.0949 -36.0919 -36.0850 -36.0850
   -36.0310 -36.0220 -36.0202 -36.0081 -35.9806 -35.9806 -35.9766 -35.9731
   -35.9729 -35.9711 -35.9711 -35.9602 -35.9602 -35.9574 -35.9574 -35.9412
   -35.9358 -35.9285 -35.9285 -35.9088 -35.9062 -35.9062 -35.9024 -35.8618
   -35.8499 -35.8499 -35.8492 -35.8479 -35.8424 -35.8396 -35.8396 -35.8387
    10.0134  12.0082  13.2277  13.2277  13.2818  13.2818  13.3308  13.3308
    13.4011  13.4018  13.4287  13.4439  13.6442  13.6442  13.8667  14.2702
    14.4824  14.5266  14.6691  14.7052  14.7140  14.7156  14.8750  14.8750
    14.8943  14.8943  14.9340  14.9340  15.1404  15.1404  15.3585  15.3695
    15.6880  15.6880  15.7479  15.7716  15.7973  15.8263  15.8263  15.8894
    15.9731  16.0409  16.1946  16.1947  16.4290  16.4290  16.4693  16.4694
    16.5179  16.5179  16.5484  16.7092  16.7565  16.7722  16.8022  16.9193
    16.9193  16.9264  16.9973  16.9973  17.0039  17.0522  17.0705  17.1345
    17.1512  17.1541  17.1574  17.1645  17.3429  17.3816  17.3816  17.4063
    17.5592  17.5775  17.5775  17.8002  17.9026  17.9921  17.9921  18.0504
    18.0504  18.1412  18.2883  18.2883  18.4926  18.4926  18.7073  18.7073
    19.1685  19.1686

          k = 0.0548 0.0548 0.3834 ( 12531 PWs)   bands (ev):

   -70.0162 -69.9986 -69.9630 -69.9630 -69.9599 -69.9599 -69.9542 -69.9538
   -69.9537 -69.9533 -69.9532 -69.9526 -69.9524 -69.9508 -69.9242 -69.9101
   -36.1892 -36.1890 -36.1890 -36.1884 -36.1753 -36.1753 -36.1410 -36.1391
   -36.1370 -36.1370 -36.1173 -36.1172 -36.1168 -36.1036 -36.0902 -36.0811
   -36.0533 -36.0439 -36.0092 -36.0008 -35.9864 -35.9817 -35.9786 -35.9786
   -35.9738 -35.9738 -35.9591 -35.9591 -35.9577 -35.9577 -35.9416 -35.9119
   -35.9089 -35.9044 -35.9044 -35.8877 -35.8847 -35.8841 -35.8840 -35.8819
   -35.8647 -35.8645 -35.8644 -35.8644 -35.8541 -35.8502 -35.8502 -35.8497
    10.3799  11.4030  13.2826  13.2826  13.3293  13.3293  13.4384  13.4384
    13.5391  13.5557  13.6270  13.6270  13.6662  13.6774  13.8105  13.9967
    14.2398  14.2488  14.6529  14.6680  14.6802  14.6873  15.0164  15.0164
    15.0417  15.0418  15.0970  15.0970  15.2329  15.2330  15.4585  15.4585
    15.5671  15.5671  15.6590  15.6673  15.7512  15.7512  15.7722  15.7989
    15.8168  15.8255  15.9444  15.9444  16.0796  16.1922  16.3704  16.4038
    16.4489  16.6143  16.6337  16.6337  16.6473  16.6473  16.8402  16.8402
    16.9180  16.9180  16.9750  17.0673  17.0746  17.0809  17.0852  17.1343
    17.1363  17.1400  17.1520  17.1669  17.2126  17.2590  17.5417  17.6173
    17.6173  17.6468  17.7432  17.8117  17.8117  17.9353  17.9353  18.0405
    18.1245  18.1245  18.1802  18.1802  18.3556  18.3556  18.8562  18.8563
    19.1284  19.1284

          k = 0.0548 0.0548-0.4930 ( 12548 PWs)   bands (ev):

   -70.0082 -70.0079 -69.9617 -69.9617 -69.9614 -69.9614 -69.9537 -69.9536
   -69.9534 -69.9533 -69.9532 -69.9532 -69.9521 -69.9514 -69.9166 -69.9163
   -36.1668 -36.1665 -36.1665 -36.1662 -36.1649 -36.1649 -36.1649 -36.1649
   -36.1478 -36.1478 -36.1478 -36.1478 -36.1119 -36.1117 -36.0734 -36.0731
   -36.0639 -36.0637 -35.9981 -35.9978 -35.9918 -35.9914 -35.9766 -35.9766
   -35.9763 -35.9763 -35.9584 -35.9584 -35.9581 -35.9581 -35.9118 -35.9115
   -35.8863 -35.8860 -35.8852 -35.8849 -35.8829 -35.8829 -35.8828 -35.8828
   -35.8695 -35.8692 -35.8653 -35.8653 -35.8652 -35.8652 -35.8641 -35.8639
    10.8497  10.8498  13.3260  13.3260  13.3261  13.3261  13.5477  13.5477
    13.5479  13.5479  13.6866  13.6866  13.7562  13.7562  13.9494  13.9495
    13.9536  13.9538  14.6595  14.6597  14.6671  14.6673  15.1935  15.1935
    15.1935  15.1935  15.2566  15.2566  15.2567  15.2567  15.4028  15.4028
    15.4028  15.4029  15.5444  15.5445  15.5445  15.5445  15.7882  15.7884
    15.8074  15.8077  16.0171  16.0174  16.0228  16.0231  16.2129  16.2131
    16.4144  16.4145  16.7436  16.7436  16.7437  16.7437  16.8009  16.8009
    16.8010  16.8010  17.1102  17.1104  17.1109  17.1112  17.1459  17.1461
    17.1510  17.1512  17.1770  17.1771  17.2586  17.2589  17.3624  17.3628
    17.8094  17.8094  17.8094  17.8094  17.9056  17.9058  18.0170  18.0170
    18.0170  18.0170  18.2273  18.2273  18.2274  18.2274  19.0093  19.0093
    19.0093  19.0093

          k = 0.0548 0.1643 0.1643 ( 12556 PWs)   bands (ev):

   -70.0248 -69.9762 -69.9762 -69.9647 -69.9600 -69.9566 -69.9566 -69.9541
   -69.9534 -69.9533 -69.9514 -69.9512 -69.9498 -69.9436 -69.9436 -69.9033
   -36.2194 -36.2143 -36.2143 -36.2087 -36.2087 -36.2007 -36.1230 -36.1092
   -36.1001 -36.0971 -36.0971 -36.0940 -36.0914 -36.0861 -36.0692 -36.0378
   -36.0269 -36.0269 -36.0064 -36.0064 -36.0036 -35.9854 -35.9773 -35.9773
   -35.9751 -35.9725 -35.9725 -35.9647 -35.9647 -35.9599 -35.9598 -35.9556
   -35.9448 -35.9376 -35.9332 -35.9332 -35.9162 -35.9069 -35.9069 -35.8594
   -35.8497 -35.8438 -35.8438 -35.8385 -35.8385 -35.8379 -35.8309 -35.8304
     9.8885  12.6849  12.6849  13.1500  13.2669  13.2755  13.2755  13.3305
    13.3309  13.3309  13.3471  13.3546  13.6551  13.8385  13.8385  14.5353
    14.5735  14.5735  14.6332  14.7661  14.7661  14.7856  14.7978  14.7978
    14.7986  14.8329  14.8949  14.9057  15.0917  15.1230  15.1368  15.4134
    15.4134  15.7323  15.7880  15.8135  15.8136  15.8628  15.9768  15.9812
    16.2251  16.2251  16.2707  16.2707  16.2888  16.3341  16.4551  16.5658
    16.5658  16.5740  16.5740  16.8150  16.8150  16.8729  16.9061  16.9211
    16.9351  16.9351  16.9430  16.9936  16.9936  17.0465  17.0465  17.1112
    17.1537  17.1603  17.1608  17.1700  17.2582  17.4331  17.5069  17.5327
    17.5327  17.5369  17.5369  17.6219  17.6220  17.8262  17.8796  17.8796
    18.0183  18.0626  18.2223  18.3861  18.4031  18.6893  19.2741  19.2741
    19.4147  19.4147

          k = 0.0548 0.1643 0.2739 ( 12535 PWs)   bands (ev):

   -70.0205 -69.9870 -69.9747 -69.9638 -69.9634 -69.9580 -69.9559 -69.9539
   -69.9531 -69.9529 -69.9521 -69.9503 -69.9490 -69.9440 -69.9339 -69.9066
   -36.2108 -36.2026 -36.2025 -36.1982 -36.1935 -36.1807 -36.1272 -36.1240
   -36.1205 -36.1135 -36.1114 -36.1114 -36.1006 -36.0930 -36.0803 -36.0585
   -36.0300 -36.0298 -36.0034 -36.0012 -36.0011 -35.9965 -35.9867 -35.9820
   -35.9807 -35.9761 -35.9712 -35.9635 -35.9614 -35.9515 -35.9500 -35.9350
   -35.9340 -35.9227 -35.9180 -35.9106 -35.8980 -35.8858 -35.8854 -35.8794
   -35.8640 -35.8525 -35.8524 -35.8490 -35.8456 -35.8439 -35.8332 -35.8327
    10.1363  12.0943  12.8014  13.1265  13.3194  13.3495  13.4172  13.4430
    13.4456  13.4484  13.4626  13.4965  13.7079  13.8609  13.9074  14.2918
    14.4312  14.5069  14.6371  14.7203  14.7399  14.7653  14.7996  14.8306
    14.8519  14.8679  14.9024  15.0448  15.0477  15.2702  15.3051  15.3521
    15.5906  15.6060  15.6880  15.6934  15.7321  15.7762  15.7871  15.8987
    16.0021  16.0936  16.1413  16.2282  16.3466  16.4101  16.4372  16.4717
    16.4917  16.5481  16.5570  16.5926  16.5960  16.7386  16.7809  16.7919
    16.8289  16.9369  16.9768  16.9959  17.0210  17.0439  17.0485  17.1408
    17.1505  17.1604  17.1797  17.1846  17.2661  17.3877  17.4022  17.4055
    17.5357  17.5696  17.5862  17.6100  17.6148  17.7253  17.7649  17.8278
    17.9412  18.1895  18.1952  18.2087  18.3867  18.8650  19.0602  19.5901
    19.6763  19.9961

          k = 0.0548 0.1643 0.3834 ( 12544 PWs)   bands (ev):

   -70.0143 -69.9973 -69.9724 -69.9666 -69.9626 -69.9595 -69.9551 -69.9536
   -69.9531 -69.9529 -69.9523 -69.9509 -69.9472 -69.9447 -69.9251 -69.9114
   -36.1960 -36.1857 -36.1851 -36.1830 -36.1727 -36.1550 -36.1509 -36.1428
   -36.1388 -36.1385 -36.1287 -36.1211 -36.1205 -36.0921 -36.0879 -36.0637
   -36.0518 -36.0236 -36.0182 -35.9993 -35.9960 -35.9920 -35.9885 -35.9856
   -35.9795 -35.9792 -35.9653 -35.9628 -35.9622 -35.9450 -35.9375 -35.9261
   -35.9080 -35.9050 -35.9012 -35.8981 -35.8901 -35.8819 -35.8804 -35.8674
   -35.8661 -35.8653 -35.8646 -35.8645 -35.8571 -35.8525 -35.8403 -35.8397
    10.4981  11.5036  12.9308  13.0958  13.3750  13.4109  13.5250  13.5734
    13.5826  13.6130  13.6895  13.7064  13.7251  13.8145  13.8555  14.0318
    14.2472  14.2683  14.6801  14.7094  14.7169  14.7290  14.8203  14.9339
    14.9735  14.9855  15.0331  15.0811  15.2254  15.3180  15.4591  15.5041
    15.5274  15.5303  15.5582  15.5843  15.6603  15.6673  15.7184  15.7263
    15.7319  15.7627  15.8872  16.0440  16.1556  16.2266  16.2278  16.3321
    16.5517  16.6333  16.6402  16.6467  16.6583  16.6600  16.7460  16.7536
    16.8610  16.9142  16.9589  17.0289  17.0415  17.0573  17.0668  17.1200
    17.1281  17.1614  17.1874  17.1997  17.2362  17.3115  17.3376  17.4111
    17.4545  17.5202  17.5776  17.6273  17.6301  17.7095  17.8949  17.9163
    17.9831  17.9907  18.1451  18.3047  18.3782  18.8352  19.0885  19.5327
    19.8021  20.0930

          k = 0.0548 0.1643-0.4930 ( 12532 PWs)   bands (ev):

   -70.0066 -70.0063 -69.9699 -69.9696 -69.9612 -69.9609 -69.9542 -69.9540
   -69.9534 -69.9530 -69.9518 -69.9513 -69.9460 -69.9456 -69.9177 -69.9174
   -36.1756 -36.1756 -36.1643 -36.1641 -36.1640 -36.1638 -36.1632 -36.1631
   -36.1476 -36.1475 -36.1269 -36.1268 -36.1250 -36.1250 -36.0716 -36.0713
   -36.0447 -36.0446 -36.0052 -36.0049 -35.9944 -35.9942 -35.9883 -35.9879
   -35.9830 -35.9828 -35.9624 -35.9621 -35.9409 -35.9406 -35.9341 -35.9339
   -35.9028 -35.9027 -35.8845 -35.8842 -35.8816 -35.8814 -35.8801 -35.8801
   -35.8722 -35.8719 -35.8648 -35.8648 -35.8521 -35.8520 -35.8508 -35.8508
    10.9608  10.9609  13.0345  13.0346  13.4162  13.4163  13.6334  13.6335
    13.7062  13.7063  13.7322  13.7322  13.8031  13.8032  13.9749  13.9750
    13.9903  13.9904  14.6848  14.6849  14.7046  14.7048  15.0874  15.0875
    15.0898  15.0898  15.1147  15.1148  15.1443  15.1443  15.4714  15.4714
    15.4871  15.4871  15.5582  15.5582  15.6532  15.6533  15.6546  15.6546
    15.7472  15.7474  15.8529  15.8531  15.8567  15.8570  16.3798  16.3799
    16.4951  16.4951  16.6866  16.6867  16.7675  16.7675  16.7941  16.7941
    16.8261  16.8261  17.0245  17.0247  17.0935  17.0937  17.0953  17.0955
    17.1268  17.1270  17.1668  17.1669  17.2431  17.2431  17.3019  17.3022
    17.4848  17.4849  17.5942  17.5943  17.7755  17.7755  17.8314  17.8314
    18.0376  18.0377  18.1671  18.1672  18.6029  18.6029  19.3235  19.3235
    19.9955  19.9955

          k = 0.0548 0.2739 0.2739 ( 12530 PWs)   bands (ev):

   -70.0165 -69.9849 -69.9849 -69.9684 -69.9630 -69.9573 -69.9573 -69.9536
   -69.9530 -69.9527 -69.9525 -69.9505 -69.9451 -69.9349 -69.9349 -69.9096
   -36.2072 -36.1924 -36.1924 -36.1852 -36.1852 -36.1576 -36.1359 -36.1356
   -36.1356 -36.1319 -36.1258 -36.1232 -36.1079 -36.0927 -36.0627 -36.0307
   -36.0287 -36.0287 -36.0258 -36.0258 -35.9978 -35.9927 -35.9921 -35.9855
   -35.9855 -35.9751 -35.9751 -35.9700 -35.9700 -35.9653 -35.9404 -35.9175
   -35.9138 -35.9138 -35.9069 -35.9040 -35.9035 -35.8866 -35.8816 -35.8671
   -35.8671 -35.8577 -35.8577 -35.8529 -35.8522 -35.8522 -35.8309 -35.8303
    10.3779  12.2537  12.2538  13.0116  13.4581  13.4948  13.4948  13.5307
    13.5645  13.5784  13.5816  13.5816  13.7991  13.9335  13.9336  14.3767
    14.3843  14.3843  14.4375  14.7595  14.7689  14.8121  14.8121  14.8242
    14.8489  14.8489  14.9119  14.9551  15.2047  15.2249  15.2821  15.4811
    15.4811  15.5597  15.5597  15.5629  15.6039  15.6256  15.6891  15.7479
    16.0227  16.0227  16.1589  16.1589  16.2139  16.2139  16.2435  16.3837
    16.4417  16.4418  16.5423  16.6200  16.7272  16.7272  16.7464  16.7941
    16.9575  16.9708  16.9708  16.9865  16.9865  17.0009  17.0009  17.0379
    17.0811  17.1204  17.1361  17.1708  17.2032  17.3186  17.3521  17.3521
    17.3748  17.3748  17.4294  17.5764  17.6345  17.6345  17.6450  17.9340
    17.9340  17.9807  18.2514  18.4084  18.4310  19.1274  19.6746  19.6746
    20.3074  20.3074

          k = 0.0548 0.2739 0.3834 ( 12541 PWs)   bands (ev):

   -70.0106 -69.9945 -69.9817 -69.9733 -69.9618 -69.9588 -69.9563 -69.9541
   -69.9533 -69.9527 -69.9521 -69.9509 -69.9417 -69.9366 -69.9267 -69.9140
   -36.1966 -36.1779 -36.1778 -36.1738 -36.1681 -36.1593 -36.1457 -36.1421
   -36.1421 -36.1419 -36.1410 -36.1292 -36.1271 -36.0806 -36.0630 -36.0466
   -36.0426 -36.0233 -36.0197 -36.0028 -35.9987 -35.9978 -35.9966 -35.9943
   -35.9934 -35.9901 -35.9782 -35.9696 -35.9679 -35.9492 -35.9326 -35.9319
   -35.9183 -35.9019 -35.8986 -35.8946 -35.8916 -35.8891 -35.8751 -35.8660
   -35.8658 -35.8644 -35.8636 -35.8574 -35.8520 -35.8513 -35.8333 -35.8329
    10.7297  11.6962  12.4600  12.8643  13.5504  13.5532  13.6479  13.6880
    13.6895  13.7372  13.7385  13.8053  13.8417  13.8907  13.8950  14.1471
    14.2633  14.2754  14.5873  14.7291  14.7648  14.7665  14.7901  14.7992
    14.9018  14.9312  14.9320  15.0033  15.2102  15.3059  15.3589  15.4106
    15.4120  15.4849  15.5219  15.5384  15.5434  15.5614  15.6277  15.6719
    15.7151  15.7612  15.8389  15.8897  15.9271  15.9828  16.4107  16.4605
    16.5057  16.6436  16.6696  16.6812  16.6884  16.7177  16.7242  16.7868
    16.9021  16.9184  16.9198  16.9426  17.0000  17.0166  17.0215  17.0280
    17.0900  17.1072  17.1304  17.1860  17.1930  17.2213  17.2403  17.2616
    17.3223  17.4073  17.4279  17.4285  17.4443  17.6045  17.6599  17.7570
    18.0757  18.1241  18.2422  18.3690  18.7271  19.3627  19.4404  20.0660
    20.3175  20.9152

          k = 0.0548 0.2739-0.4930 ( 12514 PWs)   bands (ev):

   -70.0034 -70.0030 -69.9780 -69.9776 -69.9605 -69.9602 -69.9553 -69.9551
   -69.9531 -69.9527 -69.9517 -69.9512 -69.9390 -69.9386 -69.9199 -69.9195
   -36.1800 -36.1800 -36.1604 -36.1603 -36.1603 -36.1601 -36.1601 -36.1598
   -36.1479 -36.1479 -36.1441 -36.1440 -36.0971 -36.0971 -36.0652 -36.0650
   -36.0211 -36.0210 -36.0120 -36.0117 -36.0112 -36.0110 -35.9934 -35.9932
   -35.9866 -35.9863 -35.9692 -35.9690 -35.9641 -35.9640 -35.9245 -35.9245
   -35.9245 -35.9242 -35.8802 -35.8800 -35.8778 -35.8775 -35.8775 -35.8773
   -35.8763 -35.8763 -35.8650 -35.8650 -35.8404 -35.8404 -35.8399 -35.8399
    11.1767  11.1768  12.6754  12.6755  13.5829  13.5830  13.7793  13.7794
    13.7907  13.7909  13.8056  13.8056  13.9307  13.9307  14.0158  14.0159
    14.0533  14.0534  14.7311  14.7312  14.7504  14.7506  14.8754  14.8755
    14.9144  14.9145  14.9527  14.9527  15.1374  15.1374  15.4976  15.4977
    15.5012  15.5013  15.5220  15.5221  15.6041  15.6043  15.6191  15.6193
    15.6549  15.6549  15.6782  15.6784  15.6828  15.6828  16.5888  16.5888
    16.6173  16.6173  16.6655  16.6656  16.7360  16.7361  16.8053  16.8053
    16.8153  16.8153  16.8163  16.8163  17.0544  17.0546  17.0652  17.0654
    17.0827  17.0829  17.1540  17.1543  17.2079  17.2080  17.2110  17.2111
    17.3069  17.3070  17.4467  17.4468  17.5185  17.5185  17.6404  17.6404
    18.1812  18.1813  18.2726  18.2726  19.0440  19.0440  19.7643  19.7643
    20.9767  20.9768

          k = 0.0548 0.3834 0.3834 ( 12500 PWs)   bands (ev):

   -70.0052 -69.9905 -69.9905 -69.9797 -69.9606 -69.9577 -69.9577 -69.9552
   -69.9529 -69.9522 -69.9522 -69.9511 -69.9368 -69.9293 -69.9293 -69.9178
   -36.1904 -36.1679 -36.1679 -36.1621 -36.1621 -36.1618 -36.1618 -36.1525
   -36.1498 -36.1483 -36.1472 -36.1369 -36.0991 -36.0695 -36.0386 -36.0386
   -36.0309 -36.0308 -36.0217 -36.0200 -36.0162 -36.0024 -36.0024 -36.0010
   -35.9901 -35.9773 -35.9773 -35.9729 -35.9728 -35.9728 -35.9639 -35.9240
   -35.9197 -35.9010 -35.9010 -35.8863 -35.8820 -35.8803 -35.8733 -35.8701
   -35.8689 -35.8689 -35.8647 -35.8647 -35.8401 -35.8401 -35.8309 -35.8305
    11.0641  11.9619  11.9620  12.5836  13.7051  13.7328  13.7836  13.7863
    13.7863  13.8865  13.8865  13.9031  13.9031  13.9143  13.9657  14.2170
    14.2454  14.3526  14.3526  14.7255  14.7489  14.7583  14.8230  14.8230
    14.8260  14.8260  14.8420  14.9121  15.0674  15.2945  15.3151  15.3151
    15.3577  15.4352  15.4587  15.4962  15.5644  15.5644  15.5815  15.5815
    15.5961  15.5961  15.6285  15.6682  15.8002  16.1657  16.1657  16.6098
    16.6689  16.6727  16.6728  16.7290  16.7492  16.7645  16.7979  16.7979
    16.7990  16.8986  16.9484  16.9485  16.9583  16.9583  16.9797  17.0331
    17.0331  17.0449  17.0467  17.0707  17.1356  17.1356  17.1928  17.2169
    17.2885  17.3177  17.3177  17.3955  17.4757  17.4757  17.5252  17.5379
    18.2273  18.2273  18.2912  18.3778  19.1134  19.8404  19.9174  19.9174
    20.6476  20.6476

          k = 0.0548 0.3834-0.4930 ( 12520 PWs)   bands (ev):

   -69.9987 -69.9983 -69.9857 -69.9853 -69.9594 -69.9591 -69.9566 -69.9564
   -69.9527 -69.9523 -69.9519 -69.9514 -69.9328 -69.9324 -69.9232 -69.9228
   -36.1787 -36.1787 -36.1598 -36.1597 -36.1575 -36.1574 -36.1571 -36.1569
   -36.1555 -36.1553 -36.1490 -36.1489 -36.0657 -36.0657 -36.0556 -36.0553
   -36.0285 -36.0282 -36.0140 -36.0139 -36.0038 -36.0037 -35.9978 -35.9978
   -35.9963 -35.9962 -35.9848 -35.9847 -35.9761 -35.9760 -35.9477 -35.9477
   -35.9096 -35.9093 -35.8861 -35.8858 -35.8747 -35.8744 -35.8744 -35.8743
   -35.8735 -35.8734 -35.8668 -35.8668 -35.8332 -35.8332 -35.8331 -35.8330
    11.4838  11.4839  12.2707  12.2708  13.7912  13.7913  13.8209  13.8209
    13.8500  13.8500  13.9814  13.9815  14.0364  14.0364  14.1183  14.1183
    14.1242  14.1242  14.6171  14.6172  14.7562  14.7562  14.7642  14.7643
    14.7734  14.7735  14.8329  14.8330  15.1732  15.1733  15.3591  15.3591
    15.3995  15.3997  15.4346  15.4348  15.4375  15.4377  15.4560  15.4561
    15.6301  15.6303  15.6508  15.6509  15.8837  15.8837  16.4362  16.4363
    16.7069  16.7071  16.7286  16.7287  16.8111  16.8111  16.8216  16.8216
    16.8519  16.8519  16.8840  16.8841  16.9770  16.9772  16.9953  16.9954
    17.0185  17.0187  17.0310  17.0312  17.0692  17.0694  17.2562  17.2563
    17.2848  17.2848  17.3581  17.3582  17.3592  17.3592  17.5029  17.5029
    18.2852  18.2852  18.3303  18.3303  19.5140  19.5141  20.2521  20.2522
    20.4861  20.4862

          k = 0.0548-0.4930-0.4930 ( 12504 PWs)   bands (ev):

   -69.9928 -69.9925 -69.9925 -69.9922 -69.9582 -69.9579 -69.9579 -69.9576
   -69.9524 -69.9520 -69.9520 -69.9516 -69.9276 -69.9273 -69.9273 -69.9269
   -36.1714 -36.1713 -36.1713 -36.1713 -36.1561 -36.1560 -36.1560 -36.1558
   -36.1516 -36.1515 -36.1515 -36.1513 -36.0432 -36.0430 -36.0430 -36.0427
   -36.0320 -36.0319 -36.0319 -36.0319 -36.0114 -36.0114 -36.0114 -36.0113
   -35.9816 -35.9815 -35.9815 -35.9815 -35.9718 -35.9718 -35.9718 -35.9718
   -35.8969 -35.8966 -35.8966 -35.8963 -35.8729 -35.8728 -35.8728 -35.8727
   -35.8701 -35.8700 -35.8700 -35.8699 -35.8309 -35.8308 -35.8308 -35.8308
    11.8595  11.8596  11.8596  11.8597  13.8500  13.8500  13.8500  13.8500
    13.9688  13.9688  13.9688  13.9689  14.1166  14.1167  14.1167  14.1167
    14.3600  14.3601  14.3601  14.3602  14.7212  14.7212  14.7212  14.7212
    14.7728  14.7728  14.7728  14.7728  15.2487  15.2488  15.2488  15.2488
    15.3582  15.3584  15.3584  15.3586  15.4027  15.4028  15.4028  15.4030
    15.6212  15.6213  15.6213  15.6215  16.1476  16.1476  16.1476  16.1477
    16.8046  16.8046  16.8046  16.8046  16.8165  16.8167  16.8167  16.8170
    16.9223  16.9224  16.9224  16.9226  16.9560  16.9561  16.9561  16.9562
    17.0093  17.0095  17.0095  17.0097  17.0524  17.0525  17.0525  17.0525
    17.3012  17.3013  17.3013  17.3014  17.4164  17.4164  17.4164  17.4164
    18.3356  18.3356  18.3356  18.3356  19.9972  19.9973  19.9973  19.9974
    20.7546  20.7547

          k = 0.1643 0.1643 0.1643 ( 12545 PWs)   bands (ev):

   -70.0226 -69.9755 -69.9755 -69.9755 -69.9596 -69.9596 -69.9596 -69.9523
   -69.9511 -69.9511 -69.9511 -69.9495 -69.9438 -69.9438 -69.9438 -69.9049
   -36.2133 -36.2132 -36.2132 -36.1964 -36.1964 -36.1964 -36.1186 -36.1186
   -36.1142 -36.1089 -36.1089 -36.1089 -36.0806 -36.0714 -36.0714 -36.0431
   -36.0431 -36.0431 -36.0109 -36.0109 -36.0109 -35.9808 -35.9808 -35.9808
   -35.9705 -35.9705 -35.9601 -35.9601 -35.9601 -35.9578 -35.9578 -35.9578
   -35.9348 -35.9348 -35.9348 -35.9273 -35.8956 -35.8956 -35.8956 -35.8732
   -35.8525 -35.8525 -35.8524 -35.8366 -35.8365 -35.8365 -35.8346 -35.8346
    10.0131  12.7566  12.7566  12.7566  13.2441  13.2441  13.2441  13.4042
    13.4042  13.4147  13.4147  13.4147  13.8869  13.8869  13.8870  14.4610
    14.5628  14.5628  14.5628  14.7167  14.7167  14.7840  14.7840  14.7840
    14.8776  14.8776  14.8777  15.0469  15.0469  15.0475  15.3168  15.3168
    15.3168  15.7225  15.7225  15.7573  15.7573  15.7573  16.0794  16.1070
    16.1071  16.1071  16.2339  16.2339  16.2339  16.2816  16.2816  16.2816
    16.6320  16.6320  16.6320  16.8446  16.8446  16.8446  16.8993  16.8993
    16.9326  16.9326  16.9326  17.0874  17.0874  17.0874  17.1137  17.1137
    17.1137  17.1427  17.1427  17.1427  17.1487  17.1487  17.1738  17.1738
    17.6063  17.6112  17.6112  17.6112  17.6407  17.6407  17.6407  18.0680
    18.0680  18.0680  18.1145  18.1145  18.9172  18.9172  18.9172  19.5383
    19.5383  19.5383

          k = 0.1643 0.1643 0.2739 ( 12529 PWs)   bands (ev):

   -70.0185 -69.9859 -69.9739 -69.9739 -69.9628 -69.9628 -69.9588 -69.9535
   -69.9508 -69.9496 -69.9489 -69.9488 -69.9442 -69.9442 -69.9343 -69.9081
   -36.2051 -36.2051 -36.2011 -36.1880 -36.1778 -36.1777 -36.1294 -36.1286
   -36.1286 -36.1263 -36.1213 -36.1094 -36.1039 -36.0681 -36.0681 -36.0644
   -36.0557 -36.0356 -36.0132 -36.0117 -36.0117 -35.9913 -35.9887 -35.9887
   -35.9825 -35.9761 -35.9627 -35.9518 -35.9518 -35.9393 -35.9388 -35.9387
   -35.9368 -35.9368 -35.9110 -35.9096 -35.8951 -35.8801 -35.8801 -35.8771
   -35.8642 -35.8642 -35.8580 -35.8476 -35.8428 -35.8382 -35.8382 -35.8346
    10.2582  12.1827  12.8809  12.8810  13.2246  13.2246  13.4255  13.5023
    13.5105  13.5262  13.5262  13.5751  13.9314  13.9314  13.9637  14.2979
    14.3885  14.5938  14.5979  14.5979  14.6836  14.7577  14.8305  14.8493
    14.8493  14.8957  14.9994  14.9994  15.1311  15.2306  15.2306  15.2393
    15.4839  15.6054  15.6054  15.6593  15.6709  15.7042  15.8607  15.8607
    15.8895  15.8895  16.1162  16.2094  16.2771  16.3101  16.4038  16.4038
    16.4425  16.4426  16.4893  16.6741  16.6741  16.8147  16.8548  16.8671
    16.8672  16.9074  16.9494  16.9792  17.0214  17.0215  17.0460  17.1185
    17.1331  17.1438  17.1642  17.1983  17.2294  17.2294  17.2596  17.2596
    17.3390  17.3786  17.7096  17.7096  17.7314  17.7381  17.7381  17.7814
    17.9193  18.1300  18.1300  18.1502  18.6280  18.6280  19.5448  19.7532
    19.7532  20.4056

          k = 0.1643 0.1643 0.3834 ( 12537 PWs)   bands (ev):

   -70.0125 -69.9959 -69.9717 -69.9717 -69.9660 -69.9660 -69.9577 -69.9549
   -69.9504 -69.9496 -69.9472 -69.9472 -69.9449 -69.9449 -69.9259 -69.9126
   -36.1911 -36.1911 -36.1834 -36.1761 -36.1541 -36.1541 -36.1508 -36.1508
   -36.1456 -36.1339 -36.1308 -36.1288 -36.0972 -36.0971 -36.0959 -36.0585
   -36.0461 -36.0389 -36.0088 -36.0088 -36.0052 -36.0048 -35.9966 -35.9966
   -35.9822 -35.9770 -35.9682 -35.9467 -35.9467 -35.9395 -35.9395 -35.9215
   -35.9172 -35.9172 -35.9105 -35.8929 -35.8896 -35.8795 -35.8795 -35.8666
   -35.8650 -35.8650 -35.8641 -35.8610 -35.8550 -35.8437 -35.8437 -35.8397
    10.6158  11.6053  13.0205  13.0205  13.1960  13.1960  13.6461  13.6503
    13.6570  13.6570  13.6800  13.7942  13.8979  13.8979  13.9181  14.0505
    14.2580  14.3075  14.6798  14.7259  14.7562  14.7562  14.7759  14.7796
    14.9557  14.9557  15.1281  15.1281  15.1827  15.1827  15.3747  15.4644
    15.4905  15.4905  15.5109  15.5109  15.5852  15.6157  15.6172  15.6617
    15.6617  15.6779  15.9285  15.9285  15.9337  16.0721  16.3609  16.4122
    16.4983  16.6304  16.6305  16.6950  16.7086  16.7086  16.7167  16.8042
    16.8042  16.9342  16.9342  17.0186  17.0359  17.0501  17.0576  17.1108
    17.1120  17.1248  17.1362  17.1382  17.2175  17.2452  17.3069  17.3069
    17.3458  17.3458  17.4853  17.6674  17.8753  17.8753  17.8831  17.8831
    17.9313  18.1030  18.1030  18.1258  18.3650  18.3650  20.0123  20.0123
    20.2060  20.4219

          k = 0.1643 0.1643-0.4930 ( 12494 PWs)   bands (ev):

   -70.0050 -70.0047 -69.9692 -69.9692 -69.9689 -69.9688 -69.9564 -69.9562
   -69.9501 -69.9497 -69.9461 -69.9460 -69.9457 -69.9457 -69.9187 -69.9184
   -36.1725 -36.1725 -36.1725 -36.1725 -36.1615 -36.1613 -36.1607 -36.1604
   -36.1317 -36.1316 -36.1265 -36.1265 -36.1265 -36.1265 -36.0788 -36.0785
   -36.0259 -36.0258 -36.0216 -36.0214 -36.0037 -36.0037 -36.0034 -36.0034
   -35.9738 -35.9735 -35.9510 -35.9509 -35.9426 -35.9426 -35.9424 -35.9424
   -35.8974 -35.8974 -35.8974 -35.8974 -35.8853 -35.8850 -35.8783 -35.8781
   -35.8708 -35.8705 -35.8524 -35.8524 -35.8524 -35.8523 -35.8486 -35.8485
    11.0721  11.0722  13.1323  13.1323  13.1324  13.1324  13.7909  13.7909
    13.7910  13.7910  13.7983  13.7984  13.8310  13.8310  13.9851  13.9852
    14.0404  14.0405  14.6969  14.6971  14.7484  14.7485  15.0164  15.0164
    15.0165  15.0165  15.0856  15.0857  15.0857  15.0857  15.4639  15.4639
    15.4639  15.4639  15.5940  15.5940  15.5940  15.5940  15.5996  15.5996
    15.6419  15.6421  15.6946  15.6948  15.7054  15.7055  16.5312  16.5312
    16.5530  16.5531  16.7503  16.7503  16.7504  16.7504  16.7624  16.7626
    16.8016  16.8016  16.8016  16.8016  17.0838  17.0840  17.0914  17.0916
    17.1059  17.1062  17.1317  17.1318  17.3321  17.3321  17.3493  17.3493
    17.3494  17.3495  17.3896  17.3899  18.0132  18.0132  18.0133  18.0133
    18.0497  18.0499  18.1104  18.1104  18.1104  18.1104  20.2594  20.2594
    20.2594  20.2594

          k = 0.1643 0.2739 0.2739 ( 12552 PWs)   bands (ev):

   -70.0145 -69.9838 -69.9838 -69.9725 -69.9678 -69.9619 -69.9618 -69.9552
   -69.9492 -69.9488 -69.9486 -69.9451 -69.9446 -69.9354 -69.9354 -69.9109
   -36.2011 -36.1936 -36.1936 -36.1723 -36.1723 -36.1564 -36.1383 -36.1382
   -36.1382 -36.1380 -36.1310 -36.1107 -36.1070 -36.0853 -36.0634 -36.0457
   -36.0395 -36.0395 -36.0361 -36.0361 -36.0188 -36.0014 -36.0014 -36.0014
   -35.9660 -35.9604 -35.9604 -35.9557 -35.9557 -35.9413 -35.9394 -35.9276
   -35.9219 -35.9184 -35.9135 -35.9135 -35.8968 -35.8794 -35.8718 -35.8661
   -35.8661 -35.8642 -35.8642 -35.8486 -35.8486 -35.8477 -35.8365 -35.8347
    10.4979  12.3467  12.3467  13.0216  13.1158  13.4139  13.4139  13.5915
    13.6210  13.6467  13.6838  13.6838  14.0135  14.0135  14.0297  14.3606
    14.3662  14.3662  14.5496  14.5665  14.7249  14.8157  14.8157  14.8929
    14.9180  14.9231  14.9231  15.0241  15.1148  15.1371  15.2032  15.3637
    15.3637  15.5343  15.5363  15.5416  15.5416  15.5849  15.6566  15.7296
    15.7795  15.7795  16.0255  16.0255  16.1063  16.1063  16.1719  16.3680
    16.4679  16.4679  16.5240  16.7565  16.8073  16.8230  16.8538  16.8538
    16.9300  16.9327  16.9327  16.9902  17.0042  17.0042  17.0507  17.0840
    17.1125  17.1207  17.1207  17.1394  17.1625  17.1625  17.1675  17.2265
    17.3046  17.3825  17.3825  17.7283  17.8200  17.8284  17.8284  17.8925
    17.8925  17.9192  18.1433  18.2072  18.3100  19.1723  19.1723  20.0285
    20.8313  20.8313

          k = 0.1643 0.2739 0.3834 ( 12532 PWs)   bands (ev):

   -70.0088 -69.9932 -69.9808 -69.9725 -69.9703 -69.9649 -69.9605 -69.9570
   -69.9489 -69.9485 -69.9472 -69.9451 -69.9418 -69.9370 -69.9275 -69.9151
   -36.1908 -36.1817 -36.1771 -36.1649 -36.1574 -36.1525 -36.1512 -36.1472
   -36.1426 -36.1381 -36.1330 -36.1302 -36.1067 -36.0950 -36.0697 -36.0584
   -36.0523 -36.0315 -36.0253 -36.0204 -36.0174 -36.0131 -36.0106 -36.0087
   -35.9821 -35.9649 -35.9598 -35.9500 -35.9464 -35.9421 -35.9380 -35.9321
   -35.9181 -35.9050 -35.9049 -35.8968 -35.8925 -35.8854 -35.8767 -35.8697
   -35.8636 -35.8634 -35.8590 -35.8525 -35.8517 -35.8514 -35.8382 -35.8365
    10.8463  11.8000  12.5591  12.9714  13.1841  13.3883  13.6796  13.7131
    13.7724  13.7742  13.8144  13.8960  13.9721  13.9815  14.0457  14.1491
    14.2932  14.3199  14.5611  14.6546  14.7183  14.7751  14.8186  14.8417
    14.9035  14.9796  14.9897  15.0467  15.1673  15.1701  15.2402  15.3251
    15.3404  15.4354  15.4425  15.4782  15.4861  15.5134  15.5296  15.5625
    15.6147  15.6535  15.7176  15.7631  15.7745  15.8195  16.2186  16.5437
    16.5475  16.6414  16.6599  16.7521  16.7531  16.7745  16.8117  16.8122
    16.8890  16.9179  16.9223  16.9471  16.9819  17.0104  17.0179  17.0801
    17.0827  17.1140  17.1394  17.1397  17.1456  17.1846  17.2099  17.2274
    17.2895  17.3046  17.5165  17.5784  17.5945  17.7595  17.8454  18.0190
    18.0241  18.0324  18.1471  18.2016  18.2032  18.8346  19.7548  20.3561
    20.9317  20.9710

          k = 0.1643 0.2739-0.4930 ( 12518 PWs)   bands (ev):

   -70.0018 -70.0015 -69.9771 -69.9768 -69.9679 -69.9676 -69.9590 -69.9586
   -69.9488 -69.9484 -69.9462 -69.9458 -69.9393 -69.9389 -69.9208 -69.9205
   -36.1758 -36.1758 -36.1669 -36.1668 -36.1566 -36.1564 -36.1563 -36.1561
   -36.1423 -36.1422 -36.1299 -36.1299 -36.1008 -36.1007 -36.0784 -36.0782
   -36.0355 -36.0353 -36.0235 -36.0233 -36.0174 -36.0172 -36.0039 -36.0038
   -35.9771 -35.9770 -35.9633 -35.9630 -35.9456 -35.9455 -35.9245 -35.9242
   -35.9164 -35.9164 -35.8898 -35.8898 -35.8829 -35.8826 -35.8761 -35.8759
   -35.8743 -35.8740 -35.8564 -35.8563 -35.8435 -35.8434 -35.8422 -35.8422
    11.2881  11.2883  12.7803  12.7804  13.3162  13.3164  13.8529  13.8529
    13.8903  13.8904  13.9489  13.9490  13.9525  13.9525  13.9964  13.9965
    14.1233  14.1234  14.7379  14.7380  14.7891  14.7892  14.8466  14.8467
    14.8675  14.8676  14.9922  14.9922  15.1014  15.1014  15.4314  15.4315
    15.4398  15.4400  15.4669  15.4669  15.4723  15.4724  15.4934  15.4936
    15.5398  15.5398  15.5688  15.5690  15.5691  15.5692  16.4669  16.4670
    16.6467  16.6468  16.7456  16.7456  16.7771  16.7772  16.7981  16.7981
    16.8026  16.8026  16.8509  16.8509  17.0484  17.0486  17.0678  17.0680
    17.0836  17.0838  17.1411  17.1412  17.1739  17.1740  17.2764  17.2766
    17.3352  17.3355  17.4015  17.4015  17.7655  17.7655  17.8109  17.8109
    18.1064  18.1065  18.1363  18.1363  18.5123  18.5123  20.3559  20.3560
    20.6798  20.6798

          k = 0.1643 0.3834 0.3834 ( 12503 PWs)   bands (ev):

   -70.0036 -69.9893 -69.9893 -69.9788 -69.9684 -69.9633 -69.9633 -69.9591
   -69.9480 -69.9473 -69.9472 -69.9455 -69.9371 -69.9299 -69.9299 -69.9189
   -36.1847 -36.1686 -36.1686 -36.1586 -36.1586 -36.1542 -36.1507 -36.1506
   -36.1480 -36.1474 -36.1400 -36.1198 -36.1021 -36.0854 -36.0529 -36.0522
   -36.0521 -36.0392 -36.0392 -36.0290 -36.0284 -36.0269 -36.0269 -36.0034
   -35.9758 -35.9594 -35.9593 -35.9593 -35.9535 -35.9535 -35.9455 -35.9189
   -35.9161 -35.8988 -35.8988 -35.8930 -35.8917 -35.8791 -35.8751 -35.8751
   -35.8687 -35.8626 -35.8626 -35.8624 -35.8429 -35.8429 -35.8362 -35.8350
    11.1789  12.0685  12.0686  12.6938  13.3840  13.6539  13.6539  13.8013
    13.8664  13.9459  13.9691  13.9691  14.0220  14.0220  14.1795  14.2123
    14.3150  14.3557  14.3557  14.5986  14.7576  14.7822  14.8420  14.8420
    14.8524  14.8524  14.9104  14.9481  15.0440  15.0978  15.2747  15.2798
    15.2798  15.3543  15.4102  15.4222  15.4222  15.4544  15.4667  15.4667
    15.4817  15.4894  15.4894  15.5633  15.6438  15.9446  15.9447  16.4523
    16.6863  16.6863  16.7428  16.7494  16.7935  16.7946  16.8922  16.8993
    16.9448  16.9448  16.9669  16.9757  16.9757  16.9847  16.9847  17.0395
    17.0466  17.1043  17.1043  17.1217  17.1528  17.1906  17.1906  17.2340
    17.2340  17.2705  17.3490  17.4064  17.6191  17.6191  17.6732  17.7510
    18.1239  18.1239  18.1797  18.2333  18.5654  19.3409  19.3409  20.4068
    20.7608  21.5258

          k = 0.1643 0.3834-0.4930 ( 12518 PWs)   bands (ev):

   -69.9972 -69.9969 -69.9846 -69.9842 -69.9661 -69.9658 -69.9615 -69.9611
   -69.9477 -69.9473 -69.9465 -69.9461 -69.9333 -69.9330 -69.9240 -69.9236
   -36.1735 -36.1735 -36.1603 -36.1602 -36.1551 -36.1551 -36.1537 -36.1535
   -36.1491 -36.1489 -36.1351 -36.1350 -36.0711 -36.0711 -36.0706 -36.0704
   -36.0426 -36.0425 -36.0419 -36.0416 -36.0314 -36.0314 -36.0074 -36.0074
   -35.9812 -35.9811 -35.9567 -35.9565 -35.9490 -35.9489 -35.9371 -35.9371
   -35.9079 -35.9077 -35.8831 -35.8830 -35.8824 -35.8821 -35.8767 -35.8765
   -35.8758 -35.8756 -35.8622 -35.8621 -35.8378 -35.8378 -35.8374 -35.8373
    11.5954  11.5955  12.3800  12.3802  13.5583  13.5584  13.8957  13.8958
    13.9327  13.9328  13.9551  13.9552  14.1462  14.1463  14.1467  14.1468
    14.2245  14.2245  14.6204  14.6205  14.7204  14.7205  14.7624  14.7625
    14.7884  14.7885  14.8961  14.8962  15.1459  15.1459  15.2357  15.2359
    15.3237  15.3239  15.3315  15.3315  15.3360  15.3361  15.3746  15.3747
    15.5194  15.5195  15.5220  15.5221  15.6949  15.6950  16.1756  16.1757
    16.7482  16.7482  16.8121  16.8121  16.8473  16.8474  16.8660  16.8661
    16.9529  16.9530  16.9802  16.9802  16.9893  16.9895  17.0243  17.0245
    17.0645  17.0646  17.0682  17.0683  17.1692  17.1693  17.1838  17.1841
    17.2335  17.2337  17.4533  17.4534  17.4846  17.4847  17.6366  17.6366
    18.1762  18.1762  18.2030  18.2030  18.9470  18.9471  19.8660  19.8661
    21.1715  21.1715

          k = 0.1643-0.4930-0.4930 ( 12516 PWs)   bands (ev):

   -69.9916 -69.9913 -69.9913 -69.9909 -69.9641 -69.9637 -69.9637 -69.9634
   -69.9471 -69.9468 -69.9468 -69.9464 -69.9283 -69.9280 -69.9280 -69.9276
   -36.1660 -36.1659 -36.1659 -36.1659 -36.1552 -36.1551 -36.1551 -36.1549
   -36.1418 -36.1416 -36.1416 -36.1415 -36.0581 -36.0579 -36.0579 -36.0576
   -36.0410 -36.0410 -36.0410 -36.0409 -36.0396 -36.0396 -36.0396 -36.0396
   -35.9586 -35.9586 -35.9586 -35.9586 -35.9524 -35.9524 -35.9524 -35.9523
   -35.8941 -35.8939 -35.8939 -35.8936 -35.8782 -35.8781 -35.8781 -35.8780
   -35.8691 -35.8690 -35.8690 -35.8689 -35.8359 -35.8359 -35.8359 -35.8359
    11.9707  11.9708  11.9708  11.9709  13.8000  13.8000  13.8000  13.8001
    13.9287  13.9287  13.9287  13.9287  14.2754  14.2754  14.2754  14.2755
    14.3772  14.3772  14.3772  14.3773  14.6706  14.6706  14.6706  14.6707
    14.8291  14.8291  14.8291  14.8291  15.2116  15.2118  15.2118  15.2120
    15.2224  15.2224  15.2224  15.2224  15.3194  15.3196  15.3196  15.3197
    15.5005  15.5006  15.5006  15.5007  15.9121  15.9122  15.9122  15.9122
    16.8148  16.8149  16.8149  16.8149  16.9172  16.9173  16.9173  16.9174
    17.0059  17.0061  17.0061  17.0063  17.0109  17.0111  17.0111  17.0113
    17.0287  17.0288  17.0288  17.0289  17.2003  17.2004  17.2004  17.2005
    17.2280  17.2280  17.2280  17.2280  17.5199  17.5200  17.5200  17.5201
    18.2146  18.2146  18.2146  18.2146  19.3992  19.3993  19.3993  19.3994
    21.6813  21.6814

          k = 0.2739 0.2739 0.2739 ( 12551 PWs)   bands (ev):

   -70.0109 -69.9818 -69.9817 -69.9817 -69.9665 -69.9665 -69.9665 -69.9577
   -69.9476 -69.9453 -69.9453 -69.9452 -69.9363 -69.9363 -69.9363 -69.9135
   -36.1893 -36.1893 -36.1893 -36.1541 -36.1541 -36.1541 -36.1443 -36.1443
   -36.1443 -36.1426 -36.1213 -36.1213 -36.0949 -36.0949 -36.0584 -36.0584
   -36.0584 -36.0445 -36.0445 -36.0445 -36.0252 -36.0168 -36.0168 -36.0168
   -35.9430 -35.9430 -35.9430 -35.9416 -35.9416 -35.9416 -35.9414 -35.9358
   -35.9358 -35.9146 -35.9146 -35.9146 -35.8878 -35.8768 -35.8768 -35.8768
   -35.8597 -35.8597 -35.8597 -35.8471 -35.8471 -35.8471 -35.8436 -35.8436
    10.7333  12.5200  12.5200  12.5200  13.3179  13.3179  13.3179  13.7048
    13.7048  13.8022  13.8022  13.8022  14.1358  14.1358  14.1358  14.3602
    14.3602  14.3602  14.3724  14.7080  14.7190  14.7190  14.8589  14.8589
    14.8589  15.0265  15.0265  15.0265  15.0345  15.0345  15.2449  15.2449
    15.2449  15.4495  15.4495  15.4495  15.4818  15.4818  15.4818  15.5478
    15.5478  15.7965  15.7965  15.7965  15.8520  15.8520  15.8520  16.5463
    16.5582  16.5582  16.5582  16.7460  16.8769  16.8769  16.9065  16.9065
    16.9065  16.9457  16.9457  16.9457  16.9826  16.9826  16.9826  17.0892
    17.0892  17.0892  17.1085  17.1085  17.2024  17.2024  17.2024  17.2245
    17.2245  17.5394  17.5394  17.5394  17.8632  17.8632  17.8632  17.9321
    17.9321  17.9321  17.9493  17.9493  18.7742  18.7742  18.7742  20.9695
    21.1143  21.1143

          k = 0.2739 0.2739 0.3834 ( 12507 PWs)   bands (ev):

   -70.0054 -69.9906 -69.9788 -69.9788 -69.9710 -69.9710 -69.9647 -69.9602
   -69.9466 -69.9454 -69.9422 -69.9422 -69.9377 -69.9377 -69.9289 -69.9174
   -36.1800 -36.1800 -36.1721 -36.1548 -36.1548 -36.1513 -36.1458 -36.1455
   -36.1332 -36.1319 -36.1319 -36.1241 -36.1072 -36.0820 -36.0820 -36.0765
   -36.0680 -36.0456 -36.0456 -36.0354 -36.0302 -36.0302 -36.0290 -36.0043
   -35.9686 -35.9619 -35.9438 -35.9409 -35.9322 -35.9322 -35.9226 -35.9225
   -35.9179 -35.9179 -35.9080 -35.8921 -35.8899 -35.8899 -35.8809 -35.8756
   -35.8629 -35.8561 -35.8546 -35.8546 -35.8504 -35.8477 -35.8477 -35.8420
    11.0744  11.9988  12.7460  12.7460  13.1787  13.1787  13.6048  13.8264
    13.8522  13.9297  13.9297  14.0106  14.1158  14.1455  14.1455  14.1616
    14.3379  14.3596  14.5078  14.5078  14.7371  14.8159  14.8661  14.9080
    14.9355  14.9369  14.9369  15.0580  15.0580  15.1420  15.1420  15.1626
    15.2613  15.2613  15.3477  15.3646  15.3646  15.3981  15.4037  15.4598
    15.4960  15.5162  15.5647  15.5648  15.5768  15.5768  15.9389  16.4406
    16.6286  16.6850  16.6850  16.7495  16.8033  16.9058  16.9058  16.9192
    16.9192  16.9508  16.9595  16.9595  17.0045  17.0168  17.0749  17.0952
    17.1050  17.1066  17.1066  17.1086  17.1773  17.1877  17.1919  17.1919
    17.2420  17.3201  17.6735  17.7025  17.8104  17.8104  17.8844  17.8844
    17.9589  17.9589  17.9640  18.0150  18.4321  18.4321  19.2885  20.3833
    21.4488  21.4488

          k = 0.2739 0.2739-0.4930 ( 12538 PWs)   bands (ev):

   -69.9988 -69.9984 -69.9754 -69.9754 -69.9751 -69.9750 -69.9627 -69.9624
   -69.9461 -69.9458 -69.9399 -69.9399 -69.9395 -69.9395 -69.9228 -69.9224
   -36.1678 -36.1677 -36.1677 -36.1677 -36.1504 -36.1501 -36.1487 -36.1485
   -36.1416 -36.1414 -36.1074 -36.1074 -36.1074 -36.1074 -36.0894 -36.0891
   -36.0565 -36.0563 -36.0404 -36.0404 -36.0402 -36.0402 -35.9987 -35.9987
   -35.9830 -35.9829 -35.9438 -35.9435 -35.9241 -35.9241 -35.9239 -35.9239
   -35.9052 -35.9052 -35.9052 -35.9052 -35.8836 -35.8833 -35.8768 -35.8767
   -35.8728 -35.8725 -35.8504 -35.8504 -35.8504 -35.8504 -35.8445 -35.8445
    11.5046  11.5047  12.9811  12.9811  12.9812  12.9812  13.9551  13.9551
    13.9808  13.9808  14.0040  14.0040  14.0521  14.0521  14.0521  14.0521
    14.2275  14.2276  14.7721  14.7723  14.7826  14.7826  14.7827  14.7827
    14.8271  14.8272  15.0380  15.0380  15.0380  15.0381  15.2050  15.2051
    15.2884  15.2885  15.3833  15.3834  15.3834  15.3834  15.3877  15.3878
    15.3879  15.3879  15.4081  15.4081  15.4294  15.4296  16.1618  16.1619
    16.7160  16.7160  16.8133  16.8133  16.8134  16.8134  16.9304  16.9304
    16.9305  16.9305  16.9666  16.9666  17.0382  17.0384  17.0421  17.0423
    17.1005  17.1006  17.1154  17.1155  17.1521  17.1521  17.1523  17.1523
    17.4360  17.4363  17.4672  17.4673  17.9317  17.9317  17.9317  17.9317
    18.0177  18.0178  18.1139  18.1139  18.1140  18.1140  19.8263  19.8264
    21.7470  21.7470

          k = 0.2739 0.3834 0.3834 ( 12517 PWs)   bands (ev):

   -70.0005 -69.9869 -69.9869 -69.9769 -69.9761 -69.9689 -69.9689 -69.9633
   -69.9450 -69.9428 -69.9428 -69.9389 -69.9378 -69.9312 -69.9312 -69.9209
   -36.1735 -36.1645 -36.1645 -36.1539 -36.1529 -36.1529 -36.1426 -36.1372
   -36.1348 -36.1348 -36.1274 -36.1076 -36.1043 -36.0982 -36.0829 -36.0690
   -36.0690 -36.0560 -36.0543 -36.0543 -36.0499 -36.0499 -36.0476 -35.9958
   -35.9828 -35.9418 -35.9418 -35.9317 -35.9317 -35.9307 -35.9196 -35.9170
   -35.9076 -35.9052 -35.8982 -35.8961 -35.8961 -35.8837 -35.8837 -35.8789
   -35.8626 -35.8619 -35.8619 -35.8574 -35.8484 -35.8484 -35.8464 -35.8443
    11.4026  12.2733  12.2733  12.9075  12.9941  13.4710  13.4710  13.9293
    14.0079  14.0252  14.1275  14.1275  14.1414  14.1414  14.1600  14.3318
    14.3578  14.3578  14.4274  14.4655  14.7853  14.8143  14.8785  14.8831
    14.8831  14.9049  14.9069  14.9069  15.0013  15.0454  15.0832  15.1956
    15.1956  15.2179  15.2179  15.2485  15.2657  15.2912  15.2912  15.3345
    15.3345  15.3629  15.3908  15.4093  15.4232  15.6721  15.6721  16.1359
    16.7358  16.7358  16.7674  16.8354  16.9079  16.9412  16.9492  16.9492
    16.9655  16.9795  17.0407  17.0413  17.0413  17.0486  17.0522  17.0944
    17.0944  17.0975  17.1032  17.1032  17.1546  17.1546  17.1662  17.2101
    17.3728  17.4978  17.4978  17.6018  17.7140  17.7140  17.7754  17.9650
    17.9650  17.9837  18.0042  18.0959  18.1479  18.8821  18.8821  19.8536
    21.8532  22.4761

          k = 0.2739 0.3834-0.4930 ( 12534 PWs)   bands (ev):

   -69.9944 -69.9941 -69.9825 -69.9821 -69.9729 -69.9726 -69.9664 -69.9661
   -69.9439 -69.9436 -69.9408 -69.9404 -69.9343 -69.9340 -69.9257 -69.9253
   -36.1635 -36.1635 -36.1573 -36.1572 -36.1464 -36.1463 -36.1458 -36.1455
   -36.1386 -36.1385 -36.1166 -36.1165 -36.0894 -36.0891 -36.0813 -36.0813
   -36.0696 -36.0694 -36.0614 -36.0612 -36.0576 -36.0575 -36.0250 -36.0250
   -35.9617 -35.9617 -35.9308 -35.9306 -35.9238 -35.9237 -35.9227 -35.9226
   -35.9049 -35.9047 -35.8944 -35.8944 -35.8801 -35.8800 -35.8797 -35.8794
   -35.8774 -35.8772 -35.8598 -35.8598 -35.8468 -35.8468 -35.8454 -35.8454
    11.8120  11.8121  12.5912  12.5913  13.2561  13.2563  13.8193  13.8193
    14.0366  14.0366  14.0918  14.0918  14.1886  14.1887  14.2714  14.2715
    14.3565  14.3566  14.6236  14.6237  14.6814  14.6815  14.7843  14.7844
    14.8290  14.8291  14.9629  14.9630  15.0453  15.0454  15.0961  15.0962
    15.1302  15.1303  15.1990  15.1992  15.2430  15.2431  15.2816  15.2817
    15.3301  15.3302  15.3645  15.3646  15.4414  15.4415  15.8682  15.8683
    16.7957  16.7958  16.8395  16.8396  16.8628  16.8629  16.9937  16.9939
    17.0051  17.0052  17.0583  17.0585  17.0606  17.0607  17.0678  17.0678
    17.1000  17.1002  17.1343  17.1345  17.1515  17.1516  17.2270  17.2270
    17.3809  17.3812  17.5103  17.5104  17.7301  17.7302  17.7889  17.7889
    17.9950  17.9950  17.9960  17.9961  18.5063  18.5064  19.3572  19.3573
    22.2436  22.2437

          k = 0.2739-0.4930-0.4930 ( 12528 PWs)   bands (ev):

   -69.9891 -69.9887 -69.9887 -69.9884 -69.9700 -69.9697 -69.9697 -69.9693
   -69.9424 -69.9420 -69.9420 -69.9416 -69.9297 -69.9294 -69.9294 -69.9290
   -36.1554 -36.1554 -36.1554 -36.1553 -36.1484 -36.1483 -36.1483 -36.1481
   -36.1275 -36.1274 -36.1274 -36.1273 -36.0787 -36.0785 -36.0785 -36.0783
   -36.0695 -36.0695 -36.0695 -36.0695 -36.0533 -36.0533 -36.0533 -36.0532
   -35.9416 -35.9415 -35.9415 -35.9415 -35.9249 -35.9249 -35.9249 -35.9248
   -35.8889 -35.8887 -35.8887 -35.8884 -35.8861 -35.8860 -35.8860 -35.8859
   -35.8706 -35.8705 -35.8705 -35.8703 -35.8454 -35.8454 -35.8454 -35.8454
    12.1862  12.1863  12.1863  12.1864  13.5616  13.5617  13.5617  13.5618
    14.0785  14.0785  14.0785  14.0785  14.4098  14.4098  14.4098  14.4099
    14.4531  14.4531  14.4531  14.4532  14.6181  14.6181  14.6181  14.6182
    14.8924  14.8924  14.8924  14.8924  15.0592  15.0594  15.0594  15.0595
    15.1447  15.1448  15.1448  15.1449  15.1743  15.1743  15.1743  15.1743
    15.3266  15.3267  15.3267  15.3268  15.6159  15.6160  15.6160  15.6161
    16.8495  16.8496  16.8496  16.8497  16.9289  16.9290  16.9290  16.9292
    16.9987  16.9989  16.9989  16.9991  17.1162  17.1164  17.1164  17.1165
    17.1480  17.1481  17.1481  17.1481  17.2256  17.2257  17.2257  17.2259
    17.4990  17.4991  17.4991  17.4991  17.5829  17.5830  17.5830  17.5831
    18.0092  18.0092  18.0092  18.0092  18.9217  18.9218  18.9218  18.9219
    22.7551  22.7552

          k = 0.3834 0.3834 0.3834 ( 12559 PWs)   bands (ev):

   -69.9960 -69.9835 -69.9835 -69.9835 -69.9743 -69.9743 -69.9743 -69.9673
   -69.9425 -69.9390 -69.9390 -69.9389 -69.9331 -69.9331 -69.9331 -69.9240
   -36.1571 -36.1571 -36.1571 -36.1484 -36.1484 -36.1484 -36.1342 -36.1225
   -36.1225 -36.1156 -36.1156 -36.1156 -36.1111 -36.1111 -36.0814 -36.0814
   -36.0814 -36.0735 -36.0735 -36.0735 -36.0694 -36.0694 -36.0694 -36.0205
   -35.9623 -35.9243 -35.9243 -35.9243 -35.9136 -35.9136 -35.9136 -35.9043
   -35.9043 -35.8958 -35.8958 -35.8958 -35.8948 -35.8948 -35.8948 -35.8811
   -35.8614 -35.8614 -35.8614 -35.8579 -35.8579 -35.8548 -35.8548 -35.8548
    11.7230  12.5573  12.5573  12.5573  13.2094  13.2094  13.2095  13.9294
    14.0964  14.0964  14.2448  14.2448  14.2448  14.3320  14.3320  14.3320
    14.3667  14.3667  14.3667  14.5628  14.8300  14.8300  14.8469  14.8469
    14.8936  14.8936  14.8936  14.9459  14.9459  14.9459  15.0359  15.0359
    15.0359  15.1364  15.1364  15.1364  15.1653  15.1653  15.1653  15.1971
    15.1971  15.1971  15.2981  15.2981  15.4097  15.4097  15.4097  15.8301
    16.8101  16.8101  16.8101  16.9039  16.9039  16.9446  16.9446  16.9446
    17.0447  17.0447  17.0495  17.0496  17.0496  17.0729  17.0729  17.0729
    17.1307  17.1307  17.1307  17.2346  17.2525  17.2525  17.2525  17.3447
    17.3447  17.7413  17.7413  17.7554  17.7554  17.7554  17.8085  17.8085
    17.8085  17.8262  17.8262  17.8262  18.4938  18.4938  18.4938  19.3672
    23.0774  23.0775

          k = 0.3834 0.3834-0.4930 ( 12528 PWs)   bands (ev):

   -69.9904 -69.9900 -69.9794 -69.9794 -69.9790 -69.9790 -69.9712 -69.9708
   -69.9407 -69.9403 -69.9359 -69.9358 -69.9355 -69.9355 -69.9283 -69.9279
   -36.1496 -36.1496 -36.1496 -36.1496 -36.1375 -36.1373 -36.1361 -36.1358
   -36.1249 -36.1248 -36.1039 -36.1036 -36.0947 -36.0947 -36.0946 -36.0946
   -36.0912 -36.0910 -36.0815 -36.0815 -36.0814 -36.0814 -36.0469 -36.0468
   -35.9427 -35.9426 -35.9095 -35.9093 -35.9084 -35.9084 -35.9084 -35.9083
   -35.9011 -35.9011 -35.9009 -35.9009 -35.8871 -35.8870 -35.8810 -35.8807
   -35.8751 -35.8748 -35.8595 -35.8595 -35.8594 -35.8594 -35.8550 -35.8549
    12.1188  12.1189  12.8866  12.8866  12.8867  12.8867  13.5704  13.5704
    14.2066  14.2066  14.2650  14.2650  14.3137  14.3137  14.3137  14.3137
    14.4926  14.4926  14.6189  14.6189  14.6190  14.6190  14.8315  14.8316
    14.8744  14.8745  14.8859  14.8861  14.9561  14.9561  15.0327  15.0327
    15.0327  15.0327  15.1382  15.1382  15.1384  15.1384  15.1879  15.1879
    15.1880  15.1880  15.2169  15.2169  15.2214  15.2215  15.5703  15.5703
    16.8585  16.8586  16.8894  16.8894  16.8895  16.8895  16.9847  16.9849
    16.9924  16.9926  17.0483  17.0484  17.0500  17.0500  17.0501  17.0501
    17.2264  17.2264  17.2265  17.2265  17.2617  17.2618  17.4885  17.4888
    17.5103  17.5103  17.5285  17.5287  17.7698  17.7698  17.7699  17.7699
    17.8164  17.8165  18.1412  18.1412  18.1413  18.1413  18.9187  18.9188
    23.3984  23.3984

          k = 0.3834-0.4930-0.4930 ( 12552 PWs)   bands (ev):

   -69.9855 -69.9851 -69.9851 -69.9848 -69.9758 -69.9754 -69.9754 -69.9751
   -69.9381 -69.9378 -69.9378 -69.9374 -69.9318 -69.9315 -69.9315 -69.9311
   -36.1398 -36.1398 -36.1398 -36.1397 -36.1362 -36.1361 -36.1361 -36.1359
   -36.1100 -36.1099 -36.1099 -36.1098 -36.1001 -36.0999 -36.0999 -36.0997
   -36.0962 -36.0961 -36.0961 -36.0961 -36.0708 -36.0708 -36.0708 -36.0707
   -35.9246 -35.9246 -35.9246 -35.9245 -35.9002 -35.9001 -35.9001 -35.9001
   -35.8964 -35.8962 -35.8962 -35.8962 -35.8833 -35.8831 -35.8831 -35.8828
   -35.8740 -35.8739 -35.8739 -35.8737 -35.8596 -35.8596 -35.8596 -35.8596
    12.4903  12.4904  12.4904  12.4905  13.2328  13.2329  13.2329  13.2330
    14.2833  14.2833  14.2833  14.2833  14.4545  14.4546  14.4546  14.4547
    14.5630  14.5631  14.5631  14.5631  14.6024  14.6024  14.6024  14.6024
    14.9624  14.9625  14.9625  14.9625  14.9743  14.9744  14.9744  14.9745
    14.9945  14.9947  14.9947  14.9948  15.1098  15.1098  15.1098  15.1098
    15.1588  15.1589  15.1589  15.1590  15.3203  15.3204  15.3204  15.3205
    16.9035  16.9036  16.9036  16.9037  16.9482  16.9484  16.9484  16.9486
    16.9865  16.9867  16.9867  16.9869  17.0407  17.0408  17.0408  17.0409
    17.3161  17.3162  17.3162  17.3162  17.4040  17.4042  17.4042  17.4043
    17.5873  17.5875  17.5875  17.5876  17.7671  17.7672  17.7672  17.7672
    17.8150  17.8151  17.8151  17.8151  18.5183  18.5184  18.5184  18.5185
    23.9225  23.9226

          k =-0.4930-0.4930-0.4930 ( 12568 PWs)   bands (ev):

   -69.9811 -69.9808 -69.9808 -69.9808 -69.9804 -69.9804 -69.9804 -69.9801
   -69.9349 -69.9345 -69.9345 -69.9345 -69.9342 -69.9342 -69.9342 -69.9338
   -36.1203 -36.1203 -36.1203 -36.1202 -36.1202 -36.1202 -36.1201 -36.1201
   -36.1199 -36.1199 -36.1198 -36.1198 -36.1198 -36.1198 -36.1198 -36.1198
   -36.0904 -36.0903 -36.0903 -36.0903 -36.0902 -36.0902 -36.0902 -36.0901
   -35.9095 -35.9094 -35.9094 -35.9094 -35.9093 -35.9093 -35.9093 -35.9092
   -35.8780 -35.8780 -35.8780 -35.8780 -35.8780 -35.8780 -35.8779 -35.8779
   -35.8777 -35.8777 -35.8776 -35.8776 -35.8776 -35.8775 -35.8775 -35.8775
    12.8547  12.8548  12.8548  12.8548  12.8549  12.8549  12.8549  12.8551
    14.5070  14.5070  14.5070  14.5070  14.5070  14.5070  14.5070  14.5070
    14.5071  14.5071  14.5071  14.5071  14.5071  14.5071  14.5071  14.5071
    15.0370  15.0370  15.0370  15.0370  15.0370  15.0370  15.0370  15.0370
    15.0372  15.0372  15.0372  15.0372  15.0372  15.0373  15.0373  15.0373
    15.0621  15.0622  15.0622  15.0622  15.0623  15.0623  15.0623  15.0624
    16.9691  16.9691  16.9691  16.9691  16.9691  16.9692  16.9692  16.9692
    16.9693  16.9693  16.9693  16.9694  16.9694  16.9694  16.9694  16.9694
    17.5270  17.5270  17.5270  17.5270  17.5270  17.5270  17.5271  17.5271
    17.5273  17.5273  17.5274  17.5274  17.5274  17.5274  17.5274  17.5274
    18.1551  18.1552  18.1552  18.1552  18.1553  18.1553  18.1553  18.1554
    25.0509  25.0510

 ------ SPIN DOWN ----------


          k = 0.0548 0.0548 0.0548 ( 12572 PWs)   bands (ev):

   -67.4655 -67.3964 -67.3963 -67.3963 -67.3855 -67.3854 -67.3854 -67.3843
   -67.3842 -67.3842 -67.3840 -67.3840 -67.3840 -67.3796 -67.3791 -67.3253
   -33.7487 -33.7487 -33.7487 -33.7462 -33.7462 -33.7462 -33.6254 -33.6254
   -33.6205 -33.5629 -33.5606 -33.5606 -33.5606 -33.5441 -33.5441 -33.5336
   -33.5336 -33.5335 -33.5058 -33.5058 -33.4869 -33.4768 -33.4768 -33.4768
   -33.4680 -33.4680 -33.4680 -33.4587 -33.4587 -33.4587 -33.4563 -33.4563
   -33.4563 -33.4489 -33.4489 -33.4489 -33.4411 -33.4410 -33.4410 -33.3154
   -33.3137 -33.3137 -33.3137 -33.3115 -33.3115 -33.3115 -33.3102 -33.3102
     9.7687  13.6177  13.6177  13.6177  14.2595  14.2595  14.2595  14.3700
    14.3700  14.3700  14.4115  14.4115  14.4115  15.0812  15.0812  16.0502
    16.1204  16.1204  16.2084  16.2084  16.2185  16.3305  16.3305  16.3305
    16.3428  16.3428  16.3428  17.0648  17.0648  17.0648  17.4252  17.4252
    17.4252  17.5837  17.5837  17.6277  17.8314  17.8314  17.8314  17.9760
    17.9760  17.9761  18.0045  18.0045  18.0045  18.1063  18.1063  18.1063
    18.4214  18.4214  18.4214  18.4552  18.4552  18.4552  18.8458  18.8458
    18.8458  19.0780  19.0780  19.0780  19.5377  19.5377  19.5378  19.5610
    19.5610  19.5610  19.7301  19.7301  19.9889  19.9889  19.9889  20.0310
    20.0310  20.0320  20.0320  20.1155  20.1155  20.1155  20.1797  20.2571
    20.2571  20.5027  20.5027  20.5027  20.5997  20.5997  20.5997  20.6431
    20.6431  20.6431

          k = 0.0548 0.0548 0.1643 ( 12558 PWs)   bands (ev):

   -67.4631 -67.4087 -67.3959 -67.3959 -67.3867 -67.3867 -67.3850 -67.3839
   -67.3838 -67.3838 -67.3835 -67.3835 -67.3800 -67.3794 -67.3723 -67.3270
   -33.7426 -33.7425 -33.7418 -33.7397 -33.7358 -33.7358 -33.6276 -33.6203
   -33.6126 -33.5912 -33.5848 -33.5848 -33.5830 -33.5823 -33.5590 -33.5590
   -33.5322 -33.5108 -33.5044 -33.5027 -33.4950 -33.4765 -33.4765 -33.4684
   -33.4628 -33.4616 -33.4616 -33.4599 -33.4586 -33.4542 -33.4542 -33.4498
   -33.4498 -33.4456 -33.4456 -33.4221 -33.4197 -33.4197 -33.4143 -33.3268
   -33.3206 -33.3206 -33.3196 -33.3176 -33.3147 -33.3135 -33.3135 -33.3122
     9.8965  12.9209  13.6884  13.6884  14.3173  14.3173  14.3354  14.3354
    14.4635  14.4641  14.4641  14.5036  14.7806  15.1249  15.1450  15.9603
    16.0289  16.0788  16.1420  16.3073  16.3183  16.3203  16.3480  16.3777
    16.3777  16.4142  16.4142  16.6849  16.9670  16.9670  17.2471  17.2471
    17.5585  17.5771  17.6200  17.6387  17.6387  17.6851  17.7010  17.8013
    17.8013  18.0568  18.0971  18.0971  18.1533  18.1533  18.1739  18.1840
    18.2142  18.2142  18.2197  18.2602  18.2602  18.3157  18.6190  19.0536
    19.0537  19.2813  19.2813  19.3084  19.4628  19.4628  19.5275  19.5275
    19.5631  19.5833  19.6568  19.7590  19.9917  19.9934  19.9964  20.0067
    20.0274  20.0300  20.0485  20.0685  20.0685  20.1169  20.2509  20.3249
    20.3338  20.3339  20.5017  20.5017  20.5176  20.5176  20.6822  20.6822
    20.8024  20.8024

          k = 0.0548 0.0548 0.2739 ( 12548 PWs)   bands (ev):

   -67.4581 -67.4208 -67.3949 -67.3949 -67.3884 -67.3884 -67.3843 -67.3837
   -67.3837 -67.3832 -67.3831 -67.3831 -67.3806 -67.3799 -67.3613 -67.3308
   -33.7286 -33.7286 -33.7281 -33.7263 -33.7177 -33.7177 -33.6281 -33.6231
   -33.6188 -33.6171 -33.6171 -33.6105 -33.6015 -33.6001 -33.5928 -33.5928
   -33.5309 -33.5212 -33.5205 -33.5071 -33.4753 -33.4753 -33.4709 -33.4691
   -33.4672 -33.4645 -33.4645 -33.4526 -33.4526 -33.4498 -33.4498 -33.4332
   -33.4271 -33.4186 -33.4186 -33.3965 -33.3940 -33.3940 -33.3895 -33.3452
   -33.3321 -33.3321 -33.3314 -33.3300 -33.3234 -33.3207 -33.3207 -33.3194
    10.1493  12.2265  13.8154  13.8154  14.2944  14.2944  14.4130  14.4130
    14.5204  14.5204  14.6432  14.6801  15.1306  15.2000  15.2710  15.7860
    15.8019  16.0762  16.0986  16.2645  16.2733  16.3212  16.4819  16.4819
    16.5126  16.5423  16.5423  16.5426  16.8696  16.8696  17.0928  17.0928
    17.3741  17.3741  17.5192  17.5192  17.5396  17.5670  17.6087  17.6111
    17.6779  17.6779  17.7352  17.7352  17.7711  17.8063  17.8151  18.3720
    18.4041  18.4763  18.4921  18.4921  18.5093  18.5093  18.5785  19.3356
    19.3356  19.3411  19.3412  19.4330  19.4330  19.5125  19.5298  19.5541
    19.5541  19.6113  19.6280  19.7464  19.8148  19.8672  19.9279  19.9325
    19.9971  20.0183  20.0221  20.0257  20.1730  20.1730  20.1838  20.1941
    20.3726  20.3726  20.4180  20.4180  20.4977  20.4977  20.7980  20.7980
    20.8462  20.8462

          k = 0.0548 0.0548 0.3834 ( 12531 PWs)   bands (ev):

   -67.4513 -67.4321 -67.3935 -67.3935 -67.3901 -67.3901 -67.3835 -67.3833
   -67.3833 -67.3830 -67.3830 -67.3824 -67.3815 -67.3806 -67.3514 -67.3362
   -33.7081 -33.7078 -33.7077 -33.7072 -33.6927 -33.6927 -33.6545 -33.6525
   -33.6502 -33.6502 -33.6283 -33.6283 -33.6264 -33.6126 -33.5963 -33.5863
   -33.5555 -33.5452 -33.5080 -33.4987 -33.4820 -33.4769 -33.4731 -33.4731
   -33.4676 -33.4676 -33.4515 -33.4515 -33.4501 -33.4501 -33.4344 -33.4008
   -33.3974 -33.3920 -33.3920 -33.3732 -33.3708 -33.3696 -33.3696 -33.3670
   -33.3486 -33.3484 -33.3481 -33.3480 -33.3363 -33.3324 -33.3324 -33.3315
    10.5208  11.5769  13.9707  13.9707  14.2270  14.2270  14.5087  14.5087
    14.5621  14.5621  14.8943  14.9260  15.2827  15.3026  15.4566  15.5089
    15.5186  15.9888  16.1044  16.1133  16.2096  16.2163  16.6388  16.6388
    16.7217  16.7217  16.7635  16.7922  16.8571  16.8571  17.0128  17.0128
    17.1290  17.1290  17.2339  17.2339  17.2900  17.2900  17.3696  17.3696
    17.4217  17.4412  17.5290  17.5573  17.5590  17.5764  17.8875  18.2073
    18.7165  18.7398  18.7398  18.7720  18.8004  18.8004  18.8829  19.1762
[...]
   -33.3426 -33.3426 -33.3426 -33.3291 -33.3291 -33.3290 -33.3248 -33.3248
    10.8798  12.8030  12.8030  12.8030  14.0580  14.0580  14.0580  15.1650
    15.1650  15.1650  15.4311  15.4334  15.4334  15.4334  15.5275  15.5275
    15.7649  16.1920  16.1920  16.2523  16.2523  16.2523  16.4054  16.4054
    16.4521  16.4521  16.4521  16.6289  16.6289  16.6289  17.0132  17.0132
    17.0132  17.0135  17.0135  17.0135  17.0355  17.0355  17.0355  17.0736
    17.0736  17.0736  17.2848  17.2848  17.4981  17.4981  17.4981  18.3826
    18.4842  18.9014  18.9014  18.9014  18.9968  18.9968  18.9968  19.2471
    19.2471  19.2471  19.3071  19.3071  19.3072  19.5475  19.5475  19.5475
    19.6250  19.6250  19.8230  19.8230  19.8965  19.8965  19.9225  19.9225
    19.9225  19.9356  19.9356  19.9356  19.9426  19.9426  20.0921  20.0921
    20.0921  20.1420  20.1420  20.1420  20.5555  20.5555  20.5555  22.4415
    22.5544  22.5544

          k = 0.2739 0.2739 0.3834 ( 12507 PWs)   bands (ev):

   -67.4395 -67.4235 -67.4107 -67.4107 -67.4022 -67.4022 -67.3952 -67.3903
   -67.3756 -67.3743 -67.3709 -67.3709 -67.3660 -67.3660 -67.3565 -67.3441
   -33.6974 -33.6974 -33.6887 -33.6692 -33.6692 -33.6661 -33.6597 -33.6586
   -33.6447 -33.6447 -33.6444 -33.6355 -33.6155 -33.5894 -33.5894 -33.5826
   -33.5721 -33.5475 -33.5475 -33.5366 -33.5307 -33.5304 -33.5304 -33.5016
   -33.4637 -33.4551 -33.4353 -33.4326 -33.4223 -33.4223 -33.4117 -33.4117
   -33.4067 -33.4067 -33.3963 -33.3782 -33.3758 -33.3758 -33.3660 -33.3601
   -33.3465 -33.3385 -33.3371 -33.3371 -33.3324 -33.3296 -33.3296 -33.3230
    11.2300  12.2114  13.0722  13.0722  13.7343  13.7343  14.3493  15.0856
    15.3385  15.3385  15.3757  15.5097  15.5097  15.6286  15.6378  15.6661
    15.7437  16.0402  16.2437  16.2821  16.2821  16.3098  16.3270  16.3847
    16.4833  16.5479  16.5481  16.5482  16.6663  16.6663  16.7646  16.8445
    16.8445  16.8647  16.8647  16.8692  16.9341  16.9341  16.9659  16.9659
    17.0621  17.0930  17.1757  17.2297  17.2524  17.2524  17.6217  18.1338
    18.5967  18.9968  18.9968  19.0679  19.1113  19.1512  19.1512  19.1695
    19.1695  19.1731  19.3991  19.4792  19.4792  19.5018  19.5919  19.5919
    19.6215  19.6607  19.6997  19.7223  19.8077  19.8432  19.9060  19.9060
    19.9097  19.9220  19.9540  19.9887  19.9887  19.9936  20.0095  20.0310
    20.0644  20.0644  20.1226  20.1226  20.2725  20.2725  20.9944  21.9461
    22.8418  22.8418

          k = 0.2739 0.2739-0.4930 ( 12538 PWs)   bands (ev):

   -67.4323 -67.4322 -67.4068 -67.4068 -67.4067 -67.4067 -67.3930 -67.3929
   -67.3749 -67.3748 -67.3682 -67.3682 -67.3681 -67.3681 -67.3497 -67.3496
   -33.6837 -33.6837 -33.6837 -33.6836 -33.6646 -33.6645 -33.6630 -33.6629
   -33.6539 -33.6539 -33.6176 -33.6175 -33.6175 -33.6175 -33.5957 -33.5956
   -33.5601 -33.5601 -33.5417 -33.5417 -33.5416 -33.5416 -33.4971 -33.4971
   -33.4782 -33.4781 -33.4354 -33.4354 -33.4134 -33.4134 -33.4133 -33.4133
   -33.3927 -33.3926 -33.3926 -33.3926 -33.3693 -33.3692 -33.3614 -33.3613
   -33.3569 -33.3567 -33.3325 -33.3325 -33.3324 -33.3324 -33.3259 -33.3259
    11.6793  11.6795  13.3937  13.3937  13.3938  13.3939  14.7038  14.7040
    15.4715  15.4715  15.4716  15.4716  15.5950  15.5952  15.6874  15.6875
    15.8402  15.8404  16.3113  16.3115  16.3615  16.3616  16.4406  16.4406
    16.4407  16.4407  16.5128  16.5129  16.6812  16.6813  16.6813  16.6814
    16.7077  16.7078  16.9134  16.9135  16.9136  16.9136  17.0295  17.0295
    17.0295  17.0296  17.0978  17.0979  17.1644  17.1646  17.8344  17.8344
    18.8269  18.8269  19.0705  19.0705  19.0705  19.0705  19.3413  19.3413
    19.3413  19.3413  19.3470  19.3471  19.3725  19.3726  19.5548  19.5549
    19.7114  19.7115  19.8335  19.8336  19.8364  19.8364  19.8364  19.8365
    19.8963  19.8963  19.9179  19.9180  20.0484  20.0485  20.0636  20.0636
    20.0636  20.0636  20.0782  20.0782  20.0782  20.0782  21.4642  21.4643
    23.0708  23.0708

          k = 0.2739 0.3834 0.3834 ( 12517 PWs)   bands (ev):

   -67.4342 -67.4195 -67.4194 -67.4086 -67.4077 -67.3998 -67.3998 -67.3937
   -67.3737 -67.3715 -67.3715 -67.3673 -67.3661 -67.3589 -67.3589 -67.3478
   -33.6900 -33.6802 -33.6802 -33.6683 -33.6669 -33.6669 -33.6562 -33.6491
   -33.6478 -33.6478 -33.6391 -33.6178 -33.6124 -33.6073 -33.5896 -33.5733
   -33.5733 -33.5592 -33.5587 -33.5587 -33.5526 -33.5526 -33.5497 -33.4938
   -33.4780 -33.4329 -33.4328 -33.4219 -33.4219 -33.4212 -33.4086 -33.4056
   -33.3951 -33.3926 -33.3854 -33.3826 -33.3826 -33.3689 -33.3689 -33.3637
   -33.3457 -33.3453 -33.3453 -33.3401 -33.3302 -33.3302 -33.3282 -33.3256
    11.5697  12.5124  12.5124  13.3039  13.3484  14.0257  14.0257  14.7515
    15.5398  15.5454  15.5454  15.6532  15.7241  15.7241  15.7381  15.7847
    15.8200  16.1135  16.1135  16.2363  16.3178  16.3195  16.3461  16.4733
    16.4733  16.4940  16.4940  16.5345  16.5430  16.6262  16.7009  16.7009
    16.7302  16.7483  16.7483  16.8094  16.8961  16.8965  16.8965  16.9088
    16.9985  16.9986  17.0391  17.0652  17.1402  17.3267  17.3267  17.7853
    18.8356  19.1194  19.1458  19.1458  19.1496  19.3029  19.3068  19.3068
    19.3299  19.3299  19.3542  19.3542  19.4991  19.5273  19.5624  19.5624
    19.5668  19.6350  19.7051  19.7568  19.8095  19.8289  19.8585  19.8887
    19.9046  19.9046  19.9080  19.9080  19.9320  19.9524  19.9647  19.9647
    20.0054  20.0300  20.0300  20.1179  20.1231  20.6583  20.6583  21.5030
    23.2065  23.6874

          k = 0.2739 0.3834-0.4930 ( 12534 PWs)   bands (ev):

   -67.4275 -67.4274 -67.4145 -67.4144 -67.4041 -67.4040 -67.3970 -67.3969
   -67.3725 -67.3724 -67.3691 -67.3690 -67.3622 -67.3621 -67.3528 -67.3527
   -33.6788 -33.6788 -33.6721 -33.6721 -33.6594 -33.6594 -33.6594 -33.6592
   -33.6518 -33.6517 -33.6276 -33.6275 -33.5958 -33.5956 -33.5886 -33.5886
   -33.5745 -33.5745 -33.5650 -33.5648 -33.5611 -33.5610 -33.5263 -33.5262
   -33.4548 -33.4547 -33.4211 -33.4211 -33.4133 -33.4132 -33.4118 -33.4117
   -33.3923 -33.3921 -33.3807 -33.3806 -33.3649 -33.3649 -33.3648 -33.3647
   -33.3620 -33.3618 -33.3429 -33.3428 -33.3285 -33.3285 -33.3269 -33.3269
    12.0032  12.0034  12.8853  12.8855  13.6782  13.6784  14.3779  14.3781
    15.6688  15.6688  15.6813  15.6814  15.7459  15.7460  15.7869  15.7871
    15.9446  15.9447  16.3055  16.3056  16.3218  16.3219  16.3464  16.3464
    16.3928  16.3930  16.4933  16.4934  16.5937  16.5938  16.6311  16.6311
    16.7190  16.7191  16.7433  16.7433  16.8558  16.8558  16.9343  16.9345
    16.9642  16.9642  17.0650  17.0651  17.0791  17.0791  17.5022  17.5022
    19.0899  19.0899  19.1263  19.1263  19.2546  19.2546  19.3495  19.3496
    19.4345  19.4345  19.4410  19.4411  19.4440  19.4441  19.4994  19.4995
    19.6458  19.6458  19.6608  19.6608  19.7882  19.7882  19.8568  19.8568
    19.8667  19.8668  19.8964  19.8965  19.9027  19.9028  19.9328  19.9328
    20.0360  20.0360  20.0849  20.0849  20.3463  20.3463  21.0747  21.0748
    23.5346  23.5347

          k = 0.2739-0.4930-0.4930 ( 12528 PWs)   bands (ev):

   -67.4216 -67.4214 -67.4214 -67.4214 -67.4008 -67.4006 -67.4006 -67.4006
   -67.3707 -67.3706 -67.3706 -67.3705 -67.3571 -67.3569 -67.3569 -67.3569
   -33.6696 -33.6696 -33.6696 -33.6695 -33.6622 -33.6621 -33.6621 -33.6620
   -33.6395 -33.6394 -33.6394 -33.6393 -33.5840 -33.5838 -33.5838 -33.5837
   -33.5745 -33.5745 -33.5745 -33.5744 -33.5576 -33.5575 -33.5575 -33.5574
   -33.4326 -33.4325 -33.4325 -33.4324 -33.4147 -33.4147 -33.4147 -33.4146
   -33.3746 -33.3744 -33.3744 -33.3743 -33.3715 -33.3714 -33.3714 -33.3713
   -33.3548 -33.3547 -33.3547 -33.3546 -33.3270 -33.3269 -33.3269 -33.3269
    12.4122  12.4124  12.4124  12.4126  14.0193  14.0195  14.0195  14.0196
    15.7845  15.7846  15.7846  15.7847  15.8064  15.8065  15.8065  15.8066
    16.1260  16.1261  16.1261  16.1262  16.2581  16.2582  16.2582  16.2583
    16.4968  16.4968  16.4968  16.4969  16.5642  16.5643  16.5643  16.5645
    16.7113  16.7113  16.7113  16.7113  16.8370  16.8370  16.8370  16.8371
    16.9893  16.9894  16.9894  16.9896  17.2368  17.2368  17.2368  17.2369
    19.2335  19.2335  19.2335  19.2336  19.3675  19.3675  19.3675  19.3675
    19.4036  19.4037  19.4037  19.4037  19.4846  19.4846  19.4846  19.4847
    19.5591  19.5592  19.5592  19.5592  19.7844  19.7845  19.7845  19.7846
    19.8609  19.8610  19.8610  19.8610  19.9013  19.9014  19.9014  19.9015
    20.0707  20.0707  20.0707  20.0707  20.7013  20.7014  20.7014  20.7014
    23.9944  23.9944

          k = 0.3834 0.3834 0.3834 ( 12559 PWs)   bands (ev):

   -67.4293 -67.4158 -67.4157 -67.4157 -67.4057 -67.4057 -67.4057 -67.3981
   -67.3711 -67.3673 -67.3673 -67.3673 -67.3611 -67.3611 -67.3611 -67.3512
   -33.6718 -33.6718 -33.6718 -33.6620 -33.6619 -33.6619 -33.6469 -33.6328
   -33.6328 -33.6265 -33.6265 -33.6265 -33.6208 -33.6208 -33.5873 -33.5873
   -33.5873 -33.5799 -33.5799 -33.5799 -33.5742 -33.5742 -33.5742 -33.5211
   -33.4553 -33.4135 -33.4135 -33.4135 -33.4021 -33.4020 -33.4020 -33.3922
   -33.3922 -33.3824 -33.3824 -33.3824 -33.3811 -33.3811 -33.3810 -33.3661
   -33.3447 -33.3447 -33.3447 -33.3406 -33.3406 -33.3372 -33.3372 -33.3372
    11.9015  12.8142  12.8142  12.8142  13.6032  13.6032  13.6032  14.3685
    15.7527  15.7527  15.7527  15.8774  15.8774  15.8979  15.8979  15.8980
    15.9941  16.1124  16.1124  16.1124  16.3785  16.3785  16.3869  16.3869
    16.4977  16.4977  16.4977  16.5512  16.5512  16.5512  16.6324  16.6324
    16.6324  16.6958  16.6958  16.6958  16.8158  16.8158  16.8158  16.8196
    16.8196  16.8196  16.9925  16.9925  17.0289  17.0289  17.0289  17.4274
    19.0953  19.2979  19.2979  19.2979  19.3329  19.3329  19.3329  19.4216
    19.4216  19.4216  19.5850  19.5850  19.5850  19.6298  19.6298  19.6458
    19.6458  19.6458  19.6856  19.6856  19.7510  19.7510  19.7935  19.7935
    19.8446  19.8446  19.8447  19.8821  19.8821  19.8821  19.9201  19.9201
    19.9201  19.9337  19.9337  19.9337  20.3109  20.3109  20.3110  21.0893
    24.2619  24.2619

          k = 0.3834 0.3834-0.4930 ( 12528 PWs)   bands (ev):

   -67.4231 -67.4230 -67.4111 -67.4111 -67.4110 -67.4110 -67.4022 -67.4021
   -67.3690 -67.3689 -67.3638 -67.3638 -67.3637 -67.3637 -67.3557 -67.3556
   -33.6634 -33.6634 -33.6633 -33.6633 -33.6495 -33.6495 -33.6484 -33.6483
   -33.6366 -33.6365 -33.6121 -33.6119 -33.6033 -33.6033 -33.6033 -33.6032
   -33.5985 -33.5985 -33.5875 -33.5875 -33.5874 -33.5874 -33.5504 -33.5503
   -33.4337 -33.4336 -33.3975 -33.3975 -33.3960 -33.3960 -33.3960 -33.3959
   -33.3882 -33.3882 -33.3881 -33.3881 -33.3725 -33.3724 -33.3663 -33.3662
   -33.3595 -33.3593 -33.3425 -33.3425 -33.3424 -33.3424 -33.3374 -33.3373
    12.3229  12.3231  13.1872  13.1872  13.1873  13.1874  13.9694  13.9696
    15.8994  15.8994  15.8995  15.8995  15.9659  15.9660  15.9690  15.9692
    15.9896  15.9898  16.2688  16.2688  16.2689  16.2690  16.4013  16.4014
    16.4409  16.4410  16.4679  16.4681  16.5120  16.5121  16.6651  16.6651
    16.6651  16.6652  16.7429  16.7429  16.7430  16.7431  16.7863  16.7863
    16.7863  16.7863  16.8796  16.8797  16.9087  16.9089  17.1501  17.1501
    19.3438  19.3438  19.3438  19.3438  19.3720  19.3720  19.5049  19.5051
    19.5257  19.5258  19.5297  19.5297  19.5297  19.5297  19.5335  19.5336
    19.6870  19.6870  19.7470  19.7471  19.7842  19.7843  19.8232  19.8233
    19.8234  19.8234  19.8234  19.8235  19.8662  19.8662  19.9001  19.9001
    19.9001  19.9001  19.9944  19.9945  19.9945  19.9945  20.6944  20.6945
    24.5462  24.5462

          k = 0.3834-0.4930-0.4930 ( 12552 PWs)   bands (ev):

   -67.4176 -67.4175 -67.4175 -67.4174 -67.4071 -67.4070 -67.4070 -67.4069
   -67.3661 -67.3660 -67.3660 -67.3659 -67.3593 -67.3592 -67.3592 -67.3591
   -33.6523 -33.6523 -33.6523 -33.6522 -33.6485 -33.6484 -33.6484 -33.6483
   -33.6202 -33.6201 -33.6201 -33.6200 -33.6079 -33.6078 -33.6078 -33.6077
   -33.6039 -33.6039 -33.6039 -33.6039 -33.5769 -33.5769 -33.5769 -33.5768
   -33.4138 -33.4138 -33.4138 -33.4137 -33.3873 -33.3873 -33.3873 -33.3872
   -33.3827 -33.3826 -33.3826 -33.3826 -33.3684 -33.3683 -33.3683 -33.3682
   -33.3585 -33.3584 -33.3584 -33.3583 -33.3426 -33.3426 -33.3426 -33.3425
    12.7252  12.7254  12.7254  12.7256  13.5587  13.5589  13.5589  13.5590
    15.9904  15.9905  15.9905  15.9906  16.1009  16.1010  16.1010  16.1011
    16.1582  16.1583  16.1583  16.1584  16.2268  16.2270  16.2270  16.2270
    16.5490  16.5491  16.5491  16.5491  16.5800  16.5800  16.5800  16.5801
    16.5825  16.5826  16.5826  16.5827  16.7588  16.7588  16.7588  16.7588
    16.8130  16.8131  16.8131  16.8132  16.8760  16.8760  16.8760  16.8761
    19.4667  19.4667  19.4667  19.4668  19.4973  19.4974  19.4974  19.4974
    19.5817  19.5818  19.5818  19.5818  19.6309  19.6309  19.6309  19.6310
    19.6726  19.6726  19.6726  19.6726  19.7466  19.7467  19.7467  19.7467
    19.7767  19.7767  19.7767  19.7768  19.8079  19.8080  19.8080  19.8081
    19.8475  19.8475  19.8475  19.8476  20.3353  20.3353  20.3353  20.3354
    25.0432  25.0433

          k =-0.4930-0.4930-0.4930 ( 12568 PWs)   bands (ev):

   -67.4127 -67.4126 -67.4126 -67.4126 -67.4125 -67.4125 -67.4125 -67.4124
   -67.3625 -67.3624 -67.3624 -67.3624 -67.3623 -67.3623 -67.3623 -67.3622
   -33.6305 -33.6305 -33.6305 -33.6305 -33.6305 -33.6304 -33.6304 -33.6304
   -33.6303 -33.6303 -33.6303 -33.6303 -33.6303 -33.6302 -33.6302 -33.6302
   -33.5985 -33.5985 -33.5985 -33.5985 -33.5983 -33.5983 -33.5983 -33.5983
   -33.3971 -33.3971 -33.3971 -33.3971 -33.3970 -33.3970 -33.3970 -33.3969
   -33.3628 -33.3628 -33.3628 -33.3627 -33.3627 -33.3627 -33.3627 -33.3627
   -33.3626 -33.3626 -33.3626 -33.3625 -33.3625 -33.3625 -33.3625 -33.3625
    13.1158  13.1160  13.1160  13.1160  13.1162  13.1162  13.1162  13.1164
    16.1928  16.1928  16.1929  16.1929  16.1929  16.1930  16.1930  16.1930
    16.1930  16.1930  16.1930  16.1931  16.1931  16.1931  16.1932  16.1932
    16.5587  16.5587  16.5587  16.5587  16.5588  16.5588  16.5588  16.5588
    16.6701  16.6701  16.6701  16.6702  16.6702  16.6702  16.6703  16.6703
    16.6704  16.6704  16.6705  16.6705  16.6705  16.6705  16.6705  16.6705
    19.6482  19.6482  19.6482  19.6483  19.6483  19.6483  19.6483  19.6483
    19.6483  19.6483  19.6484  19.6484  19.6484  19.6484  19.6484  19.6484
    19.6948  19.6948  19.6949  19.6949  19.6949  19.6949  19.6949  19.6949
    19.6949  19.6949  19.6949  19.6950  19.6950  19.6950  19.6950  19.6950
    19.9970  19.9970  19.9970  19.9970  19.9971  19.9971  19.9971  19.9971
    26.0908  26.0909

     the Fermi energy is    17.9791 ev

!    total energy              =   -5268.18901282 Ry
     Harris-Foulkes estimate   =   -5268.18901137 Ry
     estimated scf accuracy    <       0.00000075 Ry

     total all-electron energy =    -40728.933542 Ry

     The total energy is the sum of the following terms:

     one-electron contribution =   -1770.32312324 Ry
     hartree contribution      =    1045.08962651 Ry
     xc contribution           =    -443.84458924 Ry
     ewald contribution        =   -2774.59294071 Ry
     one-center paw contrib.   =   -1324.65901962 Ry
     smearing contrib. (-TS)   =       0.14103347 Ry

     total magnetization       =    33.86 Bohr mag/cell
     absolute magnetization    =    35.84 Bohr mag/cell

     convergence has been achieved in  18 iterations

     negative rho (up, down):  0.000E+00 2.791E-03

     Forces acting on atoms (cartesian axes, Ry/au):

     atom    1 type  1   force =     0.00000000    0.00000000    0.00000000
     atom    2 type  2   force =     0.00004218    0.00004218    0.00004218
     atom    3 type  1   force =     0.00000000    0.00000000    0.00000000
     atom    4 type  2   force =     0.00004218    0.00004218   -0.00004218
     atom    5 type  1   force =     0.00000000    0.00000000    0.00000000
     atom    6 type  2   force =     0.00004218   -0.00004218    0.00004218
     atom    7 type  1   force =     0.00000000    0.00000000    0.00000000
     atom    8 type  2   force =     0.00004218   -0.00004218   -0.00004218
     atom    9 type  1   force =     0.00000000    0.00000000    0.00000000
     atom   10 type  2   force =    -0.00004218    0.00004218    0.00004218
     atom   11 type  1   force =     0.00000000    0.00000000   -0.00000000
     atom   12 type  2   force =    -0.00004218    0.00004218   -0.00004218
     atom   13 type  1   force =     0.00000000    0.00000000   -0.00000000
     atom   14 type  2   force =    -0.00004218   -0.00004218    0.00004218
     atom   15 type  1   force =     0.00000000    0.00000000   -0.00000000
     atom   16 type  2   force =    -0.00004218   -0.00004218   -0.00004218

     Total force =     0.000207     Total SCF correction =     0.002101
     SCF correction compared to forces is large: reduce conv_thr to get better values


     Computing stress (Cartesian axis) and pressure


     negative rho (up, down):  0.000E+00 2.791E-03
          total   stress  (Ry/bohr**3)                   (kbar)     P=  -90.64
  -0.00061613   0.00000000   0.00000000        -90.64      0.00      0.00
   0.00000000  -0.00061613   0.00000000          0.00    -90.64      0.00
   0.00000000   0.00000000  -0.00061613          0.00      0.00    -90.64


     Writing output data file HfKbupHtyBJQtThm.save/
 
     init_run     :      7.47s CPU      7.76s WALL (       1 calls)
     electrons    :    458.64s CPU    469.72s WALL (       1 calls)
     forces       :      2.42s CPU      2.58s WALL (       1 calls)
     stress       :     10.44s CPU     10.52s WALL (       1 calls)

     Called by init_run:
     wfcinit      :      6.80s CPU      7.05s WALL (       1 calls)
     potinit      :      0.29s CPU      0.31s WALL (       1 calls)
     hinit0       :      0.15s CPU      0.15s WALL (       1 calls)

     Called by electrons:
     c_bands      :    407.51s CPU    416.17s WALL (      19 calls)
     sum_band     :     45.08s CPU     46.98s WALL (      19 calls)
     v_of_rho     :      0.47s CPU      0.50s WALL (      19 calls)
     newd         :      0.99s CPU      1.23s WALL (      19 calls)
     PAW_pot      :      4.69s CPU      4.90s WALL (      19 calls)
     mix_rho      :      0.12s CPU      0.14s WALL (      19 calls)

     Called by c_bands:
     init_us_2    :      2.96s CPU      3.00s WALL (    2870 calls)
     cegterg      :    391.28s CPU    399.80s WALL (    1330 calls)

     Called by sum_band:
     sum_band:bec :      0.45s CPU      0.46s WALL (    1330 calls)
     addusdens    :      1.98s CPU      2.23s WALL (      19 calls)

     Called by *egterg:
     h_psi        :    176.92s CPU    182.47s WALL (    4446 calls)
     s_psi        :     12.92s CPU     12.97s WALL (    4446 calls)
     g_psi        :      0.62s CPU      0.63s WALL (    3046 calls)
     cdiaghg      :    158.47s CPU    158.88s WALL (    4306 calls)

     Called by h_psi:
     h_psi:pot    :    175.67s CPU    181.20s WALL (    4446 calls)
     h_psi:calbec :     14.53s CPU     16.08s WALL (    4446 calls)
     vloc_psi     :    147.94s CPU    151.87s WALL (    4446 calls)
     add_vuspsi   :     13.16s CPU     13.23s WALL (    4446 calls)

     General routines
     calbec       :     22.09s CPU     24.50s WALL (    6126 calls)
     fft          :      0.37s CPU      0.41s WALL (     517 calls)
     ffts         :      0.03s CPU      0.04s WALL (      76 calls)
     fftw         :    169.29s CPU    173.79s WALL ( 1131674 calls)
     interpolate  :      0.05s CPU      0.05s WALL (      38 calls)
 
     Parallel routines
     fft_scatt_xy :     14.21s CPU     14.59s WALL ( 1132267 calls)
     fft_scatt_yz :     97.55s CPU    100.20s WALL ( 1132267 calls)
 
     PWSCF        :  8m 2.45s CPU     8m22.74s WALL

 
   This run was terminated on:   1:30:44  14Jun2020            

=------------------------------------------------------------------------------=
   JOB DONE.
=------------------------------------------------------------------------------=
