--------------------------------------------------------------------------
WARNING: There was an error initializing an OpenFabrics device.

  Local host:   bear-pg0211u09a
  Local device: mlx5_0
--------------------------------------------------------------------------

     Program PWSCF v.6.3 starts on 10Oct2020 at 15:27:12 

     This program is part of the open-source Quantum ESPRESSO suite
     for quantum simulation of materials; please cite
         "P. Giannozzi et al., J. Phys.:Condens. Matter 21 395502 (2009);
         "P. Giannozzi et al., J. Phys.:Condens. Matter 29 465901 (2017);
          URL http://www.quantum-espresso.org", 
     in publications or presentations arising from this work. More details at
     http://www.quantum-espresso.org/quote

     Parallel version (MPI & OpenMP), running on      40 processor cores
     Number of MPI processes:                40
     Threads/MPI process:                     1

     MPI processes distributed on     1 nodes
     R & G space division:  proc/nbgrp/npool/nimage =      40
     Reading input from wd/ec/ec_2_003.in
Warning: card &IONS ignored
Warning: card ION_DYNAMICS = 'BFGS', ignored
Warning: card / ignored
Warning: card &CELL ignored
Warning: card CELL_DYNAMICS = 'BFGS', ignored
Warning: card CELL_FACTOR = 2.0, ignored
Warning: card PRESS = 0.0, ignored
Warning: card / ignored

     Current dimensions of program PWSCF are:
     Max number of different atomic species (ntypx) = 10
     Max number of k-points (npk) =  40000
     Max angular momentum in pseudopotentials (lmaxx) =  3
               file Fe.pbe-spn-kjpaw_psl.1.0.0.UPF: wavefunction(s)  3P 3D renormalized
               file Fe.pbe-spn-kjpaw_psl.1.0.0.UPF: wavefunction(s)  3P 3D renormalized
               file Fe.pbe-spn-kjpaw_psl.1.0.0.UPF: wavefunction(s)  3P 3D renormalized
               file Fe.pbe-spn-kjpaw_psl.1.0.0.UPF: wavefunction(s)  3P 3D renormalized

     Subspace diagonalization in iterative solution of the eigenvalue problem:
     a serial algorithm will be used

     Found symmetry operation: I + (  0.0000  0.0000 -0.5000)
     This is a supercell, fractional translations are disabled
 
     Parallelization info
     --------------------
     sticks:   dense  smooth     PW     G-vecs:    dense   smooth      PW
     Min         151     100     27                 8625     4632     667
     Max         152     101     28                 8630     4635     670
     Sum        6059    4013   1103               345075   185337   26727
 


     bravais-lattice index     =            0
     lattice parameter (alat)  =      12.9382  a.u.
     unit-cell volume          =    2291.3719 (a.u.)^3
     number of atoms/cell      =           32
     number of atomic types    =            4
     number of electrons       =       512.00
     number of Kohn-Sham states=          307
     kinetic-energy cutoff     =      71.0000  Ry
     charge density cutoff     =     430.0000  Ry
     convergence threshold     =      1.0E-06
     mixing beta               =       0.1000
     number of iterations used =           10  plain     mixing
     Exchange-correlation      = SLA PW PBX PBC ( 1  4  3  4 0 0)

     celldm(1)=  12.938187  celldm(2)=   0.000000  celldm(3)=   0.000000
     celldm(4)=   0.000000  celldm(5)=   0.000000  celldm(6)=   0.000000

     crystal axes: (cart. coord. in units of alat)
               a(1) = (   1.000000   0.000000   0.000000 )  
               a(2) = (   0.000000   1.057989   0.000000 )  
               a(3) = (   0.000000   0.000000   0.999987 )  

     reciprocal axes: (cart. coord. in units 2 pi/alat)
               b(1) = (  1.000000  0.000000  0.000000 )  
               b(2) = (  0.000000  0.945190  0.000000 )  
               b(3) = (  0.000000  0.000000  1.000013 )  


     PseudoPot. # 1 for Fe read from file:
     /rds/homes/b/bxp912/pp/Fe.pbe-spn-kjpaw_psl.1.0.0.UPF
     MD5 check sum: 42f43b795421b414b0dc916aa790dbcb
     Pseudo is Projector augmented-wave + core cor, Zval = 16.0
     Generated using "atomic" code by A. Dal Corso v.6.3
     Shape of augmentation charge: PSQ
     Using radial grid of 1191 points,  6 beta functions with: 
                l(1) =   0
                l(2) =   0
                l(3) =   1
                l(4) =   1
                l(5) =   2
                l(6) =   2
     Q(r) pseudized with 0 coefficients 


     PseudoPot. # 2 for Fe read from file:
     /rds/homes/b/bxp912/pp/Fe.pbe-spn-kjpaw_psl.1.0.0.UPF
     MD5 check sum: 42f43b795421b414b0dc916aa790dbcb
     Pseudo is Projector augmented-wave + core cor, Zval = 16.0
     Generated using "atomic" code by A. Dal Corso v.6.3
     Shape of augmentation charge: PSQ
     Using radial grid of 1191 points,  6 beta functions with: 
                l(1) =   0
                l(2) =   0
                l(3) =   1
                l(4) =   1
                l(5) =   2
                l(6) =   2
     Q(r) pseudized with 0 coefficients 


     PseudoPot. # 3 for Fe read from file:
     /rds/homes/b/bxp912/pp/Fe.pbe-spn-kjpaw_psl.1.0.0.UPF
     MD5 check sum: 42f43b795421b414b0dc916aa790dbcb
     Pseudo is Projector augmented-wave + core cor, Zval = 16.0
     Generated using "atomic" code by A. Dal Corso v.6.3
     Shape of augmentation charge: PSQ
     Using radial grid of 1191 points,  6 beta functions with: 
                l(1) =   0
                l(2) =   0
                l(3) =   1
                l(4) =   1
                l(5) =   2
                l(6) =   2
     Q(r) pseudized with 0 coefficients 


     PseudoPot. # 4 for Fe read from file:
     /rds/homes/b/bxp912/pp/Fe.pbe-spn-kjpaw_psl.1.0.0.UPF
     MD5 check sum: 42f43b795421b414b0dc916aa790dbcb
     Pseudo is Projector augmented-wave + core cor, Zval = 16.0
     Generated using "atomic" code by A. Dal Corso v.6.3
     Shape of augmentation charge: PSQ
     Using radial grid of 1191 points,  6 beta functions with: 
                l(1) =   0
                l(2) =   0
                l(3) =   1
                l(4) =   1
                l(5) =   2
                l(6) =   2
     Q(r) pseudized with 0 coefficients 


     atomic species   valence    mass     pseudopotential
        Fe1           16.00    55.84500     Fe( 1.00)
        Fe2           16.00    55.84500     Fe( 1.00)
        Fe3           16.00    55.84500     Fe( 1.00)
        Fe4           16.00    55.84500     Fe( 1.00)

     Starting magnetic structure 
     atomic species   magnetization
        Fe1          0.100
        Fe2         -0.100
        Fe3          0.100
        Fe4         -0.100

      8 Sym. Ops., with inversion, found



   Cartesian axes

     site n.     atom                  positions (alat units)
         1           Fe1 tau(   1) = (   0.0000000   0.0000000   0.0000000  )
         2           Fe2 tau(   2) = (   0.2499968   0.2644998   0.0000000  )
         3           Fe3 tau(   3) = (   0.2499981   0.0000000   0.2499947  )
         4           Fe4 tau(   4) = (   0.0000000   0.2644984   0.2500008  )
         5           Fe1 tau(   5) = (   0.0000000   0.0000000   0.4999935  )
         6           Fe2 tau(   6) = (   0.2499996   0.2645026   0.4999935  )
         7           Fe3 tau(   7) = (   0.2499981   0.0000000   0.7499912  )
         8           Fe4 tau(   8) = (   0.0000000   0.2644984   0.7499852  )
         9           Fe1 tau(   9) = (   0.0000000   0.5289944   0.0000000  )
        10           Fe2 tau(  10) = (   0.2499968   0.7934891   0.0000000  )
        11           Fe3 tau(  11) = (   0.2500004   0.5289944   0.2499987  )
        12           Fe4 tau(  12) = (   0.0000000   0.7934905   0.2500008  )
        13           Fe1 tau(  13) = (   0.0000000   0.5289944   0.4999935  )
        14           Fe2 tau(  14) = (   0.2499996   0.7934863   0.4999935  )
        15           Fe3 tau(  15) = (   0.2500004   0.5289944   0.7499882  )
        16           Fe4 tau(  16) = (   0.0000000   0.7934905   0.7499852  )
        17           Fe1 tau(  17) = (   0.4999998   0.0000000   0.0000000  )
        18           Fe2 tau(  18) = (   0.7500027   0.2644998   0.0000000  )
        19           Fe3 tau(  19) = (   0.7500015   0.0000000   0.2499947  )
        20           Fe4 tau(  20) = (   0.4999998   0.2644974   0.2499987  )
        21           Fe1 tau(  21) = (   0.4999998   0.0000000   0.4999935  )
        22           Fe2 tau(  22) = (   0.7499998   0.2645026   0.4999935  )
        23           Fe3 tau(  23) = (   0.7500015   0.0000000   0.7499912  )
        24           Fe4 tau(  24) = (   0.4999998   0.2644974   0.7499872  )
        25           Fe1 tau(  25) = (   0.4999998   0.5289944   0.0000000  )
        26           Fe2 tau(  26) = (   0.7500027   0.7934891   0.0000000  )
        27           Fe3 tau(  27) = (   0.7499992   0.5289944   0.2499987  )
        28           Fe4 tau(  28) = (   0.4999998   0.7934915   0.2499987  )
        29           Fe1 tau(  29) = (   0.4999998   0.5289944   0.4999935  )
        30           Fe2 tau(  30) = (   0.7499998   0.7934863   0.4999935  )
        31           Fe3 tau(  31) = (   0.7499992   0.5289944   0.7499882  )
        32           Fe4 tau(  32) = (   0.4999998   0.7934915   0.7499872  )

     number of k points=   125  Marzari-Vanderbilt smearing, width (Ry)=  0.0400

     Number of k-points >= 100: set verbosity='high' to print them.

     Dense  grid:   345075 G-vectors     FFT dimensions: (  90,  96,  90)

     Smooth grid:   185337 G-vectors     FFT dimensions: (  72,  75,  72)

     Estimated max dynamical RAM per process >     813.40 MB

     Estimated total dynamical RAM >      31.77 GB
     Generating pointlists ...
     new r_m :   0.1458 (alat units)  1.8869 (a.u.) for type    1
     new r_m :   0.1458 (alat units)  1.8869 (a.u.) for type    2
     new r_m :   0.1458 (alat units)  1.8869 (a.u.) for type    3
     new r_m :   0.1458 (alat units)  1.8869 (a.u.) for type    4

     Check: negative/imaginary core charge=   -0.000006    0.000000

     Initial potential from superposition of free atoms

     starting charge  511.98600, renormalised to  512.00000
     Starting wfcs are  320 randomized atomic wfcs
     Checking if some PAW data can be deallocated... 

     total cpu time spent up to now is       85.4 secs

     Self-consistent Calculation

     iteration #  1     ecut=    71.00 Ry     beta= 0.10
     Davidson diagonalization with overlap
     ethr =  1.00E-02,  avg # of iterations =  3.5

     Threshold (ethr) on eigenvalues was too large:
     Diagonalizing with lowered threshold

     Davidson diagonalization with overlap
     ethr =  3.15E-04,  avg # of iterations =  4.0

     total cpu time spent up to now is     1018.0 secs

     total energy              =  -10536.43024614 Ry
     Harris-Foulkes estimate   =  -10536.76908616 Ry
     estimated scf accuracy    <       1.86600826 Ry

     total magnetization       =     0.23 Bohr mag/cell
     absolute magnetization    =    44.48 Bohr mag/cell

     iteration #  2     ecut=    71.00 Ry     beta= 0.10
     Davidson diagonalization with overlap
     ethr =  3.64E-04,  avg # of iterations =  1.0

     total cpu time spent up to now is     1245.5 secs

     total energy              =  -10536.21328229 Ry
     Harris-Foulkes estimate   =  -10536.47558925 Ry
     estimated scf accuracy    <       1.10730305 Ry

     total magnetization       =    -0.11 Bohr mag/cell
     absolute magnetization    =    45.21 Bohr mag/cell

     iteration #  3     ecut=    71.00 Ry     beta= 0.10
     Davidson diagonalization with overlap
     ethr =  2.16E-04,  avg # of iterations =  2.3

     total cpu time spent up to now is     1565.4 secs

     total energy              =  -10536.07969831 Ry
     Harris-Foulkes estimate   =  -10536.35172657 Ry
     estimated scf accuracy    <       2.70432617 Ry

     total magnetization       =     0.23 Bohr mag/cell
     absolute magnetization    =    45.59 Bohr mag/cell

     iteration #  4     ecut=    71.00 Ry     beta= 0.10
     Davidson diagonalization with overlap
     ethr =  2.16E-04,  avg # of iterations =  2.4

     total cpu time spent up to now is     1885.0 secs

     total energy              =  -10536.18122291 Ry
     Harris-Foulkes estimate   =  -10536.21261665 Ry
     estimated scf accuracy    <       0.51950133 Ry

     total magnetization       =     0.35 Bohr mag/cell
     absolute magnetization    =    46.64 Bohr mag/cell

     iteration #  5     ecut=    71.00 Ry     beta= 0.10
     Davidson diagonalization with overlap
     ethr =  1.01E-04,  avg # of iterations =  1.2

     total cpu time spent up to now is     2128.0 secs

     total energy              =  -10536.19206814 Ry
     Harris-Foulkes estimate   =  -10536.20070461 Ry
     estimated scf accuracy    <       0.08395796 Ry

     total magnetization       =     0.02 Bohr mag/cell
     absolute magnetization    =    46.79 Bohr mag/cell

     iteration #  6     ecut=    71.00 Ry     beta= 0.10
     Davidson diagonalization with overlap
     ethr =  1.64E-05,  avg # of iterations =  3.3

     total cpu time spent up to now is     2505.3 secs

     total energy              =  -10536.18387942 Ry
     Harris-Foulkes estimate   =  -10536.19553896 Ry
     estimated scf accuracy    <       0.06936664 Ry

     total magnetization       =    -0.10 Bohr mag/cell
     absolute magnetization    =    46.76 Bohr mag/cell

     iteration #  7     ecut=    71.00 Ry     beta= 0.10
     Davidson diagonalization with overlap
     ethr =  1.35E-05,  avg # of iterations =  3.8

     total cpu time spent up to now is     3059.6 secs

     total energy              =  -10536.20086229 Ry
     Harris-Foulkes estimate   =  -10536.20402771 Ry
     estimated scf accuracy    <       0.09554557 Ry

     total magnetization       =     0.04 Bohr mag/cell
     absolute magnetization    =    46.95 Bohr mag/cell

     iteration #  8     ecut=    71.00 Ry     beta= 0.10
     Davidson diagonalization with overlap
     ethr =  1.35E-05,  avg # of iterations =  2.0

     total cpu time spent up to now is     3366.5 secs

     total energy              =  -10536.20227013 Ry
     Harris-Foulkes estimate   =  -10536.20485265 Ry
     estimated scf accuracy    <       0.06991729 Ry

     total magnetization       =     0.06 Bohr mag/cell
     absolute magnetization    =    47.23 Bohr mag/cell

     iteration #  9     ecut=    71.00 Ry     beta= 0.10
     Davidson diagonalization with overlap
     ethr =  1.35E-05,  avg # of iterations =  1.0

     total cpu time spent up to now is     3595.7 secs

     total energy              =  -10536.21320241 Ry
     Harris-Foulkes estimate   =  -10536.20357841 Ry
     estimated scf accuracy    <       0.03853692 Ry

     total magnetization       =     0.01 Bohr mag/cell
     absolute magnetization    =    47.37 Bohr mag/cell

     iteration # 10     ecut=    71.00 Ry     beta= 0.10
     Davidson diagonalization with overlap
     ethr =  7.53E-06,  avg # of iterations =  2.7

     total cpu time spent up to now is     3948.9 secs

     total energy              =  -10536.23700719 Ry
     Harris-Foulkes estimate   =  -10536.21581843 Ry
     estimated scf accuracy    <       0.03206903 Ry

     total magnetization       =    -0.08 Bohr mag/cell
     absolute magnetization    =    47.70 Bohr mag/cell

     iteration # 11     ecut=    71.00 Ry     beta= 0.10
     Davidson diagonalization with overlap
     ethr =  6.26E-06,  avg # of iterations =  3.8

     total cpu time spent up to now is     4486.6 secs

     total energy              =  -10536.24980595 Ry
     Harris-Foulkes estimate   =  -10536.24771825 Ry
     estimated scf accuracy    <       0.02701596 Ry

     total magnetization       =    -0.11 Bohr mag/cell
     absolute magnetization    =    48.54 Bohr mag/cell

     iteration # 12     ecut=    71.00 Ry     beta= 0.10
     Davidson diagonalization with overlap
     ethr =  5.28E-06,  avg # of iterations =  1.4

     total cpu time spent up to now is     4744.3 secs

     total energy              =  -10536.25115085 Ry
     Harris-Foulkes estimate   =  -10536.25130040 Ry
     estimated scf accuracy    <       0.00746834 Ry

     total magnetization       =    -0.03 Bohr mag/cell
     absolute magnetization    =    48.84 Bohr mag/cell

     iteration # 13     ecut=    71.00 Ry     beta= 0.10
     Davidson diagonalization with overlap
     ethr =  1.46E-06,  avg # of iterations =  3.0

     total cpu time spent up to now is     5144.4 secs

     total energy              =  -10536.25181000 Ry
     Harris-Foulkes estimate   =  -10536.25182845 Ry
     estimated scf accuracy    <       0.00189025 Ry

     total magnetization       =    -0.01 Bohr mag/cell
     absolute magnetization    =    48.99 Bohr mag/cell

     iteration # 14     ecut=    71.00 Ry     beta= 0.10
     Davidson diagonalization with overlap
     ethr =  3.69E-07,  avg # of iterations =  1.1

     total cpu time spent up to now is     5378.8 secs

     total energy              =  -10536.25192203 Ry
     Harris-Foulkes estimate   =  -10536.25185151 Ry
     estimated scf accuracy    <       0.00133463 Ry

     total magnetization       =    -0.01 Bohr mag/cell
     absolute magnetization    =    49.02 Bohr mag/cell

     iteration # 15     ecut=    71.00 Ry     beta= 0.10
     Davidson diagonalization with overlap
     ethr =  2.61E-07,  avg # of iterations =  1.2

     total cpu time spent up to now is     5620.8 secs

     total energy              =  -10536.25215824 Ry
     Harris-Foulkes estimate   =  -10536.25196544 Ry
     estimated scf accuracy    <       0.00097547 Ry

     total magnetization       =    -0.01 Bohr mag/cell
     absolute magnetization    =    49.10 Bohr mag/cell

     iteration # 16     ecut=    71.00 Ry     beta= 0.10
     Davidson diagonalization with overlap
     ethr =  1.91E-07,  avg # of iterations =  2.0

     total cpu time spent up to now is     5916.0 secs

     total energy              =  -10536.25223794 Ry
     Harris-Foulkes estimate   =  -10536.25223500 Ry
     estimated scf accuracy    <       0.00075490 Ry

     total magnetization       =     0.01 Bohr mag/cell
     absolute magnetization    =    49.24 Bohr mag/cell

     iteration # 17     ecut=    71.00 Ry     beta= 0.10
     Davidson diagonalization with overlap
     ethr =  1.47E-07,  avg # of iterations =  1.4

     total cpu time spent up to now is     6174.6 secs

     total energy              =  -10536.25241748 Ry
     Harris-Foulkes estimate   =  -10536.25228223 Ry
     estimated scf accuracy    <       0.00059931 Ry

     total magnetization       =    -0.03 Bohr mag/cell
     absolute magnetization    =    49.28 Bohr mag/cell

     iteration # 18     ecut=    71.00 Ry     beta= 0.10
     Davidson diagonalization with overlap
     ethr =  1.17E-07,  avg # of iterations =  1.1

     total cpu time spent up to now is     6412.5 secs

     total energy              =  -10536.25256348 Ry
     Harris-Foulkes estimate   =  -10536.25244788 Ry
     estimated scf accuracy    <       0.00039261 Ry

     total magnetization       =    -0.00 Bohr mag/cell
     absolute magnetization    =    49.37 Bohr mag/cell

     iteration # 19     ecut=    71.00 Ry     beta= 0.10
     Davidson diagonalization with overlap
     ethr =  7.67E-08,  avg # of iterations =  2.8

     total cpu time spent up to now is     6763.1 secs

     total energy              =  -10536.25272168 Ry
     Harris-Foulkes estimate   =  -10536.25258886 Ry
     estimated scf accuracy    <       0.00033591 Ry

     total magnetization       =    -0.01 Bohr mag/cell
     absolute magnetization    =    49.47 Bohr mag/cell

     iteration # 20     ecut=    71.00 Ry     beta= 0.10
     Davidson diagonalization with overlap
     ethr =  6.56E-08,  avg # of iterations =  2.8

     total cpu time spent up to now is     7120.7 secs

     total energy              =  -10536.25283897 Ry
     Harris-Foulkes estimate   =  -10536.25277176 Ry
     estimated scf accuracy    <       0.00044174 Ry

     total magnetization       =    -0.01 Bohr mag/cell
     absolute magnetization    =    49.63 Bohr mag/cell

     iteration # 21     ecut=    71.00 Ry     beta= 0.10
     Davidson diagonalization with overlap
     ethr =  6.56E-08,  avg # of iterations =  2.2

     total cpu time spent up to now is     7432.7 secs

     total energy              =  -10536.25288994 Ry
     Harris-Foulkes estimate   =  -10536.25287292 Ry
     estimated scf accuracy    <       0.00013601 Ry

     total magnetization       =    -0.01 Bohr mag/cell
     absolute magnetization    =    49.75 Bohr mag/cell

     iteration # 22     ecut=    71.00 Ry     beta= 0.10
     Davidson diagonalization with overlap
     ethr =  2.66E-08,  avg # of iterations =  2.8

     total cpu time spent up to now is     7785.9 secs

     total energy              =  -10536.25290902 Ry
     Harris-Foulkes estimate   =  -10536.25289925 Ry
     estimated scf accuracy    <       0.00011716 Ry

     total magnetization       =    -0.00 Bohr mag/cell
     absolute magnetization    =    49.81 Bohr mag/cell

     iteration # 23     ecut=    71.00 Ry     beta= 0.10
     Davidson diagonalization with overlap
     ethr =  2.29E-08,  avg # of iterations =  1.0

     total cpu time spent up to now is     8015.5 secs

     total energy              =  -10536.25292557 Ry
     Harris-Foulkes estimate   =  -10536.25291241 Ry
     estimated scf accuracy    <       0.00009019 Ry

     total magnetization       =    -0.00 Bohr mag/cell
     absolute magnetization    =    49.84 Bohr mag/cell

     iteration # 24     ecut=    71.00 Ry     beta= 0.10
     Davidson diagonalization with overlap
     ethr =  1.76E-08,  avg # of iterations =  1.8

     total cpu time spent up to now is     8303.3 secs

     total energy              =  -10536.25293907 Ry
     Harris-Foulkes estimate   =  -10536.25293111 Ry
     estimated scf accuracy    <       0.00008333 Ry

     total magnetization       =    -0.01 Bohr mag/cell
     absolute magnetization    =    49.89 Bohr mag/cell

     iteration # 25     ecut=    71.00 Ry     beta= 0.10
     Davidson diagonalization with overlap
     ethr =  1.63E-08,  avg # of iterations =  2.9

     total cpu time spent up to now is     8688.4 secs

     total energy              =  -10536.25295886 Ry
     Harris-Foulkes estimate   =  -10536.25295699 Ry
     estimated scf accuracy    <       0.00007627 Ry

     total magnetization       =    -0.00 Bohr mag/cell
     absolute magnetization    =    50.00 Bohr mag/cell

     iteration # 26     ecut=    71.00 Ry     beta= 0.10
     Davidson diagonalization with overlap
     ethr =  1.49E-08,  avg # of iterations =  1.4

     total cpu time spent up to now is     8946.4 secs

     total energy              =  -10536.25296651 Ry
     Harris-Foulkes estimate   =  -10536.25296466 Ry
     estimated scf accuracy    <       0.00002262 Ry

     total magnetization       =    -0.00 Bohr mag/cell
     absolute magnetization    =    50.05 Bohr mag/cell

     iteration # 27     ecut=    71.00 Ry     beta= 0.10
     Davidson diagonalization with overlap
     ethr =  4.42E-09,  avg # of iterations =  3.0

     total cpu time spent up to now is     9315.9 secs

     total energy              =  -10536.25297039 Ry
     Harris-Foulkes estimate   =  -10536.25296779 Ry
     estimated scf accuracy    <       0.00001562 Ry

     total magnetization       =    -0.00 Bohr mag/cell
     absolute magnetization    =    50.08 Bohr mag/cell

     iteration # 28     ecut=    71.00 Ry     beta= 0.10
     Davidson diagonalization with overlap
     ethr =  3.05E-09,  avg # of iterations =  1.3

     total cpu time spent up to now is     9563.8 secs

     total energy              =  -10536.25297377 Ry
     Harris-Foulkes estimate   =  -10536.25297100 Ry
     estimated scf accuracy    <       0.00001404 Ry

     total magnetization       =    -0.00 Bohr mag/cell
     absolute magnetization    =    50.09 Bohr mag/cell

     iteration # 29     ecut=    71.00 Ry     beta= 0.10
     Davidson diagonalization with overlap
     ethr =  2.74E-09,  avg # of iterations =  1.6

     total cpu time spent up to now is     9831.6 secs

     total energy              =  -10536.25297788 Ry
     Harris-Foulkes estimate   =  -10536.25297440 Ry
     estimated scf accuracy    <       0.00001107 Ry

     total magnetization       =    -0.00 Bohr mag/cell
     absolute magnetization    =    50.11 Bohr mag/cell

     iteration # 30     ecut=    71.00 Ry     beta= 0.10
     Davidson diagonalization with overlap
     ethr =  2.16E-09,  avg # of iterations =  2.2

     total cpu time spent up to now is    10152.8 secs

     total energy              =  -10536.25297874 Ry
     Harris-Foulkes estimate   =  -10536.25297891 Ry
     estimated scf accuracy    <       0.00000906 Ry

     total magnetization       =     0.00 Bohr mag/cell
     absolute magnetization    =    50.13 Bohr mag/cell

     iteration # 31     ecut=    71.00 Ry     beta= 0.10
     Davidson diagonalization with overlap
     ethr =  1.77E-09,  avg # of iterations =  3.0

     total cpu time spent up to now is    10547.8 secs

     total energy              =  -10536.25298282 Ry
     Harris-Foulkes estimate   =  -10536.25298111 Ry
     estimated scf accuracy    <       0.00000637 Ry

     total magnetization       =    -0.00 Bohr mag/cell
     absolute magnetization    =    50.17 Bohr mag/cell

     iteration # 32     ecut=    71.00 Ry     beta= 0.10
     Davidson diagonalization with overlap
     ethr =  1.24E-09,  avg # of iterations =  1.4

     total cpu time spent up to now is    10807.8 secs

     total energy              =  -10536.25298373 Ry
     Harris-Foulkes estimate   =  -10536.25298320 Ry
     estimated scf accuracy    <       0.00000154 Ry

     total magnetization       =    -0.00 Bohr mag/cell
     absolute magnetization    =    50.18 Bohr mag/cell

     iteration # 33     ecut=    71.00 Ry     beta= 0.10
     Davidson diagonalization with overlap
     ethr =  3.01E-10,  avg # of iterations =  2.8

     total cpu time spent up to now is    11159.7 secs

     total energy              =  -10536.25298438 Ry
     Harris-Foulkes estimate   =  -10536.25298381 Ry
     estimated scf accuracy    <       0.00000107 Ry

     total magnetization       =    -0.00 Bohr mag/cell
     absolute magnetization    =    50.18 Bohr mag/cell

     iteration # 34     ecut=    71.00 Ry     beta= 0.10
     Davidson diagonalization with overlap
     ethr =  2.09E-10,  avg # of iterations =  2.9
 
     Magnetic moment per site:
     atom:    1    charge:   14.3871    magn:    1.5097    constr:    0.0000
     atom:    2    charge:   14.3873    magn:   -1.5098    constr:    0.0000
     atom:    3    charge:   14.3868    magn:    1.5123    constr:    0.0000
     atom:    4    charge:   14.3872    magn:   -1.5137    constr:    0.0000
     atom:    5    charge:   14.3870    magn:    1.5105    constr:    0.0000
     atom:    6    charge:   14.3874    magn:   -1.5092    constr:    0.0000
     atom:    7    charge:   14.3868    magn:    1.5123    constr:    0.0000
     atom:    8    charge:   14.3872    magn:   -1.5137    constr:    0.0000
     atom:    9    charge:   14.3871    magn:    1.5106    constr:    0.0000
     atom:   10    charge:   14.3873    magn:   -1.5098    constr:    0.0000
     atom:   11    charge:   14.3867    magn:    1.5119    constr:    0.0000
     atom:   12    charge:   14.3872    magn:   -1.5137    constr:    0.0000
     atom:   13    charge:   14.3871    magn:    1.5111    constr:    0.0000
     atom:   14    charge:   14.3874    magn:   -1.5092    constr:    0.0000
     atom:   15    charge:   14.3867    magn:    1.5119    constr:    0.0000
     atom:   16    charge:   14.3872    magn:   -1.5137    constr:    0.0000
     atom:   17    charge:   14.3872    magn:    1.5109    constr:    0.0000
     atom:   18    charge:   14.3873    magn:   -1.5098    constr:    0.0000
     atom:   19    charge:   14.3868    magn:    1.5123    constr:    0.0000
     atom:   20    charge:   14.3874    magn:   -1.5128    constr:    0.0000
     atom:   21    charge:   14.3869    magn:    1.5113    constr:    0.0000
     atom:   22    charge:   14.3874    magn:   -1.5092    constr:    0.0000
     atom:   23    charge:   14.3868    magn:    1.5123    constr:    0.0000
     atom:   24    charge:   14.3874    magn:   -1.5128    constr:    0.0000
     atom:   25    charge:   14.3870    magn:    1.5101    constr:    0.0000
     atom:   26    charge:   14.3873    magn:   -1.5098    constr:    0.0000
     atom:   27    charge:   14.3867    magn:    1.5119    constr:    0.0000
     atom:   28    charge:   14.3874    magn:   -1.5128    constr:    0.0000
     atom:   29    charge:   14.3869    magn:    1.5101    constr:    0.0000
     atom:   30    charge:   14.3874    magn:   -1.5092    constr:    0.0000
     atom:   31    charge:   14.3867    magn:    1.5119    constr:    0.0000
     atom:   32    charge:   14.3874    magn:   -1.5128    constr:    0.0000

     total cpu time spent up to now is    11525.0 secs

     End of self-consistent calculation

     Number of k-points >= 100: set verbosity='high' to print the bands.

     the Fermi energy is    20.0413 ev

!    total energy              =  -10536.25298502 Ry
     Harris-Foulkes estimate   =  -10536.25298450 Ry
     estimated scf accuracy    <       0.00000075 Ry

     total all-electron energy =    -81457.742043 Ry

     The total energy is the sum of the following terms:

     one-electron contribution =   -3302.40599448 Ry
     hartree contribution      =    2000.12518541 Ry
     xc contribution           =    -886.91696499 Ry
     ewald contribution        =   -5697.51282058 Ry
     one-center paw contrib.   =   -2649.55884090 Ry
     smearing contrib. (-TS)   =       0.01645052 Ry

     total magnetization       =    -0.00 Bohr mag/cell
     absolute magnetization    =    50.19 Bohr mag/cell

     convergence has been achieved in  34 iterations

     Forces acting on atoms (cartesian axes, Ry/au):

     atom    1 type  1   force =     0.00000000    0.00000000    0.00000000
     atom    2 type  2   force =     0.00001152   -0.00001385    0.00000000
     atom    3 type  3   force =     0.00002014   -0.00000000    0.00004788
     atom    4 type  4   force =     0.00000000   -0.00002358   -0.00006447
     atom    5 type  1   force =     0.00000000    0.00000000    0.00000000
     atom    6 type  2   force =    -0.00000025   -0.00005914    0.00000000
     atom    7 type  3   force =     0.00002014    0.00000000   -0.00004788
     atom    8 type  4   force =     0.00000000   -0.00002358    0.00006447
     atom    9 type  1   force =     0.00000000    0.00000000    0.00000000
     atom   10 type  2   force =     0.00001152    0.00001385    0.00000000
     atom   11 type  3   force =    -0.00000221    0.00000000   -0.00000058
     atom   12 type  4   force =     0.00000000    0.00002358   -0.00006447
     atom   13 type  1   force =     0.00000000    0.00000000    0.00000000
     atom   14 type  2   force =    -0.00000025    0.00005914    0.00000000
     atom   15 type  3   force =    -0.00000221    0.00000000    0.00000058
     atom   16 type  4   force =     0.00000000    0.00002358    0.00006447
     atom   17 type  1   force =     0.00000000    0.00000000    0.00000000
     atom   18 type  2   force =    -0.00001152   -0.00001385    0.00000000
     atom   19 type  3   force =    -0.00002014    0.00000000    0.00004788
     atom   20 type  4   force =     0.00000000    0.00003641   -0.00002150
     atom   21 type  1   force =     0.00000000    0.00000000    0.00000000
     atom   22 type  2   force =     0.00000025   -0.00005914    0.00000000
     atom   23 type  3   force =    -0.00002014   -0.00000000   -0.00004788
     atom   24 type  4   force =     0.00000000    0.00003641    0.00002150
     atom   25 type  1   force =     0.00000000    0.00000000    0.00000000
     atom   26 type  2   force =    -0.00001152    0.00001385    0.00000000
     atom   27 type  3   force =     0.00000221    0.00000000   -0.00000058
     atom   28 type  4   force =     0.00000000   -0.00003641   -0.00002150
     atom   29 type  1   force =     0.00000000    0.00000000    0.00000000
     atom   30 type  2   force =     0.00000025    0.00005914    0.00000000
     atom   31 type  3   force =     0.00000221    0.00000000    0.00000058
     atom   32 type  4   force =     0.00000000   -0.00003641    0.00002150

     Total force =     0.000228     Total SCF correction =     0.003075
     SCF correction compared to forces is large: reduce conv_thr to get better values


     Computing stress (Cartesian axis) and pressure

          total   stress  (Ry/bohr**3)                   (kbar)     P=   -6.05
  -0.00002842   0.00000000   0.00000000         -4.18      0.00      0.00
   0.00000000  -0.00006658   0.00000000          0.00     -9.79      0.00
   0.00000000   0.00000000  -0.00002834          0.00      0.00     -4.17


     Writing output data file KqcfnSOBTSeLJGkt.save/
-------------------------------------------------------
Primary job  terminated normally, but 1 process returned
a non-zero exit code.. Per user-direction, the job has been aborted.
-------------------------------------------------------
--------------------------------------------------------------------------
mpirun detected that one or more processes exited with non-zero status, thus causing
the job to be terminated. The first process to do so was:

  Process name: [[12255,1],0]
  Exit code:    38
--------------------------------------------------------------------------
