--------------------------------------------------------------------------
WARNING: No preset parameters were found for the device that Open MPI
detected:

  Local host:            bear-pg0206u39a
  Device name:           mlx5_0
  Device vendor ID:      0x02c9
  Device vendor part ID: 4123

Default device parameters will be used, which may result in lower
performance.  You can edit any of the files specified by the
btl_openib_device_param_files MCA parameter to set values for your
device.

NOTE: You can turn off this warning by setting the MCA parameter
      btl_openib_warn_no_device_params_found to 0.
--------------------------------------------------------------------------
--------------------------------------------------------------------------
WARNING: There was an error initializing an OpenFabrics device.

  Local host:   bear-pg0206u39a
  Local device: mlx5_0
--------------------------------------------------------------------------

     Program PWSCF v.6.3 starts on  9Sep2020 at 11:51:44 

     This program is part of the open-source Quantum ESPRESSO suite
     for quantum simulation of materials; please cite
         "P. Giannozzi et al., J. Phys.:Condens. Matter 21 395502 (2009);
         "P. Giannozzi et al., J. Phys.:Condens. Matter 29 465901 (2017);
          URL http://www.quantum-espresso.org", 
     in publications or presentations arising from this work. More details at
     http://www.quantum-espresso.org/quote

     Parallel version (MPI & OpenMP), running on      40 processor cores
     Number of MPI processes:                40
     Threads/MPI process:                     1

     MPI processes distributed on     1 nodes
     R & G space division:  proc/nbgrp/npool/nimage =      40
     Reading input from wd/ec/ec_1_005.in
Warning: card &IONS ignored
Warning: card ION_DYNAMICS = 'BFGS', ignored
Warning: card / ignored
Warning: card &CELL ignored
Warning: card CELL_DYNAMICS = 'BFGS', ignored
Warning: card CELL_FACTOR = 2.0, ignored
Warning: card PRESS = 0.0, ignored
Warning: card / ignored

     Current dimensions of program PWSCF are:
     Max number of different atomic species (ntypx) = 10
     Max number of k-points (npk) =  40000
     Max angular momentum in pseudopotentials (lmaxx) =  3
               file Fe.pbe-spn-kjpaw_psl.1.0.0.UPF: wavefunction(s)  3P 3D renormalized
               file Fe.pbe-spn-kjpaw_psl.1.0.0.UPF: wavefunction(s)  3P 3D renormalized

     Subspace diagonalization in iterative solution of the eigenvalue problem:
     a serial algorithm will be used

     Found symmetry operation: I + (  0.0000  0.0000 -0.5000)
     This is a supercell, fractional translations are disabled
 
     Parallelization info
     --------------------
     sticks:   dense  smooth     PW     G-vecs:    dense   smooth      PW
     Min          96      63     17                 4489     2409     357
     Max          98      64     18                 4491     2414     362
     Sum        3859    2553    717               179607    96457   14371
 


     bravais-lattice index     =            0
     lattice parameter (alat)  =      10.5935  a.u.
     unit-cell volume          =    1192.7957 (a.u.)^3
     number of atoms/cell      =           16
     number of atomic types    =            2
     number of electrons       =       256.00
     number of Kohn-Sham states=          154
     kinetic-energy cutoff     =      71.0000  Ry
     charge density cutoff     =     430.0000  Ry
     convergence threshold     =      1.0E-06
     mixing beta               =       0.1000
     number of iterations used =           10  plain     mixing
     Exchange-correlation      = SLA PW PBX PBC ( 1  4  3  4 0 0)

     celldm(1)=  10.593520  celldm(2)=   0.000000  celldm(3)=   0.000000
     celldm(4)=   0.000000  celldm(5)=   0.000000  celldm(6)=   0.000000

     crystal axes: (cart. coord. in units of alat)
               a(1) = (   1.003333   0.000000   0.000000 )  
               a(2) = (   0.000000   1.000000   0.000000 )  
               a(3) = (   0.000000   0.000000   1.000000 )  

     reciprocal axes: (cart. coord. in units 2 pi/alat)
               b(1) = (  0.996678  0.000000  0.000000 )  
               b(2) = (  0.000000  1.000000  0.000000 )  
               b(3) = (  0.000000  0.000000  1.000000 )  


     PseudoPot. # 1 for Fe read from file:
     /rds/homes/b/bxp912/pp/Fe.pbe-spn-kjpaw_psl.1.0.0.UPF
     MD5 check sum: 42f43b795421b414b0dc916aa790dbcb
     Pseudo is Projector augmented-wave + core cor, Zval = 16.0
     Generated using "atomic" code by A. Dal Corso v.6.3
     Shape of augmentation charge: PSQ
     Using radial grid of 1191 points,  6 beta functions with: 
                l(1) =   0
                l(2) =   0
                l(3) =   1
                l(4) =   1
                l(5) =   2
                l(6) =   2
     Q(r) pseudized with 0 coefficients 


     PseudoPot. # 2 for Fe read from file:
     /rds/homes/b/bxp912/pp/Fe.pbe-spn-kjpaw_psl.1.0.0.UPF
     MD5 check sum: 42f43b795421b414b0dc916aa790dbcb
     Pseudo is Projector augmented-wave + core cor, Zval = 16.0
     Generated using "atomic" code by A. Dal Corso v.6.3
     Shape of augmentation charge: PSQ
     Using radial grid of 1191 points,  6 beta functions with: 
                l(1) =   0
                l(2) =   0
                l(3) =   1
                l(4) =   1
                l(5) =   2
                l(6) =   2
     Q(r) pseudized with 0 coefficients 


     atomic species   valence    mass     pseudopotential
        Fe1           16.00    55.84500     Fe( 1.00)
        Fe2           16.00    55.84500     Fe( 1.00)

     Starting magnetic structure 
     atomic species   magnetization
        Fe1          0.100
        Fe2          0.100

     16 Sym. Ops., with inversion, found



   Cartesian axes

     site n.     atom                  positions (alat units)
         1           Fe1 tau(   1) = (   0.0000000   0.0000000   0.0000000  )
         2           Fe2 tau(   2) = (   0.2508338   0.2500004   0.2500004  )
         3           Fe1 tau(   3) = (   0.0000000   0.0000000   0.5000000  )
         4           Fe2 tau(   4) = (   0.2508338   0.2500004   0.7499996  )
         5           Fe1 tau(   5) = (   0.0000000   0.5000000   0.0000000  )
         6           Fe2 tau(   6) = (   0.2508338   0.7499996   0.2500004  )
         7           Fe1 tau(   7) = (   0.0000000   0.5000000   0.5000000  )
         8           Fe2 tau(   8) = (   0.2508338   0.7499996   0.7499996  )
         9           Fe1 tau(   9) = (   0.5016667   0.0000000   0.0000000  )
        10           Fe2 tau(  10) = (   0.7524996   0.2500004   0.2500004  )
        11           Fe1 tau(  11) = (   0.5016667   0.0000000   0.5000000  )
        12           Fe2 tau(  12) = (   0.7524996   0.2500004   0.7499996  )
        13           Fe1 tau(  13) = (   0.5016667   0.5000000   0.0000000  )
        14           Fe2 tau(  14) = (   0.7524996   0.7499996   0.2500004  )
        15           Fe1 tau(  15) = (   0.5016667   0.5000000   0.5000000  )
        16           Fe2 tau(  16) = (   0.7524996   0.7499996   0.7499996  )

     number of k points=    75  Marzari-Vanderbilt smearing, width (Ry)=  0.0400
                       cart. coord. in units 2pi/alat
        k(    1) = (   0.0553710   0.0555556   0.0555556), wk =   0.0109739
        k(    2) = (   0.0553710   0.0555556   0.1666667), wk =   0.0219479
        k(    3) = (   0.0553710   0.0555556   0.2777778), wk =   0.0219479
        k(    4) = (   0.0553710   0.0555556   0.3888889), wk =   0.0219479
        k(    5) = (   0.0553710   0.0555556  -0.5000000), wk =   0.0109739
        k(    6) = (   0.0553710   0.1666667   0.1666667), wk =   0.0109739
        k(    7) = (   0.0553710   0.1666667   0.2777778), wk =   0.0219479
        k(    8) = (   0.0553710   0.1666667   0.3888889), wk =   0.0219479
        k(    9) = (   0.0553710   0.1666667  -0.5000000), wk =   0.0109739
        k(   10) = (   0.0553710   0.2777778   0.2777778), wk =   0.0109739
        k(   11) = (   0.0553710   0.2777778   0.3888889), wk =   0.0219479
        k(   12) = (   0.0553710   0.2777778  -0.5000000), wk =   0.0109739
        k(   13) = (   0.0553710   0.3888889   0.3888889), wk =   0.0109739
        k(   14) = (   0.0553710   0.3888889  -0.5000000), wk =   0.0109739
        k(   15) = (   0.0553710  -0.5000000  -0.5000000), wk =   0.0027435
        k(   16) = (   0.1661130   0.0555556   0.0555556), wk =   0.0109739
        k(   17) = (   0.1661130   0.0555556   0.1666667), wk =   0.0219479
        k(   18) = (   0.1661130   0.0555556   0.2777778), wk =   0.0219479
        k(   19) = (   0.1661130   0.0555556   0.3888889), wk =   0.0219479
        k(   20) = (   0.1661130   0.0555556  -0.5000000), wk =   0.0109739
        k(   21) = (   0.1661130   0.1666667   0.1666667), wk =   0.0109739
        k(   22) = (   0.1661130   0.1666667   0.2777778), wk =   0.0219479
        k(   23) = (   0.1661130   0.1666667   0.3888889), wk =   0.0219479
        k(   24) = (   0.1661130   0.1666667  -0.5000000), wk =   0.0109739
        k(   25) = (   0.1661130   0.2777778   0.2777778), wk =   0.0109739
        k(   26) = (   0.1661130   0.2777778   0.3888889), wk =   0.0219479
        k(   27) = (   0.1661130   0.2777778  -0.5000000), wk =   0.0109739
        k(   28) = (   0.1661130   0.3888889   0.3888889), wk =   0.0109739
        k(   29) = (   0.1661130   0.3888889  -0.5000000), wk =   0.0109739
        k(   30) = (   0.1661130  -0.5000000  -0.5000000), wk =   0.0027435
        k(   31) = (   0.2768549   0.0555556   0.0555556), wk =   0.0109739
        k(   32) = (   0.2768549   0.0555556   0.1666667), wk =   0.0219479
        k(   33) = (   0.2768549   0.0555556   0.2777778), wk =   0.0219479
        k(   34) = (   0.2768549   0.0555556   0.3888889), wk =   0.0219479
        k(   35) = (   0.2768549   0.0555556  -0.5000000), wk =   0.0109739
        k(   36) = (   0.2768549   0.1666667   0.1666667), wk =   0.0109739
        k(   37) = (   0.2768549   0.1666667   0.2777778), wk =   0.0219479
        k(   38) = (   0.2768549   0.1666667   0.3888889), wk =   0.0219479
        k(   39) = (   0.2768549   0.1666667  -0.5000000), wk =   0.0109739
        k(   40) = (   0.2768549   0.2777778   0.2777778), wk =   0.0109739
        k(   41) = (   0.2768549   0.2777778   0.3888889), wk =   0.0219479
        k(   42) = (   0.2768549   0.2777778  -0.5000000), wk =   0.0109739
        k(   43) = (   0.2768549   0.3888889   0.3888889), wk =   0.0109739
        k(   44) = (   0.2768549   0.3888889  -0.5000000), wk =   0.0109739
        k(   45) = (   0.2768549  -0.5000000  -0.5000000), wk =   0.0027435
        k(   46) = (   0.3875969   0.0555556   0.0555556), wk =   0.0109739
        k(   47) = (   0.3875969   0.0555556   0.1666667), wk =   0.0219479
        k(   48) = (   0.3875969   0.0555556   0.2777778), wk =   0.0219479
        k(   49) = (   0.3875969   0.0555556   0.3888889), wk =   0.0219479
        k(   50) = (   0.3875969   0.0555556  -0.5000000), wk =   0.0109739
        k(   51) = (   0.3875969   0.1666667   0.1666667), wk =   0.0109739
        k(   52) = (   0.3875969   0.1666667   0.2777778), wk =   0.0219479
        k(   53) = (   0.3875969   0.1666667   0.3888889), wk =   0.0219479
        k(   54) = (   0.3875969   0.1666667  -0.5000000), wk =   0.0109739
        k(   55) = (   0.3875969   0.2777778   0.2777778), wk =   0.0109739
        k(   56) = (   0.3875969   0.2777778   0.3888889), wk =   0.0219479
        k(   57) = (   0.3875969   0.2777778  -0.5000000), wk =   0.0109739
        k(   58) = (   0.3875969   0.3888889   0.3888889), wk =   0.0109739
        k(   59) = (   0.3875969   0.3888889  -0.5000000), wk =   0.0109739
        k(   60) = (   0.3875969  -0.5000000  -0.5000000), wk =   0.0027435
        k(   61) = (  -0.4983389   0.0555556   0.0555556), wk =   0.0054870
        k(   62) = (  -0.4983389   0.0555556   0.1666667), wk =   0.0109739
        k(   63) = (  -0.4983389   0.0555556   0.2777778), wk =   0.0109739
        k(   64) = (  -0.4983389   0.0555556   0.3888889), wk =   0.0109739
        k(   65) = (  -0.4983389   0.0555556  -0.5000000), wk =   0.0054870
        k(   66) = (  -0.4983389   0.1666667   0.1666667), wk =   0.0054870
        k(   67) = (  -0.4983389   0.1666667   0.2777778), wk =   0.0109739
        k(   68) = (  -0.4983389   0.1666667   0.3888889), wk =   0.0109739
        k(   69) = (  -0.4983389   0.1666667  -0.5000000), wk =   0.0054870
        k(   70) = (  -0.4983389   0.2777778   0.2777778), wk =   0.0054870
        k(   71) = (  -0.4983389   0.2777778   0.3888889), wk =   0.0109739
        k(   72) = (  -0.4983389   0.2777778  -0.5000000), wk =   0.0054870
        k(   73) = (  -0.4983389   0.3888889   0.3888889), wk =   0.0054870
        k(   74) = (  -0.4983389   0.3888889  -0.5000000), wk =   0.0054870
        k(   75) = (  -0.4983389  -0.5000000  -0.5000000), wk =   0.0013717

     Dense  grid:   179607 G-vectors     FFT dimensions: (  72,  72,  72)

     Smooth grid:    96457 G-vectors     FFT dimensions: (  60,  60,  60)

     Estimated max dynamical RAM per process >     145.28 MB

     Estimated total dynamical RAM >       5.68 GB
     Generating pointlists ...
     new r_m :   0.1788 (alat units)  1.8943 (a.u.) for type    1
     new r_m :   0.1788 (alat units)  1.8943 (a.u.) for type    2

     Check: negative/imaginary core charge=   -0.000006    0.000000

     Initial potential from superposition of free atoms

     starting charge  255.99300, renormalised to  256.00000
     Starting wfcs are  160 randomized atomic wfcs
     Checking if some PAW data can be deallocated... 

     total cpu time spent up to now is       15.0 secs

     Self-consistent Calculation

     iteration #  1     ecut=    71.00 Ry     beta= 0.10
     Davidson diagonalization with overlap
     ethr =  1.00E-02,  avg # of iterations =  3.3

     Threshold (ethr) on eigenvalues was too large:
     Diagonalizing with lowered threshold

     Davidson diagonalization with overlap
     ethr =  2.78E-04,  avg # of iterations =  3.4

     total cpu time spent up to now is      126.9 secs

     total energy              =   -5268.16545740 Ry
     Harris-Foulkes estimate   =   -5268.30958452 Ry
     estimated scf accuracy    <       0.80862787 Ry

     total magnetization       =    28.07 Bohr mag/cell
     absolute magnetization    =    28.42 Bohr mag/cell

     iteration #  2     ecut=    71.00 Ry     beta= 0.10
     Davidson diagonalization with overlap
     ethr =  3.16E-04,  avg # of iterations =  1.0

     total cpu time spent up to now is      160.4 secs

     total energy              =   -5268.05169247 Ry
     Harris-Foulkes estimate   =   -5268.18301422 Ry
     estimated scf accuracy    <       0.48115683 Ry

     total magnetization       =    28.71 Bohr mag/cell
     absolute magnetization    =    28.99 Bohr mag/cell

     iteration #  3     ecut=    71.00 Ry     beta= 0.10
     Davidson diagonalization with overlap
     ethr =  1.88E-04,  avg # of iterations =  2.6

     total cpu time spent up to now is      207.8 secs

     total energy              =   -5268.04254413 Ry
     Harris-Foulkes estimate   =   -5268.10425098 Ry
     estimated scf accuracy    <       0.55879862 Ry

     total magnetization       =    29.54 Bohr mag/cell
     absolute magnetization    =    29.88 Bohr mag/cell

     iteration #  4     ecut=    71.00 Ry     beta= 0.10
     Davidson diagonalization with overlap
     ethr =  1.88E-04,  avg # of iterations =  1.3

     total cpu time spent up to now is      243.5 secs

     total energy              =   -5268.06950863 Ry
     Harris-Foulkes estimate   =   -5268.07172879 Ry
     estimated scf accuracy    <       0.15810718 Ry

     total magnetization       =    30.27 Bohr mag/cell
     absolute magnetization    =    30.64 Bohr mag/cell

     iteration #  5     ecut=    71.00 Ry     beta= 0.10
     Davidson diagonalization with overlap
     ethr =  6.18E-05,  avg # of iterations =  1.4

     total cpu time spent up to now is      280.2 secs

     total energy              =   -5268.08999776 Ry
     Harris-Foulkes estimate   =   -5268.07306092 Ry
     estimated scf accuracy    <       0.11241359 Ry

     total magnetization       =    30.35 Bohr mag/cell
     absolute magnetization    =    30.75 Bohr mag/cell

     iteration #  6     ecut=    71.00 Ry     beta= 0.10
     Davidson diagonalization with overlap
     ethr =  4.39E-05,  avg # of iterations =  3.2

     total cpu time spent up to now is      341.8 secs

     total energy              =   -5268.14841391 Ry
     Harris-Foulkes estimate   =   -5268.13236766 Ry
     estimated scf accuracy    <       0.14773266 Ry

     total magnetization       =    30.99 Bohr mag/cell
     absolute magnetization    =    31.71 Bohr mag/cell

     iteration #  7     ecut=    71.00 Ry     beta= 0.10
     Davidson diagonalization with overlap
     ethr =  4.39E-05,  avg # of iterations =  2.0

     total cpu time spent up to now is      383.9 secs

     total energy              =   -5268.15319582 Ry
     Harris-Foulkes estimate   =   -5268.15549359 Ry
     estimated scf accuracy    <       0.10712835 Ry

     total magnetization       =    31.48 Bohr mag/cell
     absolute magnetization    =    32.39 Bohr mag/cell

     iteration #  8     ecut=    71.00 Ry     beta= 0.10
     Davidson diagonalization with overlap
     ethr =  4.18E-05,  avg # of iterations =  1.0

     negative rho (up, down):  0.000E+00 2.226E-03

     total cpu time spent up to now is      417.5 secs

     total energy              =   -5268.16871226 Ry
     Harris-Foulkes estimate   =   -5268.15430996 Ry
     estimated scf accuracy    <       0.08237590 Ry

     total magnetization       =    31.60 Bohr mag/cell
     absolute magnetization    =    32.57 Bohr mag/cell

     iteration #  9     ecut=    71.00 Ry     beta= 0.10
     Davidson diagonalization with overlap
     ethr =  3.22E-05,  avg # of iterations =  2.7

     negative rho (up, down):  0.000E+00 2.340E-03

     total cpu time spent up to now is      473.8 secs

     total energy              =   -5268.19181869 Ry
     Harris-Foulkes estimate   =   -5268.19333295 Ry
     estimated scf accuracy    <       0.02477011 Ry

     total magnetization       =    32.51 Bohr mag/cell
     absolute magnetization    =    34.01 Bohr mag/cell

     iteration # 10     ecut=    71.00 Ry     beta= 0.10
     Davidson diagonalization with overlap
     ethr =  9.68E-06,  avg # of iterations =  1.2

     negative rho (up, down):  0.000E+00 2.483E-03

     total cpu time spent up to now is      508.7 secs

     total energy              =   -5268.18938998 Ry
     Harris-Foulkes estimate   =   -5268.19216665 Ry
     estimated scf accuracy    <       0.01235915 Ry

     total magnetization       =    32.59 Bohr mag/cell
     absolute magnetization    =    34.12 Bohr mag/cell

     iteration # 11     ecut=    71.00 Ry     beta= 0.10
     Davidson diagonalization with overlap
     ethr =  4.83E-06,  avg # of iterations =  2.1

     negative rho (up, down):  0.000E+00 2.585E-03

     total cpu time spent up to now is      551.5 secs

     total energy              =   -5268.18972880 Ry
     Harris-Foulkes estimate   =   -5268.18999557 Ry
     estimated scf accuracy    <       0.00134523 Ry

     total magnetization       =    32.71 Bohr mag/cell
     absolute magnetization    =    34.34 Bohr mag/cell

     iteration # 12     ecut=    71.00 Ry     beta= 0.10
     Davidson diagonalization with overlap
     ethr =  5.25E-07,  avg # of iterations =  2.6

     negative rho (up, down):  0.000E+00 2.655E-03

     total cpu time spent up to now is      597.7 secs

     total energy              =   -5268.18980440 Ry
     Harris-Foulkes estimate   =   -5268.18982238 Ry
     estimated scf accuracy    <       0.00063121 Ry

     total magnetization       =    32.76 Bohr mag/cell
     absolute magnetization    =    34.43 Bohr mag/cell

     iteration # 13     ecut=    71.00 Ry     beta= 0.10
     Davidson diagonalization with overlap
     ethr =  2.47E-07,  avg # of iterations =  3.0

     negative rho (up, down):  0.000E+00 2.478E-03

     total cpu time spent up to now is      650.5 secs

     total energy              =   -5268.19022286 Ry
     Harris-Foulkes estimate   =   -5268.18988842 Ry
     estimated scf accuracy    <       0.00082188 Ry

     total magnetization       =    32.82 Bohr mag/cell
     absolute magnetization    =    34.54 Bohr mag/cell

     iteration # 14     ecut=    71.00 Ry     beta= 0.10
     Davidson diagonalization with overlap
     ethr =  2.47E-07,  avg # of iterations =  3.0

     negative rho (up, down):  0.000E+00 2.459E-03

     total cpu time spent up to now is      706.1 secs

     total energy              =   -5268.19046201 Ry
     Harris-Foulkes estimate   =   -5268.19038944 Ry
     estimated scf accuracy    <       0.00036220 Ry

     total magnetization       =    32.84 Bohr mag/cell
     absolute magnetization    =    34.57 Bohr mag/cell

     iteration # 15     ecut=    71.00 Ry     beta= 0.10
     Davidson diagonalization with overlap
     ethr =  1.41E-07,  avg # of iterations =  1.4

     negative rho (up, down):  0.000E+00 2.493E-03

     total cpu time spent up to now is      742.8 secs

     total energy              =   -5268.19047926 Ry
     Harris-Foulkes estimate   =   -5268.19048326 Ry
     estimated scf accuracy    <       0.00012697 Ry

     total magnetization       =    32.86 Bohr mag/cell
     absolute magnetization    =    34.61 Bohr mag/cell

     iteration # 16     ecut=    71.00 Ry     beta= 0.10
     Davidson diagonalization with overlap
     ethr =  4.96E-08,  avg # of iterations =  2.0

     negative rho (up, down):  0.000E+00 2.396E-03

     total cpu time spent up to now is      787.2 secs

     total energy              =   -5268.19052077 Ry
     Harris-Foulkes estimate   =   -5268.19049607 Ry
     estimated scf accuracy    <       0.00007051 Ry

     total magnetization       =    32.89 Bohr mag/cell
     absolute magnetization    =    34.66 Bohr mag/cell

     iteration # 17     ecut=    71.00 Ry     beta= 0.10
     Davidson diagonalization with overlap
     ethr =  2.75E-08,  avg # of iterations =  2.7

     negative rho (up, down):  0.000E+00 2.407E-03

     total cpu time spent up to now is      844.2 secs

     total energy              =   -5268.19055897 Ry
     Harris-Foulkes estimate   =   -5268.19054765 Ry
     estimated scf accuracy    <       0.00004632 Ry

     total magnetization       =    32.90 Bohr mag/cell
     absolute magnetization    =    34.66 Bohr mag/cell

     iteration # 18     ecut=    71.00 Ry     beta= 0.10
     Davidson diagonalization with overlap
     ethr =  1.81E-08,  avg # of iterations =  1.9

     negative rho (up, down):  0.000E+00 2.472E-03

     total cpu time spent up to now is      884.1 secs

     total energy              =   -5268.19055764 Ry
     Harris-Foulkes estimate   =   -5268.19056194 Ry
     estimated scf accuracy    <       0.00002819 Ry

     total magnetization       =    32.92 Bohr mag/cell
     absolute magnetization    =    34.68 Bohr mag/cell

     iteration # 19     ecut=    71.00 Ry     beta= 0.10
     Davidson diagonalization with overlap
     ethr =  1.10E-08,  avg # of iterations =  3.4

     negative rho (up, down):  0.000E+00 2.474E-03

     total cpu time spent up to now is      943.9 secs

     total energy              =   -5268.19057052 Ry
     Harris-Foulkes estimate   =   -5268.19056733 Ry
     estimated scf accuracy    <       0.00000940 Ry

     total magnetization       =    32.94 Bohr mag/cell
     absolute magnetization    =    34.73 Bohr mag/cell

     iteration # 20     ecut=    71.00 Ry     beta= 0.10
     Davidson diagonalization with overlap
     ethr =  3.67E-09,  avg # of iterations =  1.0

     negative rho (up, down):  0.000E+00 2.477E-03

     total cpu time spent up to now is      977.5 secs

     total energy              =   -5268.19057287 Ry
     Harris-Foulkes estimate   =   -5268.19057100 Ry
     estimated scf accuracy    <       0.00000482 Ry

     total magnetization       =    32.95 Bohr mag/cell
     absolute magnetization    =    34.73 Bohr mag/cell

     iteration # 21     ecut=    71.00 Ry     beta= 0.10
     Davidson diagonalization with overlap
     ethr =  1.88E-09,  avg # of iterations =  2.3

     negative rho (up, down):  0.000E+00 2.477E-03

     total cpu time spent up to now is     1019.7 secs

     total energy              =   -5268.19057430 Ry
     Harris-Foulkes estimate   =   -5268.19057324 Ry
     estimated scf accuracy    <       0.00000364 Ry

     total magnetization       =    32.95 Bohr mag/cell
     absolute magnetization    =    34.74 Bohr mag/cell

     iteration # 22     ecut=    71.00 Ry     beta= 0.10
     Davidson diagonalization with overlap
     ethr =  1.42E-09,  avg # of iterations =  1.0

     negative rho (up, down):  0.000E+00 2.471E-03

     total cpu time spent up to now is     1053.9 secs

     total energy              =   -5268.19057611 Ry
     Harris-Foulkes estimate   =   -5268.19057452 Ry
     estimated scf accuracy    <       0.00000355 Ry

     total magnetization       =    32.96 Bohr mag/cell
     absolute magnetization    =    34.74 Bohr mag/cell

     iteration # 23     ecut=    71.00 Ry     beta= 0.10
     Davidson diagonalization with overlap
     ethr =  1.39E-09,  avg # of iterations =  2.7

     negative rho (up, down):  0.000E+00 2.482E-03
 
     Magnetic moment per site:
     atom:    1    charge:   14.3690    magn:    2.1035    constr:    0.0000
     atom:    2    charge:   14.3690    magn:    2.1060    constr:    0.0000
     atom:    3    charge:   14.3694    magn:    2.1044    constr:    0.0000
     atom:    4    charge:   14.3690    magn:    2.1060    constr:    0.0000
     atom:    5    charge:   14.3694    magn:    2.1044    constr:    0.0000
     atom:    6    charge:   14.3690    magn:    2.1060    constr:    0.0000
     atom:    7    charge:   14.3694    magn:    2.1050    constr:    0.0000
     atom:    8    charge:   14.3690    magn:    2.1060    constr:    0.0000
     atom:    9    charge:   14.3690    magn:    2.1024    constr:    0.0000
     atom:   10    charge:   14.3690    magn:    2.1060    constr:    0.0000
     atom:   11    charge:   14.3694    magn:    2.1031    constr:    0.0000
     atom:   12    charge:   14.3690    magn:    2.1060    constr:    0.0000
     atom:   13    charge:   14.3694    magn:    2.1031    constr:    0.0000
     atom:   14    charge:   14.3690    magn:    2.1060    constr:    0.0000
     atom:   15    charge:   14.3693    magn:    2.1039    constr:    0.0000
     atom:   16    charge:   14.3690    magn:    2.1060    constr:    0.0000

     total cpu time spent up to now is     1101.9 secs

     End of self-consistent calculation

     Number of k-points >= 100: set verbosity='high' to print the bands.

     the Fermi energy is    18.8946 ev

!    total energy              =   -5268.19057894 Ry
     Harris-Foulkes estimate   =   -5268.19057667 Ry
     estimated scf accuracy    <       0.00000089 Ry

     total all-electron energy =    -40728.935108 Ry

     The total energy is the sum of the following terms:

     one-electron contribution =   -1712.36672330 Ry
     hartree contribution      =    1024.05419274 Ry
     xc contribution           =    -444.22392704 Ry
     ewald contribution        =   -2811.10943395 Ry
     one-center paw contrib.   =   -1324.67036123 Ry
     smearing contrib. (-TS)   =       0.12567382 Ry

     total magnetization       =    32.96 Bohr mag/cell
     absolute magnetization    =    34.74 Bohr mag/cell

     convergence has been achieved in  23 iterations

     negative rho (up, down):  0.000E+00 2.482E-03

     Forces acting on atoms (cartesian axes, Ry/au):

     atom    1 type  1   force =     0.00000000    0.00000000    0.00000000
     atom    2 type  2   force =    -0.00008325    0.00010989    0.00010989
     atom    3 type  1   force =     0.00000000    0.00000000    0.00000000
     atom    4 type  2   force =    -0.00008325    0.00010989   -0.00010989
     atom    5 type  1   force =     0.00000000    0.00000000    0.00000000
     atom    6 type  2   force =    -0.00008325   -0.00010989    0.00010989
     atom    7 type  1   force =     0.00000000    0.00000000    0.00000000
     atom    8 type  2   force =    -0.00008325   -0.00010989   -0.00010989
     atom    9 type  1   force =     0.00000000    0.00000000    0.00000000
     atom   10 type  2   force =     0.00008325    0.00010989    0.00010989
     atom   11 type  1   force =     0.00000000    0.00000000    0.00000000
     atom   12 type  2   force =     0.00008325    0.00010989   -0.00010989
     atom   13 type  1   force =     0.00000000    0.00000000    0.00000000
     atom   14 type  2   force =     0.00008325   -0.00010989    0.00010989
     atom   15 type  1   force =     0.00000000    0.00000000    0.00000000
     atom   16 type  2   force =     0.00008325   -0.00010989   -0.00010989

     Total force =     0.000499     Total SCF correction =     0.004643
     SCF correction compared to forces is large: reduce conv_thr to get better values


     Computing stress (Cartesian axis) and pressure


     negative rho (up, down):  0.000E+00 2.482E-03
          total   stress  (Ry/bohr**3)                   (kbar)     P=  -10.50
  -0.00009077   0.00000000   0.00000000        -13.35      0.00      0.00
   0.00000000  -0.00006171   0.00000000          0.00     -9.08      0.00
   0.00000000   0.00000000  -0.00006171          0.00      0.00     -9.08


     Writing output data file twWDiGOTCMcLbQnt.save/
 
     init_run     :     13.10s CPU     13.67s WALL (       1 calls)
     electrons    :   1054.45s CPU   1086.94s WALL (       1 calls)
     forces       :      4.62s CPU      5.05s WALL (       1 calls)
     stress       :     13.20s CPU     13.34s WALL (       1 calls)

     Called by init_run:
     wfcinit      :     12.60s CPU     13.11s WALL (       1 calls)
     potinit      :      0.23s CPU      0.25s WALL (       1 calls)
     hinit0       :      0.17s CPU      0.18s WALL (       1 calls)

     Called by electrons:
     c_bands      :    949.27s CPU    975.89s WALL (      24 calls)
     sum_band     :    100.37s CPU    105.66s WALL (      24 calls)
     v_of_rho     :      0.36s CPU      0.36s WALL (      24 calls)
     newd         :      0.74s CPU      0.95s WALL (      24 calls)
     PAW_pot      :      3.59s CPU      3.87s WALL (      24 calls)
     mix_rho      :      0.14s CPU      0.15s WALL (      24 calls)

     Called by c_bands:
     init_us_2    :      5.41s CPU      5.49s WALL (    7650 calls)
     cegterg      :    922.77s CPU    949.11s WALL (    3600 calls)

     Called by sum_band:
     sum_band:bec :      1.42s CPU      1.44s WALL (    3600 calls)
     addusdens    :      1.28s CPU      1.48s WALL (      24 calls)

     Called by *egterg:
     h_psi        :    397.54s CPU    413.93s WALL (   11591 calls)
     s_psi        :     22.11s CPU     22.24s WALL (   11591 calls)
     g_psi        :      0.91s CPU      0.92s WALL (    7841 calls)
     cdiaghg      :    409.03s CPU    410.22s WALL (   11291 calls)

     Called by h_psi:
     h_psi:pot    :    395.01s CPU    411.37s WALL (   11591 calls)
     h_psi:calbec :     32.77s CPU     37.87s WALL (   11591 calls)
     vloc_psi     :    340.11s CPU    351.23s WALL (   11591 calls)
     add_vuspsi   :     22.04s CPU     22.21s WALL (   11591 calls)

     General routines
     calbec       :     49.90s CPU     57.93s WALL (   15941 calls)
     fft          :      0.48s CPU      0.49s WALL (     642 calls)
     ffts         :      0.05s CPU      0.23s WALL (      96 calls)
     fftw         :    395.79s CPU    408.63s WALL ( 3000978 calls)
     interpolate  :      0.12s CPU      0.21s WALL (      48 calls)
 
     Parallel routines
     fft_scatt_xy :     26.31s CPU     27.13s WALL ( 3001716 calls)
     fft_scatt_yz :    265.14s CPU    273.93s WALL ( 3001716 calls)
 
     PWSCF        : 18m15.15s CPU    19m15.22s WALL

 
   This run was terminated on:  12:10:59   9Sep2020            

=------------------------------------------------------------------------------=
   JOB DONE.
=------------------------------------------------------------------------------=
