--------------------------------------------------------------------------
WARNING: No preset parameters were found for the device that Open MPI
detected:

  Local host:            bear-pg0206u26a
  Device name:           mlx5_0
  Device vendor ID:      0x02c9
  Device vendor part ID: 4123

Default device parameters will be used, which may result in lower
performance.  You can edit any of the files specified by the
btl_openib_device_param_files MCA parameter to set values for your
device.

NOTE: You can turn off this warning by setting the MCA parameter
      btl_openib_warn_no_device_params_found to 0.
--------------------------------------------------------------------------
--------------------------------------------------------------------------
WARNING: There was an error initializing an OpenFabrics device.

  Local host:   bear-pg0206u26a
  Local device: mlx5_0
--------------------------------------------------------------------------

     Program PWSCF v.6.3 starts on  2Nov2020 at  6:22:44 

     This program is part of the open-source Quantum ESPRESSO suite
     for quantum simulation of materials; please cite
         "P. Giannozzi et al., J. Phys.:Condens. Matter 21 395502 (2009);
         "P. Giannozzi et al., J. Phys.:Condens. Matter 29 465901 (2017);
          URL http://www.quantum-espresso.org", 
     in publications or presentations arising from this work. More details at
     http://www.quantum-espresso.org/quote

     Parallel version (MPI & OpenMP), running on      40 processor cores
     Number of MPI processes:                40
     Threads/MPI process:                     1

     MPI processes distributed on     1 nodes
     R & G space division:  proc/nbgrp/npool/nimage =      40
     Reading input from wd/ec/ec_2_005.in
Warning: card &IONS ignored
Warning: card ION_DYNAMICS = 'BFGS', ignored
Warning: card / ignored
Warning: card &CELL ignored
Warning: card CELL_DYNAMICS = 'BFGS', ignored
Warning: card CELL_FACTOR = 2.0, ignored
Warning: card PRESS = 0.0, ignored
Warning: card / ignored

     Current dimensions of program PWSCF are:
     Max number of different atomic species (ntypx) = 10
     Max number of k-points (npk) =  40000
     Max angular momentum in pseudopotentials (lmaxx) =  3
               file Fe.pbe-spn-kjpaw_psl.1.0.0.UPF: wavefunction(s)  3P 3D renormalized
               file Fe.pbe-spn-kjpaw_psl.1.0.0.UPF: wavefunction(s)  3P 3D renormalized

     Subspace diagonalization in iterative solution of the eigenvalue problem:
     a serial algorithm will be used

     Found symmetry operation: I + (  0.0000  0.0000 -0.5000)
     This is a supercell, fractional translations are disabled
 
     Parallelization info
     --------------------
     sticks:   dense  smooth     PW     G-vecs:    dense   smooth      PW
     Min          96      63     17                 4484     2407     357
     Max          97      64     18                 4487     2412     362
     Sum        3851    2553    717               179407    96409   14371
 


     bravais-lattice index     =            0
     lattice parameter (alat)  =      10.5935  a.u.
     unit-cell volume          =    1192.0031 (a.u.)^3
     number of atoms/cell      =           16
     number of atomic types    =            2
     number of electrons       =       256.00
     number of Kohn-Sham states=          154
     kinetic-energy cutoff     =      71.0000  Ry
     charge density cutoff     =     430.0000  Ry
     convergence threshold     =      1.0E-06
     mixing beta               =       0.1000
     number of iterations used =           10  plain     mixing
     Exchange-correlation      = SLA PW PBX PBC ( 1  4  3  4 0 0)

     celldm(1)=  10.593520  celldm(2)=   0.000000  celldm(3)=   0.000000
     celldm(4)=   0.000000  celldm(5)=   0.000000  celldm(6)=   0.000000

     crystal axes: (cart. coord. in units of alat)
               a(1) = (   1.000000   0.000000   0.000000 )  
               a(2) = (   0.000000   1.002667   0.000000 )  
               a(3) = (   0.000000   0.000000   1.000000 )  

     reciprocal axes: (cart. coord. in units 2 pi/alat)
               b(1) = (  1.000000  0.000000  0.000000 )  
               b(2) = (  0.000000  0.997340  0.000000 )  
               b(3) = (  0.000000  0.000000  1.000000 )  


     PseudoPot. # 1 for Fe read from file:
     /rds/homes/b/bxp912/pp/Fe.pbe-spn-kjpaw_psl.1.0.0.UPF
     MD5 check sum: 42f43b795421b414b0dc916aa790dbcb
     Pseudo is Projector augmented-wave + core cor, Zval = 16.0
     Generated using "atomic" code by A. Dal Corso v.6.3
     Shape of augmentation charge: PSQ
     Using radial grid of 1191 points,  6 beta functions with: 
                l(1) =   0
                l(2) =   0
                l(3) =   1
                l(4) =   1
                l(5) =   2
                l(6) =   2
     Q(r) pseudized with 0 coefficients 


     PseudoPot. # 2 for Fe read from file:
     /rds/homes/b/bxp912/pp/Fe.pbe-spn-kjpaw_psl.1.0.0.UPF
     MD5 check sum: 42f43b795421b414b0dc916aa790dbcb
     Pseudo is Projector augmented-wave + core cor, Zval = 16.0
     Generated using "atomic" code by A. Dal Corso v.6.3
     Shape of augmentation charge: PSQ
     Using radial grid of 1191 points,  6 beta functions with: 
                l(1) =   0
                l(2) =   0
                l(3) =   1
                l(4) =   1
                l(5) =   2
                l(6) =   2
     Q(r) pseudized with 0 coefficients 


     atomic species   valence    mass     pseudopotential
        Fe1           16.00    55.84500     Fe( 1.00)
        Fe2           16.00    55.84500     Fe( 1.00)

     Starting magnetic structure 
     atomic species   magnetization
        Fe1          0.100
        Fe2          0.100

     16 Sym. Ops., with inversion, found



   Cartesian axes

     site n.     atom                  positions (alat units)
         1           Fe1 tau(   1) = (   0.0000000   0.0000000   0.0000000  )
         2           Fe2 tau(   2) = (   0.2500004   0.2506671   0.2500004  )
         3           Fe1 tau(   3) = (   0.0000000   0.0000000   0.5000000  )
         4           Fe2 tau(   4) = (   0.2500004   0.2506671   0.7499996  )
         5           Fe1 tau(   5) = (   0.0000000   0.5013333   0.0000000  )
         6           Fe2 tau(   6) = (   0.2500004   0.7519996   0.2500004  )
         7           Fe1 tau(   7) = (   0.0000000   0.5013333   0.5000000  )
         8           Fe2 tau(   8) = (   0.2500004   0.7519996   0.7499996  )
         9           Fe1 tau(   9) = (   0.5000000   0.0000000   0.0000000  )
        10           Fe2 tau(  10) = (   0.7499996   0.2506671   0.2500004  )
        11           Fe1 tau(  11) = (   0.5000000   0.0000000   0.5000000  )
        12           Fe2 tau(  12) = (   0.7499996   0.2506671   0.7499996  )
        13           Fe1 tau(  13) = (   0.5000000   0.5013333   0.0000000  )
        14           Fe2 tau(  14) = (   0.7499996   0.7519996   0.2500004  )
        15           Fe1 tau(  15) = (   0.5000000   0.5013333   0.5000000  )
        16           Fe2 tau(  16) = (   0.7499996   0.7519996   0.7499996  )

     number of k points=    75  Marzari-Vanderbilt smearing, width (Ry)=  0.0400
                       cart. coord. in units 2pi/alat
        k(    1) = (   0.0555556   0.0554078   0.0555556), wk =   0.0109739
        k(    2) = (   0.0555556   0.0554078   0.1666667), wk =   0.0219479
        k(    3) = (   0.0555556   0.0554078   0.2777778), wk =   0.0219479
        k(    4) = (   0.0555556   0.0554078   0.3888889), wk =   0.0219479
        k(    5) = (   0.0555556   0.0554078  -0.5000000), wk =   0.0109739
        k(    6) = (   0.0555556   0.1662234   0.0555556), wk =   0.0109739
        k(    7) = (   0.0555556   0.1662234   0.1666667), wk =   0.0219479
        k(    8) = (   0.0555556   0.1662234   0.2777778), wk =   0.0219479
        k(    9) = (   0.0555556   0.1662234   0.3888889), wk =   0.0219479
        k(   10) = (   0.0555556   0.1662234  -0.5000000), wk =   0.0109739
        k(   11) = (   0.0555556   0.2770390   0.0555556), wk =   0.0109739
        k(   12) = (   0.0555556   0.2770390   0.1666667), wk =   0.0219479
        k(   13) = (   0.0555556   0.2770390   0.2777778), wk =   0.0219479
        k(   14) = (   0.0555556   0.2770390   0.3888889), wk =   0.0219479
        k(   15) = (   0.0555556   0.2770390  -0.5000000), wk =   0.0109739
        k(   16) = (   0.0555556   0.3878546   0.0555556), wk =   0.0109739
        k(   17) = (   0.0555556   0.3878546   0.1666667), wk =   0.0219479
        k(   18) = (   0.0555556   0.3878546   0.2777778), wk =   0.0219479
        k(   19) = (   0.0555556   0.3878546   0.3888889), wk =   0.0219479
        k(   20) = (   0.0555556   0.3878546  -0.5000000), wk =   0.0109739
        k(   21) = (   0.0555556  -0.4986702   0.0555556), wk =   0.0054870
        k(   22) = (   0.0555556  -0.4986702   0.1666667), wk =   0.0109739
        k(   23) = (   0.0555556  -0.4986702   0.2777778), wk =   0.0109739
        k(   24) = (   0.0555556  -0.4986702   0.3888889), wk =   0.0109739
        k(   25) = (   0.0555556  -0.4986702  -0.5000000), wk =   0.0054870
        k(   26) = (   0.1666667   0.0554078   0.1666667), wk =   0.0109739
        k(   27) = (   0.1666667   0.0554078   0.2777778), wk =   0.0219479
        k(   28) = (   0.1666667   0.0554078   0.3888889), wk =   0.0219479
        k(   29) = (   0.1666667   0.0554078  -0.5000000), wk =   0.0109739
        k(   30) = (   0.1666667   0.1662234   0.1666667), wk =   0.0109739
        k(   31) = (   0.1666667   0.1662234   0.2777778), wk =   0.0219479
        k(   32) = (   0.1666667   0.1662234   0.3888889), wk =   0.0219479
        k(   33) = (   0.1666667   0.1662234  -0.5000000), wk =   0.0109739
        k(   34) = (   0.1666667   0.2770390   0.1666667), wk =   0.0109739
        k(   35) = (   0.1666667   0.2770390   0.2777778), wk =   0.0219479
        k(   36) = (   0.1666667   0.2770390   0.3888889), wk =   0.0219479
        k(   37) = (   0.1666667   0.2770390  -0.5000000), wk =   0.0109739
        k(   38) = (   0.1666667   0.3878546   0.1666667), wk =   0.0109739
        k(   39) = (   0.1666667   0.3878546   0.2777778), wk =   0.0219479
        k(   40) = (   0.1666667   0.3878546   0.3888889), wk =   0.0219479
        k(   41) = (   0.1666667   0.3878546  -0.5000000), wk =   0.0109739
        k(   42) = (   0.1666667  -0.4986702   0.1666667), wk =   0.0054870
        k(   43) = (   0.1666667  -0.4986702   0.2777778), wk =   0.0109739
        k(   44) = (   0.1666667  -0.4986702   0.3888889), wk =   0.0109739
        k(   45) = (   0.1666667  -0.4986702  -0.5000000), wk =   0.0054870
        k(   46) = (   0.2777778   0.0554078   0.2777778), wk =   0.0109739
        k(   47) = (   0.2777778   0.0554078   0.3888889), wk =   0.0219479
        k(   48) = (   0.2777778   0.0554078  -0.5000000), wk =   0.0109739
        k(   49) = (   0.2777778   0.1662234   0.2777778), wk =   0.0109739
        k(   50) = (   0.2777778   0.1662234   0.3888889), wk =   0.0219479
        k(   51) = (   0.2777778   0.1662234  -0.5000000), wk =   0.0109739
        k(   52) = (   0.2777778   0.2770390   0.2777778), wk =   0.0109739
        k(   53) = (   0.2777778   0.2770390   0.3888889), wk =   0.0219479
        k(   54) = (   0.2777778   0.2770390  -0.5000000), wk =   0.0109739
        k(   55) = (   0.2777778   0.3878546   0.2777778), wk =   0.0109739
        k(   56) = (   0.2777778   0.3878546   0.3888889), wk =   0.0219479
        k(   57) = (   0.2777778   0.3878546  -0.5000000), wk =   0.0109739
        k(   58) = (   0.2777778  -0.4986702   0.2777778), wk =   0.0054870
        k(   59) = (   0.2777778  -0.4986702   0.3888889), wk =   0.0109739
        k(   60) = (   0.2777778  -0.4986702  -0.5000000), wk =   0.0054870
        k(   61) = (   0.3888889   0.0554078   0.3888889), wk =   0.0109739
        k(   62) = (   0.3888889   0.0554078  -0.5000000), wk =   0.0109739
        k(   63) = (   0.3888889   0.1662234   0.3888889), wk =   0.0109739
        k(   64) = (   0.3888889   0.1662234  -0.5000000), wk =   0.0109739
        k(   65) = (   0.3888889   0.2770390   0.3888889), wk =   0.0109739
        k(   66) = (   0.3888889   0.2770390  -0.5000000), wk =   0.0109739
        k(   67) = (   0.3888889   0.3878546   0.3888889), wk =   0.0109739
        k(   68) = (   0.3888889   0.3878546  -0.5000000), wk =   0.0109739
        k(   69) = (   0.3888889  -0.4986702   0.3888889), wk =   0.0054870
        k(   70) = (   0.3888889  -0.4986702  -0.5000000), wk =   0.0054870
        k(   71) = (  -0.5000000   0.0554078  -0.5000000), wk =   0.0027435
        k(   72) = (  -0.5000000   0.1662234  -0.5000000), wk =   0.0027435
        k(   73) = (  -0.5000000   0.2770390  -0.5000000), wk =   0.0027435
        k(   74) = (  -0.5000000   0.3878546  -0.5000000), wk =   0.0027435
        k(   75) = (  -0.5000000  -0.4986702  -0.5000000), wk =   0.0013717

     Dense  grid:   179407 G-vectors     FFT dimensions: (  72,  72,  72)

     Smooth grid:    96409 G-vectors     FFT dimensions: (  60,  60,  60)

     Estimated max dynamical RAM per process >     145.28 MB

     Estimated total dynamical RAM >       5.67 GB
     Generating pointlists ...
     new r_m :   0.1788 (alat units)  1.8939 (a.u.) for type    1
     new r_m :   0.1788 (alat units)  1.8939 (a.u.) for type    2

     Check: negative/imaginary core charge=   -0.000006    0.000000

     Initial potential from superposition of free atoms

     starting charge  255.99300, renormalised to  256.00000
     Starting wfcs are  160 randomized atomic wfcs
     Checking if some PAW data can be deallocated... 

     total cpu time spent up to now is       14.8 secs

     Self-consistent Calculation

     iteration #  1     ecut=    71.00 Ry     beta= 0.10
     Davidson diagonalization with overlap
     ethr =  1.00E-02,  avg # of iterations =  3.3

     Threshold (ethr) on eigenvalues was too large:
     Diagonalizing with lowered threshold

     Davidson diagonalization with overlap
     ethr =  2.21E-04,  avg # of iterations =  3.5

     total cpu time spent up to now is      128.8 secs

     total energy              =   -5268.05144414 Ry
     Harris-Foulkes estimate   =   -5268.13528307 Ry
     estimated scf accuracy    <       0.64921533 Ry

     total magnetization       =    28.19 Bohr mag/cell
     absolute magnetization    =    28.32 Bohr mag/cell

     iteration #  2     ecut=    71.00 Ry     beta= 0.10
     Davidson diagonalization with overlap
     ethr =  2.54E-04,  avg # of iterations =  1.0

     total cpu time spent up to now is      161.9 secs

     total energy              =   -5267.99705358 Ry
     Harris-Foulkes estimate   =   -5268.06482711 Ry
     estimated scf accuracy    <       0.38697989 Ry

     total magnetization       =    28.79 Bohr mag/cell
     absolute magnetization    =    28.94 Bohr mag/cell

     iteration #  3     ecut=    71.00 Ry     beta= 0.10
     Davidson diagonalization with overlap
     ethr =  1.51E-04,  avg # of iterations =  2.8

     total cpu time spent up to now is      211.8 secs

     total energy              =   -5268.02702723 Ry
     Harris-Foulkes estimate   =   -5268.04810775 Ry
     estimated scf accuracy    <       0.57161105 Ry

     total magnetization       =    29.66 Bohr mag/cell
     absolute magnetization    =    29.96 Bohr mag/cell

     iteration #  4     ecut=    71.00 Ry     beta= 0.10
     Davidson diagonalization with overlap
     ethr =  1.51E-04,  avg # of iterations =  1.1

     total cpu time spent up to now is      245.6 secs

     total energy              =   -5268.05176448 Ry
     Harris-Foulkes estimate   =   -5268.04910197 Ry
     estimated scf accuracy    <       0.12935260 Ry

     total magnetization       =    30.26 Bohr mag/cell
     absolute magnetization    =    30.60 Bohr mag/cell

     iteration #  5     ecut=    71.00 Ry     beta= 0.10
     Davidson diagonalization with overlap
     ethr =  5.05E-05,  avg # of iterations =  1.1

     total cpu time spent up to now is      278.8 secs

     total energy              =   -5268.10804959 Ry
     Harris-Foulkes estimate   =   -5268.05381587 Ry
     estimated scf accuracy    <       0.10643647 Ry

     total magnetization       =    30.32 Bohr mag/cell
     absolute magnetization    =    30.69 Bohr mag/cell

     iteration #  6     ecut=    71.00 Ry     beta= 0.10
     Davidson diagonalization with overlap
     ethr =  4.16E-05,  avg # of iterations =  3.4

     negative rho (up, down):  0.000E+00 4.359E-04

     total cpu time spent up to now is      343.4 secs

     total energy              =   -5268.16117249 Ry
     Harris-Foulkes estimate   =   -5268.15356484 Ry
     estimated scf accuracy    <       0.17148301 Ry

     total magnetization       =    31.04 Bohr mag/cell
     absolute magnetization    =    31.81 Bohr mag/cell

     iteration #  7     ecut=    71.00 Ry     beta= 0.10
     Davidson diagonalization with overlap
     ethr =  4.16E-05,  avg # of iterations =  2.6

     negative rho (up, down):  0.000E+00 1.338E-03

     total cpu time spent up to now is      393.3 secs

     total energy              =   -5268.17584961 Ry
     Harris-Foulkes estimate   =   -5268.17612723 Ry
     estimated scf accuracy    <       0.05543746 Ry

     total magnetization       =    31.82 Bohr mag/cell
     absolute magnetization    =    32.95 Bohr mag/cell

     iteration #  8     ecut=    71.00 Ry     beta= 0.10
     Davidson diagonalization with overlap
     ethr =  2.17E-05,  avg # of iterations =  2.3

     negative rho (up, down):  0.000E+00 1.722E-03

     total cpu time spent up to now is      439.9 secs

     total energy              =   -5268.18451175 Ry
     Harris-Foulkes estimate   =   -5268.18170112 Ry
     estimated scf accuracy    <       0.02717712 Ry

     total magnetization       =    32.20 Bohr mag/cell
     absolute magnetization    =    33.54 Bohr mag/cell

     iteration #  9     ecut=    71.00 Ry     beta= 0.10
     Davidson diagonalization with overlap
     ethr =  1.06E-05,  avg # of iterations =  1.1

     negative rho (up, down):  0.000E+00 2.400E-03

     total cpu time spent up to now is      474.2 secs

     total energy              =   -5268.18817327 Ry
     Harris-Foulkes estimate   =   -5268.18549444 Ry
     estimated scf accuracy    <       0.01023278 Ry

     total magnetization       =    32.36 Bohr mag/cell
     absolute magnetization    =    33.75 Bohr mag/cell

     iteration # 10     ecut=    71.00 Ry     beta= 0.10
     Davidson diagonalization with overlap
     ethr =  4.00E-06,  avg # of iterations =  3.2

     negative rho (up, down):  0.000E+00 2.575E-03

     total cpu time spent up to now is      527.2 secs

     total energy              =   -5268.18954396 Ry
     Harris-Foulkes estimate   =   -5268.18954358 Ry
     estimated scf accuracy    <       0.00209840 Ry

     total magnetization       =    32.64 Bohr mag/cell
     absolute magnetization    =    34.24 Bohr mag/cell

     iteration # 11     ecut=    71.00 Ry     beta= 0.10
     Davidson diagonalization with overlap
     ethr =  8.20E-07,  avg # of iterations =  2.6

     negative rho (up, down):  0.000E+00 2.411E-03

     total cpu time spent up to now is      573.8 secs

     total energy              =   -5268.18981411 Ry
     Harris-Foulkes estimate   =   -5268.18971336 Ry
     estimated scf accuracy    <       0.00071985 Ry

     total magnetization       =    32.72 Bohr mag/cell
     absolute magnetization    =    34.39 Bohr mag/cell

     iteration # 12     ecut=    71.00 Ry     beta= 0.10
     Davidson diagonalization with overlap
     ethr =  2.81E-07,  avg # of iterations =  2.2

     negative rho (up, down):  0.000E+00 2.387E-03

     total cpu time spent up to now is      617.2 secs

     total energy              =   -5268.19009092 Ry
     Harris-Foulkes estimate   =   -5268.18988004 Ry
     estimated scf accuracy    <       0.00068020 Ry

     total magnetization       =    32.74 Bohr mag/cell
     absolute magnetization    =    34.42 Bohr mag/cell

     iteration # 13     ecut=    71.00 Ry     beta= 0.10
     Davidson diagonalization with overlap
     ethr =  2.66E-07,  avg # of iterations =  2.0

     negative rho (up, down):  0.000E+00 2.476E-03

     total cpu time spent up to now is      661.3 secs

     total energy              =   -5268.19021297 Ry
     Harris-Foulkes estimate   =   -5268.19015108 Ry
     estimated scf accuracy    <       0.00043573 Ry

     total magnetization       =    32.80 Bohr mag/cell
     absolute magnetization    =    34.50 Bohr mag/cell

     iteration # 14     ecut=    71.00 Ry     beta= 0.10
     Davidson diagonalization with overlap
     ethr =  1.70E-07,  avg # of iterations =  3.0

     negative rho (up, down):  0.000E+00 2.403E-03

     total cpu time spent up to now is      713.9 secs

     total energy              =   -5268.19030627 Ry
     Harris-Foulkes estimate   =   -5268.19029537 Ry
     estimated scf accuracy    <       0.00010965 Ry

     total magnetization       =    32.88 Bohr mag/cell
     absolute magnetization    =    34.64 Bohr mag/cell

     iteration # 15     ecut=    71.00 Ry     beta= 0.10
     Davidson diagonalization with overlap
     ethr =  4.28E-08,  avg # of iterations =  2.8

     negative rho (up, down):  0.000E+00 2.458E-03

     total cpu time spent up to now is      764.7 secs

     total energy              =   -5268.19032434 Ry
     Harris-Foulkes estimate   =   -5268.19032462 Ry
     estimated scf accuracy    <       0.00007305 Ry

     total magnetization       =    32.88 Bohr mag/cell
     absolute magnetization    =    34.63 Bohr mag/cell

     iteration # 16     ecut=    71.00 Ry     beta= 0.10
     Davidson diagonalization with overlap
     ethr =  2.85E-08,  avg # of iterations =  3.2

     negative rho (up, down):  0.000E+00 2.437E-03

     total cpu time spent up to now is      821.1 secs

     total energy              =   -5268.19035811 Ry
     Harris-Foulkes estimate   =   -5268.19035325 Ry
     estimated scf accuracy    <       0.00001592 Ry

     total magnetization       =    32.93 Bohr mag/cell
     absolute magnetization    =    34.71 Bohr mag/cell

     iteration # 17     ecut=    71.00 Ry     beta= 0.10
     Davidson diagonalization with overlap
     ethr =  6.22E-09,  avg # of iterations =  2.7

     negative rho (up, down):  0.000E+00 2.449E-03

     total cpu time spent up to now is      868.5 secs

     total energy              =   -5268.19036076 Ry
     Harris-Foulkes estimate   =   -5268.19036032 Ry
     estimated scf accuracy    <       0.00000918 Ry

     total magnetization       =    32.93 Bohr mag/cell
     absolute magnetization    =    34.71 Bohr mag/cell

     iteration # 18     ecut=    71.00 Ry     beta= 0.10
     Davidson diagonalization with overlap
     ethr =  3.59E-09,  avg # of iterations =  1.5

     negative rho (up, down):  0.000E+00 2.453E-03

     total cpu time spent up to now is      905.0 secs

     total energy              =   -5268.19036268 Ry
     Harris-Foulkes estimate   =   -5268.19036143 Ry
     estimated scf accuracy    <       0.00000669 Ry

     total magnetization       =    32.94 Bohr mag/cell
     absolute magnetization    =    34.71 Bohr mag/cell

     iteration # 19     ecut=    71.00 Ry     beta= 0.10
     Davidson diagonalization with overlap
     ethr =  2.62E-09,  avg # of iterations =  2.3

     negative rho (up, down):  0.000E+00 2.454E-03

     total cpu time spent up to now is      948.5 secs

     total energy              =   -5268.19036406 Ry
     Harris-Foulkes estimate   =   -5268.19036362 Ry
     estimated scf accuracy    <       0.00000266 Ry

     total magnetization       =    32.94 Bohr mag/cell
     absolute magnetization    =    34.72 Bohr mag/cell

     iteration # 20     ecut=    71.00 Ry     beta= 0.10
     Davidson diagonalization with overlap
     ethr =  1.04E-09,  avg # of iterations =  1.7

     negative rho (up, down):  0.000E+00 2.459E-03

     total cpu time spent up to now is      986.3 secs

     total energy              =   -5268.19036483 Ry
     Harris-Foulkes estimate   =   -5268.19036428 Ry
     estimated scf accuracy    <       0.00000177 Ry

     total magnetization       =    32.94 Bohr mag/cell
     absolute magnetization    =    34.72 Bohr mag/cell

     iteration # 21     ecut=    71.00 Ry     beta= 0.10
     Davidson diagonalization with overlap
     ethr =  6.93E-10,  avg # of iterations =  1.0

     negative rho (up, down):  0.000E+00 2.477E-03
 
     Magnetic moment per site:
     atom:    1    charge:   14.3687    magn:    2.1022    constr:    0.0000
     atom:    2    charge:   14.3685    magn:    2.1052    constr:    0.0000
     atom:    3    charge:   14.3686    magn:    2.1019    constr:    0.0000
     atom:    4    charge:   14.3685    magn:    2.1052    constr:    0.0000
     atom:    5    charge:   14.3686    magn:    2.1042    constr:    0.0000
     atom:    6    charge:   14.3685    magn:    2.1052    constr:    0.0000
     atom:    7    charge:   14.3686    magn:    2.1036    constr:    0.0000
     atom:    8    charge:   14.3685    magn:    2.1052    constr:    0.0000
     atom:    9    charge:   14.3686    magn:    2.1019    constr:    0.0000
     atom:   10    charge:   14.3685    magn:    2.1052    constr:    0.0000
     atom:   11    charge:   14.3687    magn:    2.1015    constr:    0.0000
     atom:   12    charge:   14.3685    magn:    2.1052    constr:    0.0000
     atom:   13    charge:   14.3686    magn:    2.1036    constr:    0.0000
     atom:   14    charge:   14.3685    magn:    2.1052    constr:    0.0000
     atom:   15    charge:   14.3686    magn:    2.1031    constr:    0.0000
     atom:   16    charge:   14.3685    magn:    2.1052    constr:    0.0000

     total cpu time spent up to now is     1020.1 secs

     End of self-consistent calculation

     Number of k-points >= 100: set verbosity='high' to print the bands.

     the Fermi energy is    18.9105 ev

!    total energy              =   -5268.19036667 Ry
     Harris-Foulkes estimate   =   -5268.19036493 Ry
     estimated scf accuracy    <       0.00000089 Ry

     total all-electron energy =    -40728.934896 Ry

     The total energy is the sum of the following terms:

     one-electron contribution =   -1711.38327409 Ry
     hartree contribution      =    1023.70212329 Ry
     xc contribution           =    -444.23151908 Ry
     ewald contribution        =   -2811.73252466 Ry
     one-center paw contrib.   =   -1324.67054843 Ry
     smearing contrib. (-TS)   =       0.12537630 Ry

     total magnetization       =    32.95 Bohr mag/cell
     absolute magnetization    =    34.72 Bohr mag/cell

     convergence has been achieved in  21 iterations

     negative rho (up, down):  0.000E+00 2.477E-03

     Forces acting on atoms (cartesian axes, Ry/au):

     atom    1 type  1   force =     0.00000000    0.00000000    0.00000000
     atom    2 type  2   force =    -0.00004877    0.00038076   -0.00004877
     atom    3 type  1   force =     0.00000000    0.00000000    0.00000000
     atom    4 type  2   force =    -0.00004877    0.00038076    0.00004877
     atom    5 type  1   force =     0.00000000    0.00000000   -0.00000000
     atom    6 type  2   force =    -0.00004877   -0.00038076   -0.00004877
     atom    7 type  1   force =     0.00000000    0.00000000    0.00000000
     atom    8 type  2   force =    -0.00004877   -0.00038076    0.00004877
     atom    9 type  1   force =     0.00000000    0.00000000    0.00000000
     atom   10 type  2   force =     0.00004877    0.00038076   -0.00004877
     atom   11 type  1   force =     0.00000000    0.00000000    0.00000000
     atom   12 type  2   force =     0.00004877    0.00038076    0.00004877
     atom   13 type  1   force =     0.00000000    0.00000000    0.00000000
     atom   14 type  2   force =     0.00004877   -0.00038076   -0.00004877
     atom   15 type  1   force =     0.00000000    0.00000000    0.00000000
     atom   16 type  2   force =     0.00004877   -0.00038076    0.00004877

     Total force =     0.001094     Total SCF correction =     0.004010
     SCF correction compared to forces is large: reduce conv_thr to get better values


     Computing stress (Cartesian axis) and pressure


     negative rho (up, down):  0.000E+00 2.477E-03
          total   stress  (Ry/bohr**3)                   (kbar)     P=   -8.37
  -0.00004917   0.00000000   0.00000000         -7.23      0.00      0.00
   0.00000000  -0.00007240   0.00000000          0.00    -10.65      0.00
   0.00000000   0.00000000  -0.00004917          0.00      0.00     -7.23


     Writing output data file FXvFVTdFlVkKDSow.save/
 
     init_run     :     12.92s CPU     13.54s WALL (       1 calls)
     electrons    :    974.88s CPU   1005.33s WALL (       1 calls)
     forces       :      4.50s CPU      4.93s WALL (       1 calls)
     stress       :     12.36s CPU     12.49s WALL (       1 calls)

     Called by init_run:
     wfcinit      :     12.43s CPU     13.00s WALL (       1 calls)
     potinit      :      0.20s CPU      0.22s WALL (       1 calls)
     hinit0       :      0.18s CPU      0.20s WALL (       1 calls)

     Called by electrons:
     c_bands      :    878.71s CPU    903.75s WALL (      22 calls)
     sum_band     :     91.83s CPU     96.67s WALL (      22 calls)
     v_of_rho     :      0.33s CPU      0.34s WALL (      22 calls)
     newd         :      0.68s CPU      0.87s WALL (      22 calls)
     PAW_pot      :      3.29s CPU      3.57s WALL (      22 calls)
     mix_rho      :      0.14s CPU      0.15s WALL (      22 calls)

     Called by c_bands:
     init_us_2    :      4.70s CPU      4.78s WALL (    7050 calls)
     cegterg      :    854.97s CPU    879.68s WALL (    3300 calls)

     Called by sum_band:
     sum_band:bec :      1.21s CPU      1.22s WALL (    3300 calls)
     addusdens    :      1.25s CPU      1.43s WALL (      22 calls)

     Called by *egterg:
     h_psi        :    360.61s CPU    375.69s WALL (   11034 calls)
     s_psi        :     19.38s CPU     19.50s WALL (   11034 calls)
     g_psi        :      0.78s CPU      0.79s WALL (    7584 calls)
     cdiaghg      :    390.92s CPU    392.40s WALL (   10734 calls)

     Called by h_psi:
     h_psi:pot    :    358.34s CPU    373.39s WALL (   11034 calls)
     h_psi:calbec :     29.66s CPU     34.44s WALL (   11034 calls)
     vloc_psi     :    309.03s CPU    319.15s WALL (   11034 calls)
     add_vuspsi   :     19.56s CPU     19.74s WALL (   11034 calls)

     General routines
     calbec       :     45.69s CPU     53.16s WALL (   15084 calls)
     fft          :      0.35s CPU      0.36s WALL (     592 calls)
     ffts         :      0.04s CPU      0.21s WALL (      88 calls)
     fftw         :    360.39s CPU    372.07s WALL ( 2754938 calls)
     interpolate  :      0.06s CPU      0.14s WALL (      44 calls)
 
     Parallel routines
     fft_scatt_xy :     23.55s CPU     24.30s WALL ( 2755618 calls)
     fft_scatt_yz :    242.30s CPU    250.42s WALL ( 2755618 calls)
 
     PWSCF        : 16m54.33s CPU    17m50.98s WALL

 
   This run was terminated on:   6:40:35   2Nov2020            

=------------------------------------------------------------------------------=
   JOB DONE.
=------------------------------------------------------------------------------=
