--------------------------------------------------------------------------
WARNING: No preset parameters were found for the device that Open MPI
detected:

  Local host:            bear-pg0206u26a
  Device name:           mlx5_0
  Device vendor ID:      0x02c9
  Device vendor part ID: 4123

Default device parameters will be used, which may result in lower
performance.  You can edit any of the files specified by the
btl_openib_device_param_files MCA parameter to set values for your
device.

NOTE: You can turn off this warning by setting the MCA parameter
      btl_openib_warn_no_device_params_found to 0.
--------------------------------------------------------------------------
--------------------------------------------------------------------------
WARNING: There was an error initializing an OpenFabrics device.

  Local host:   bear-pg0206u26a
  Local device: mlx5_0
--------------------------------------------------------------------------

     Program PWSCF v.6.3 starts on  2Nov2020 at  8:14:10 

     This program is part of the open-source Quantum ESPRESSO suite
     for quantum simulation of materials; please cite
         "P. Giannozzi et al., J. Phys.:Condens. Matter 21 395502 (2009);
         "P. Giannozzi et al., J. Phys.:Condens. Matter 29 465901 (2017);
          URL http://www.quantum-espresso.org", 
     in publications or presentations arising from this work. More details at
     http://www.quantum-espresso.org/quote

     Parallel version (MPI & OpenMP), running on      40 processor cores
     Number of MPI processes:                40
     Threads/MPI process:                     1

     MPI processes distributed on     1 nodes
     R & G space division:  proc/nbgrp/npool/nimage =      40
     Reading input from wd/ec/ec_3_007.in
Warning: card &IONS ignored
Warning: card ION_DYNAMICS = 'BFGS', ignored
Warning: card / ignored
Warning: card &CELL ignored
Warning: card CELL_DYNAMICS = 'BFGS', ignored
Warning: card CELL_FACTOR = 2.0, ignored
Warning: card PRESS = 0.0, ignored
Warning: card / ignored

     Current dimensions of program PWSCF are:
     Max number of different atomic species (ntypx) = 10
     Max number of k-points (npk) =  40000
     Max angular momentum in pseudopotentials (lmaxx) =  3
               file Fe.pbe-spn-kjpaw_psl.1.0.0.UPF: wavefunction(s)  3P 3D renormalized
               file Fe.pbe-spn-kjpaw_psl.1.0.0.UPF: wavefunction(s)  3P 3D renormalized

     Subspace diagonalization in iterative solution of the eigenvalue problem:
     a serial algorithm will be used

     Found symmetry operation: I + (  0.0000  0.0000 -0.5000)
     This is a supercell, fractional translations are disabled
 
     Parallelization info
     --------------------
     sticks:   dense  smooth     PW     G-vecs:    dense   smooth      PW
     Min          95      63     17                 4489     2411     357
     Max          96      64     18                 4494     2416     362
     Sum        3833    2537    717               179655    96553   14371
 


     bravais-lattice index     =            0
     lattice parameter (alat)  =      10.5935  a.u.
     unit-cell volume          =    1193.5882 (a.u.)^3
     number of atoms/cell      =           16
     number of atomic types    =            2
     number of electrons       =       256.00
     number of Kohn-Sham states=          154
     kinetic-energy cutoff     =      71.0000  Ry
     charge density cutoff     =     430.0000  Ry
     convergence threshold     =      1.0E-06
     mixing beta               =       0.1000
     number of iterations used =           10  plain     mixing
     Exchange-correlation      = SLA PW PBX PBC ( 1  4  3  4 0 0)

     celldm(1)=  10.593520  celldm(2)=   0.000000  celldm(3)=   0.000000
     celldm(4)=   0.000000  celldm(5)=   0.000000  celldm(6)=   0.000000

     crystal axes: (cart. coord. in units of alat)
               a(1) = (   1.000000   0.000000   0.000000 )  
               a(2) = (   0.000000   1.000000   0.000000 )  
               a(3) = (   0.000000   0.000000   1.004000 )  

     reciprocal axes: (cart. coord. in units 2 pi/alat)
               b(1) = (  1.000000  0.000000  0.000000 )  
               b(2) = (  0.000000  1.000000  0.000000 )  
               b(3) = (  0.000000  0.000000  0.996016 )  


     PseudoPot. # 1 for Fe read from file:
     /rds/homes/b/bxp912/pp/Fe.pbe-spn-kjpaw_psl.1.0.0.UPF
     MD5 check sum: 42f43b795421b414b0dc916aa790dbcb
     Pseudo is Projector augmented-wave + core cor, Zval = 16.0
     Generated using "atomic" code by A. Dal Corso v.6.3
     Shape of augmentation charge: PSQ
     Using radial grid of 1191 points,  6 beta functions with: 
                l(1) =   0
                l(2) =   0
                l(3) =   1
                l(4) =   1
                l(5) =   2
                l(6) =   2
     Q(r) pseudized with 0 coefficients 


     PseudoPot. # 2 for Fe read from file:
     /rds/homes/b/bxp912/pp/Fe.pbe-spn-kjpaw_psl.1.0.0.UPF
     MD5 check sum: 42f43b795421b414b0dc916aa790dbcb
     Pseudo is Projector augmented-wave + core cor, Zval = 16.0
     Generated using "atomic" code by A. Dal Corso v.6.3
     Shape of augmentation charge: PSQ
     Using radial grid of 1191 points,  6 beta functions with: 
                l(1) =   0
                l(2) =   0
                l(3) =   1
                l(4) =   1
                l(5) =   2
                l(6) =   2
     Q(r) pseudized with 0 coefficients 


     atomic species   valence    mass     pseudopotential
        Fe1           16.00    55.84500     Fe( 1.00)
        Fe2           16.00    55.84500     Fe( 1.00)

     Starting magnetic structure 
     atomic species   magnetization
        Fe1          0.100
        Fe2          0.100

     16 Sym. Ops., with inversion, found



   Cartesian axes

     site n.     atom                  positions (alat units)
         1           Fe1 tau(   1) = (   0.0000000   0.0000000   0.0000000  )
         2           Fe2 tau(   2) = (   0.2500004   0.2500004   0.2510004  )
         3           Fe1 tau(   3) = (   0.0000000   0.0000000   0.5020000  )
         4           Fe2 tau(   4) = (   0.2500004   0.2500004   0.7529996  )
         5           Fe1 tau(   5) = (   0.0000000   0.5000000   0.0000000  )
         6           Fe2 tau(   6) = (   0.2500004   0.7499996   0.2510004  )
         7           Fe1 tau(   7) = (   0.0000000   0.5000000   0.5020000  )
         8           Fe2 tau(   8) = (   0.2500004   0.7499996   0.7529996  )
         9           Fe1 tau(   9) = (   0.5000000   0.0000000   0.0000000  )
        10           Fe2 tau(  10) = (   0.7499996   0.2500004   0.2510004  )
        11           Fe1 tau(  11) = (   0.5000000   0.0000000   0.5020000  )
        12           Fe2 tau(  12) = (   0.7499996   0.2500004   0.7529996  )
        13           Fe1 tau(  13) = (   0.5000000   0.5000000   0.0000000  )
        14           Fe2 tau(  14) = (   0.7499996   0.7499996   0.2510004  )
        15           Fe1 tau(  15) = (   0.5000000   0.5000000   0.5020000  )
        16           Fe2 tau(  16) = (   0.7499996   0.7499996   0.7529996  )

     number of k points=    75  Marzari-Vanderbilt smearing, width (Ry)=  0.0400
                       cart. coord. in units 2pi/alat
        k(    1) = (   0.0555556   0.0555556   0.0553342), wk =   0.0109739
        k(    2) = (   0.0555556   0.0555556   0.1660027), wk =   0.0109739
        k(    3) = (   0.0555556   0.0555556   0.2766711), wk =   0.0109739
        k(    4) = (   0.0555556   0.0555556   0.3873395), wk =   0.0109739
        k(    5) = (   0.0555556   0.0555556  -0.4980080), wk =   0.0054870
        k(    6) = (   0.0555556   0.1666667   0.0553342), wk =   0.0219479
        k(    7) = (   0.0555556   0.1666667   0.1660027), wk =   0.0219479
        k(    8) = (   0.0555556   0.1666667   0.2766711), wk =   0.0219479
        k(    9) = (   0.0555556   0.1666667   0.3873395), wk =   0.0219479
        k(   10) = (   0.0555556   0.1666667  -0.4980080), wk =   0.0109739
        k(   11) = (   0.0555556   0.2777778   0.0553342), wk =   0.0219479
        k(   12) = (   0.0555556   0.2777778   0.1660027), wk =   0.0219479
        k(   13) = (   0.0555556   0.2777778   0.2766711), wk =   0.0219479
        k(   14) = (   0.0555556   0.2777778   0.3873395), wk =   0.0219479
        k(   15) = (   0.0555556   0.2777778  -0.4980080), wk =   0.0109739
        k(   16) = (   0.0555556   0.3888889   0.0553342), wk =   0.0219479
        k(   17) = (   0.0555556   0.3888889   0.1660027), wk =   0.0219479
        k(   18) = (   0.0555556   0.3888889   0.2766711), wk =   0.0219479
        k(   19) = (   0.0555556   0.3888889   0.3873395), wk =   0.0219479
        k(   20) = (   0.0555556   0.3888889  -0.4980080), wk =   0.0109739
        k(   21) = (   0.0555556  -0.5000000   0.0553342), wk =   0.0109739
        k(   22) = (   0.0555556  -0.5000000   0.1660027), wk =   0.0109739
        k(   23) = (   0.0555556  -0.5000000   0.2766711), wk =   0.0109739
        k(   24) = (   0.0555556  -0.5000000   0.3873395), wk =   0.0109739
        k(   25) = (   0.0555556  -0.5000000  -0.4980080), wk =   0.0054870
        k(   26) = (   0.1666667   0.1666667   0.0553342), wk =   0.0109739
        k(   27) = (   0.1666667   0.1666667   0.1660027), wk =   0.0109739
        k(   28) = (   0.1666667   0.1666667   0.2766711), wk =   0.0109739
        k(   29) = (   0.1666667   0.1666667   0.3873395), wk =   0.0109739
        k(   30) = (   0.1666667   0.1666667  -0.4980080), wk =   0.0054870
        k(   31) = (   0.1666667   0.2777778   0.0553342), wk =   0.0219479
        k(   32) = (   0.1666667   0.2777778   0.1660027), wk =   0.0219479
        k(   33) = (   0.1666667   0.2777778   0.2766711), wk =   0.0219479
        k(   34) = (   0.1666667   0.2777778   0.3873395), wk =   0.0219479
        k(   35) = (   0.1666667   0.2777778  -0.4980080), wk =   0.0109739
        k(   36) = (   0.1666667   0.3888889   0.0553342), wk =   0.0219479
        k(   37) = (   0.1666667   0.3888889   0.1660027), wk =   0.0219479
        k(   38) = (   0.1666667   0.3888889   0.2766711), wk =   0.0219479
        k(   39) = (   0.1666667   0.3888889   0.3873395), wk =   0.0219479
        k(   40) = (   0.1666667   0.3888889  -0.4980080), wk =   0.0109739
        k(   41) = (   0.1666667  -0.5000000   0.0553342), wk =   0.0109739
        k(   42) = (   0.1666667  -0.5000000   0.1660027), wk =   0.0109739
        k(   43) = (   0.1666667  -0.5000000   0.2766711), wk =   0.0109739
        k(   44) = (   0.1666667  -0.5000000   0.3873395), wk =   0.0109739
        k(   45) = (   0.1666667  -0.5000000  -0.4980080), wk =   0.0054870
        k(   46) = (   0.2777778   0.2777778   0.0553342), wk =   0.0109739
        k(   47) = (   0.2777778   0.2777778   0.1660027), wk =   0.0109739
        k(   48) = (   0.2777778   0.2777778   0.2766711), wk =   0.0109739
        k(   49) = (   0.2777778   0.2777778   0.3873395), wk =   0.0109739
        k(   50) = (   0.2777778   0.2777778  -0.4980080), wk =   0.0054870
        k(   51) = (   0.2777778   0.3888889   0.0553342), wk =   0.0219479
        k(   52) = (   0.2777778   0.3888889   0.1660027), wk =   0.0219479
        k(   53) = (   0.2777778   0.3888889   0.2766711), wk =   0.0219479
        k(   54) = (   0.2777778   0.3888889   0.3873395), wk =   0.0219479
        k(   55) = (   0.2777778   0.3888889  -0.4980080), wk =   0.0109739
        k(   56) = (   0.2777778  -0.5000000   0.0553342), wk =   0.0109739
        k(   57) = (   0.2777778  -0.5000000   0.1660027), wk =   0.0109739
        k(   58) = (   0.2777778  -0.5000000   0.2766711), wk =   0.0109739
        k(   59) = (   0.2777778  -0.5000000   0.3873395), wk =   0.0109739
        k(   60) = (   0.2777778  -0.5000000  -0.4980080), wk =   0.0054870
        k(   61) = (   0.3888889   0.3888889   0.0553342), wk =   0.0109739
        k(   62) = (   0.3888889   0.3888889   0.1660027), wk =   0.0109739
        k(   63) = (   0.3888889   0.3888889   0.2766711), wk =   0.0109739
        k(   64) = (   0.3888889   0.3888889   0.3873395), wk =   0.0109739
        k(   65) = (   0.3888889   0.3888889  -0.4980080), wk =   0.0054870
        k(   66) = (   0.3888889  -0.5000000   0.0553342), wk =   0.0109739
        k(   67) = (   0.3888889  -0.5000000   0.1660027), wk =   0.0109739
        k(   68) = (   0.3888889  -0.5000000   0.2766711), wk =   0.0109739
        k(   69) = (   0.3888889  -0.5000000   0.3873395), wk =   0.0109739
        k(   70) = (   0.3888889  -0.5000000  -0.4980080), wk =   0.0054870
        k(   71) = (  -0.5000000  -0.5000000   0.0553342), wk =   0.0027435
        k(   72) = (  -0.5000000  -0.5000000   0.1660027), wk =   0.0027435
        k(   73) = (  -0.5000000  -0.5000000   0.2766711), wk =   0.0027435
        k(   74) = (  -0.5000000  -0.5000000   0.3873395), wk =   0.0027435
        k(   75) = (  -0.5000000  -0.5000000  -0.4980080), wk =   0.0013717

     Dense  grid:   179655 G-vectors     FFT dimensions: (  72,  72,  72)

     Smooth grid:    96553 G-vectors     FFT dimensions: (  60,  60,  60)

     Estimated max dynamical RAM per process >     145.28 MB

     Estimated total dynamical RAM >       5.68 GB
     Generating pointlists ...
     new r_m :   0.1789 (alat units)  1.8947 (a.u.) for type    1
     new r_m :   0.1789 (alat units)  1.8947 (a.u.) for type    2

     Check: negative/imaginary core charge=   -0.000006    0.000000

     Initial potential from superposition of free atoms

     starting charge  255.99300, renormalised to  256.00000
     Starting wfcs are  160 randomized atomic wfcs
     Checking if some PAW data can be deallocated... 

     total cpu time spent up to now is       15.1 secs

     Self-consistent Calculation

     iteration #  1     ecut=    71.00 Ry     beta= 0.10
     Davidson diagonalization with overlap
     ethr =  1.00E-02,  avg # of iterations =  3.3

     Threshold (ethr) on eigenvalues was too large:
     Diagonalizing with lowered threshold

     Davidson diagonalization with overlap
     ethr =  2.08E-04,  avg # of iterations =  3.6

     total cpu time spent up to now is      130.1 secs

     total energy              =   -5268.00787986 Ry
     Harris-Foulkes estimate   =   -5268.06879062 Ry
     estimated scf accuracy    <       0.61534938 Ry

     total magnetization       =    28.00 Bohr mag/cell
     absolute magnetization    =    28.11 Bohr mag/cell

     iteration #  2     ecut=    71.00 Ry     beta= 0.10
     Davidson diagonalization with overlap
     ethr =  2.40E-04,  avg # of iterations =  1.0

     total cpu time spent up to now is      163.4 secs

     total energy              =   -5267.97727264 Ry
     Harris-Foulkes estimate   =   -5268.02014422 Ry
     estimated scf accuracy    <       0.36034939 Ry

     total magnetization       =    28.66 Bohr mag/cell
     absolute magnetization    =    28.81 Bohr mag/cell

     iteration #  3     ecut=    71.00 Ry     beta= 0.10
     Davidson diagonalization with overlap
     ethr =  1.41E-04,  avg # of iterations =  3.0

     total cpu time spent up to now is      216.6 secs

     total energy              =   -5268.02735340 Ry
     Harris-Foulkes estimate   =   -5268.03173911 Ry
     estimated scf accuracy    <       0.41021875 Ry

     total magnetization       =    29.79 Bohr mag/cell
     absolute magnetization    =    30.09 Bohr mag/cell

     iteration #  4     ecut=    71.00 Ry     beta= 0.10
     Davidson diagonalization with overlap
     ethr =  1.41E-04,  avg # of iterations =  1.0

     total cpu time spent up to now is      249.7 secs

     total energy              =   -5268.04501239 Ry
     Harris-Foulkes estimate   =   -5268.04059699 Ry
     estimated scf accuracy    <       0.12242639 Ry

     total magnetization       =    30.20 Bohr mag/cell
     absolute magnetization    =    30.54 Bohr mag/cell

     iteration #  5     ecut=    71.00 Ry     beta= 0.10
     Davidson diagonalization with overlap
     ethr =  4.78E-05,  avg # of iterations =  1.1

     total cpu time spent up to now is      283.3 secs

     total energy              =   -5268.11445446 Ry
     Harris-Foulkes estimate   =   -5268.04673616 Ry
     estimated scf accuracy    <       0.10668743 Ry

     total magnetization       =    30.27 Bohr mag/cell
     absolute magnetization    =    30.63 Bohr mag/cell

     iteration #  6     ecut=    71.00 Ry     beta= 0.10
     Davidson diagonalization with overlap
     ethr =  4.17E-05,  avg # of iterations =  3.5

     negative rho (up, down):  0.000E+00 1.092E-03

     total cpu time spent up to now is      348.8 secs

     total energy              =   -5268.16278760 Ry
     Harris-Foulkes estimate   =   -5268.16264470 Ry
     estimated scf accuracy    <       0.20231297 Ry

     total magnetization       =    31.04 Bohr mag/cell
     absolute magnetization    =    31.81 Bohr mag/cell

     iteration #  7     ecut=    71.00 Ry     beta= 0.10
     Davidson diagonalization with overlap
     ethr =  4.17E-05,  avg # of iterations =  2.6

     negative rho (up, down):  0.000E+00 1.585E-03

     total cpu time spent up to now is      402.3 secs

     total energy              =   -5268.18234858 Ry
     Harris-Foulkes estimate   =   -5268.18434236 Ry
     estimated scf accuracy    <       0.04967823 Ry

     total magnetization       =    31.95 Bohr mag/cell
     absolute magnetization    =    33.19 Bohr mag/cell

     iteration #  8     ecut=    71.00 Ry     beta= 0.10
     Davidson diagonalization with overlap
     ethr =  1.94E-05,  avg # of iterations =  1.3

     negative rho (up, down):  0.000E+00 1.248E-03

     total cpu time spent up to now is      437.5 secs

     total energy              =   -5268.18055957 Ry
     Harris-Foulkes estimate   =   -5268.18452450 Ry
     estimated scf accuracy    <       0.02874529 Ry

     total magnetization       =    32.12 Bohr mag/cell
     absolute magnetization    =    33.40 Bohr mag/cell

     iteration #  9     ecut=    71.00 Ry     beta= 0.10
     Davidson diagonalization with overlap
     ethr =  1.12E-05,  avg # of iterations =  2.3

     negative rho (up, down):  0.000E+00 1.536E-03

     total cpu time spent up to now is      480.7 secs

     total energy              =   -5268.18442418 Ry
     Harris-Foulkes estimate   =   -5268.18185807 Ry
     estimated scf accuracy    <       0.01844826 Ry

     total magnetization       =    32.21 Bohr mag/cell
     absolute magnetization    =    33.53 Bohr mag/cell

     iteration # 10     ecut=    71.00 Ry     beta= 0.10
     Davidson diagonalization with overlap
     ethr =  7.21E-06,  avg # of iterations =  1.9

     negative rho (up, down):  0.000E+00 2.369E-03

     total cpu time spent up to now is      521.7 secs

     total energy              =   -5268.18850576 Ry
     Harris-Foulkes estimate   =   -5268.18549341 Ry
     estimated scf accuracy    <       0.00598925 Ry

     total magnetization       =    32.42 Bohr mag/cell
     absolute magnetization    =    33.84 Bohr mag/cell

     iteration # 11     ecut=    71.00 Ry     beta= 0.10
     Davidson diagonalization with overlap
     ethr =  2.34E-06,  avg # of iterations =  3.5

     negative rho (up, down):  0.000E+00 2.327E-03

     total cpu time spent up to now is      581.6 secs

     total energy              =   -5268.18991089 Ry
     Harris-Foulkes estimate   =   -5268.18985397 Ry
     estimated scf accuracy    <       0.00105626 Ry

     total magnetization       =    32.68 Bohr mag/cell
     absolute magnetization    =    34.32 Bohr mag/cell

     iteration # 12     ecut=    71.00 Ry     beta= 0.10
     Davidson diagonalization with overlap
     ethr =  4.13E-07,  avg # of iterations =  1.3

     negative rho (up, down):  0.000E+00 2.226E-03

     total cpu time spent up to now is      616.5 secs

     total energy              =   -5268.19021558 Ry
     Harris-Foulkes estimate   =   -5268.18993000 Ry
     estimated scf accuracy    <       0.00086854 Ry

     total magnetization       =    32.70 Bohr mag/cell
     absolute magnetization    =    34.34 Bohr mag/cell

     iteration # 13     ecut=    71.00 Ry     beta= 0.10
     Davidson diagonalization with overlap
     ethr =  3.39E-07,  avg # of iterations =  2.3

     negative rho (up, down):  0.000E+00 2.341E-03

     total cpu time spent up to now is      662.8 secs

     total energy              =   -5268.19053266 Ry
     Harris-Foulkes estimate   =   -5268.19034003 Ry
     estimated scf accuracy    <       0.00059519 Ry

     total magnetization       =    32.76 Bohr mag/cell
     absolute magnetization    =    34.44 Bohr mag/cell

     iteration # 14     ecut=    71.00 Ry     beta= 0.10
     Davidson diagonalization with overlap
     ethr =  2.32E-07,  avg # of iterations =  2.4

     negative rho (up, down):  0.000E+00 2.466E-03

     total cpu time spent up to now is      708.5 secs

     total energy              =   -5268.19061461 Ry
     Harris-Foulkes estimate   =   -5268.19059742 Ry
     estimated scf accuracy    <       0.00024754 Ry

     total magnetization       =    32.84 Bohr mag/cell
     absolute magnetization    =    34.56 Bohr mag/cell

     iteration # 15     ecut=    71.00 Ry     beta= 0.10
     Davidson diagonalization with overlap
     ethr =  9.67E-08,  avg # of iterations =  3.1

     negative rho (up, down):  0.000E+00 2.405E-03

     total cpu time spent up to now is      761.2 secs

     total energy              =   -5268.19069055 Ry
     Harris-Foulkes estimate   =   -5268.19064849 Ry
     estimated scf accuracy    <       0.00010322 Ry

     total magnetization       =    32.88 Bohr mag/cell
     absolute magnetization    =    34.64 Bohr mag/cell

     iteration # 16     ecut=    71.00 Ry     beta= 0.10
     Davidson diagonalization with overlap
     ethr =  4.03E-08,  avg # of iterations =  2.0

     negative rho (up, down):  0.000E+00 2.494E-03

     total cpu time spent up to now is      802.9 secs

     total energy              =   -5268.19068700 Ry
     Harris-Foulkes estimate   =   -5268.19070123 Ry
     estimated scf accuracy    <       0.00009762 Ry

     total magnetization       =    32.90 Bohr mag/cell
     absolute magnetization    =    34.65 Bohr mag/cell

     iteration # 17     ecut=    71.00 Ry     beta= 0.10
     Davidson diagonalization with overlap
     ethr =  3.81E-08,  avg # of iterations =  3.0

     negative rho (up, down):  0.000E+00 2.455E-03

     total cpu time spent up to now is      854.3 secs

     total energy              =   -5268.19072840 Ry
     Harris-Foulkes estimate   =   -5268.19070325 Ry
     estimated scf accuracy    <       0.00007458 Ry

     total magnetization       =    32.92 Bohr mag/cell
     absolute magnetization    =    34.70 Bohr mag/cell

     iteration # 18     ecut=    71.00 Ry     beta= 0.10
     Davidson diagonalization with overlap
     ethr =  2.91E-08,  avg # of iterations =  2.4

     negative rho (up, down):  0.000E+00 2.455E-03

     total cpu time spent up to now is      900.1 secs

     total energy              =   -5268.19074380 Ry
     Harris-Foulkes estimate   =   -5268.19074003 Ry
     estimated scf accuracy    <       0.00001806 Ry

     total magnetization       =    32.95 Bohr mag/cell
     absolute magnetization    =    34.73 Bohr mag/cell

     iteration # 19     ecut=    71.00 Ry     beta= 0.10
     Davidson diagonalization with overlap
     ethr =  7.05E-09,  avg # of iterations =  1.9

     negative rho (up, down):  0.000E+00 2.473E-03

     total cpu time spent up to now is      940.2 secs

     total energy              =   -5268.19074550 Ry
     Harris-Foulkes estimate   =   -5268.19074473 Ry
     estimated scf accuracy    <       0.00001208 Ry

     total magnetization       =    32.95 Bohr mag/cell
     absolute magnetization    =    34.73 Bohr mag/cell

     iteration # 20     ecut=    71.00 Ry     beta= 0.10
     Davidson diagonalization with overlap
     ethr =  4.72E-09,  avg # of iterations =  2.8

     negative rho (up, down):  0.000E+00 2.471E-03

     total cpu time spent up to now is      988.9 secs

     total energy              =   -5268.19074885 Ry
     Harris-Foulkes estimate   =   -5268.19074788 Ry
     estimated scf accuracy    <       0.00000471 Ry

     total magnetization       =    32.96 Bohr mag/cell
     absolute magnetization    =    34.75 Bohr mag/cell

     iteration # 21     ecut=    71.00 Ry     beta= 0.10
     Davidson diagonalization with overlap
     ethr =  1.84E-09,  avg # of iterations =  2.0

     negative rho (up, down):  0.000E+00 2.472E-03

     total cpu time spent up to now is     1028.9 secs

     total energy              =   -5268.19074980 Ry
     Harris-Foulkes estimate   =   -5268.19074930 Ry
     estimated scf accuracy    <       0.00000257 Ry

     total magnetization       =    32.97 Bohr mag/cell
     absolute magnetization    =    34.75 Bohr mag/cell

     iteration # 22     ecut=    71.00 Ry     beta= 0.10
     Davidson diagonalization with overlap
     ethr =  1.00E-09,  avg # of iterations =  1.8

     negative rho (up, down):  0.000E+00 2.486E-03
 
     Magnetic moment per site:
     atom:    1    charge:   14.3696    magn:    2.1044    constr:    0.0000
     atom:    2    charge:   14.3696    magn:    2.1062    constr:    0.0000
     atom:    3    charge:   14.3695    magn:    2.1056    constr:    0.0000
     atom:    4    charge:   14.3696    magn:    2.1062    constr:    0.0000
     atom:    5    charge:   14.3698    magn:    2.1046    constr:    0.0000
     atom:    6    charge:   14.3696    magn:    2.1062    constr:    0.0000
     atom:    7    charge:   14.3698    magn:    2.1055    constr:    0.0000
     atom:    8    charge:   14.3696    magn:    2.1062    constr:    0.0000
     atom:    9    charge:   14.3698    magn:    2.1046    constr:    0.0000
     atom:   10    charge:   14.3696    magn:    2.1062    constr:    0.0000
     atom:   11    charge:   14.3698    magn:    2.1055    constr:    0.0000
     atom:   12    charge:   14.3696    magn:    2.1062    constr:    0.0000
     atom:   13    charge:   14.3697    magn:    2.1049    constr:    0.0000
     atom:   14    charge:   14.3696    magn:    2.1062    constr:    0.0000
     atom:   15    charge:   14.3697    magn:    2.1058    constr:    0.0000
     atom:   16    charge:   14.3696    magn:    2.1062    constr:    0.0000

     total cpu time spent up to now is     1068.2 secs

     End of self-consistent calculation

     Number of k-points >= 100: set verbosity='high' to print the bands.

     the Fermi energy is    18.8788 ev

!    total energy              =   -5268.19075125 Ry
     Harris-Foulkes estimate   =   -5268.19074995 Ry
     estimated scf accuracy    <       0.00000085 Ry

     total all-electron energy =    -40728.935280 Ry

     The total energy is the sum of the following terms:

     one-electron contribution =   -1713.34910574 Ry
     hartree contribution      =    1024.40587235 Ry
     xc contribution           =    -444.21632794 Ry
     ewald contribution        =   -2810.48685220 Ry
     one-center paw contrib.   =   -1324.67026891 Ry
     smearing contrib. (-TS)   =       0.12593119 Ry

     total magnetization       =    32.97 Bohr mag/cell
     absolute magnetization    =    34.75 Bohr mag/cell

     convergence has been achieved in  22 iterations

     negative rho (up, down):  0.000E+00 2.486E-03

     Forces acting on atoms (cartesian axes, Ry/au):

     atom    1 type  1   force =     0.00000000    0.00000000    0.00000000
     atom    2 type  2   force =     0.00002022    0.00002022    0.00012731
     atom    3 type  1   force =     0.00000000    0.00000000    0.00000000
     atom    4 type  2   force =     0.00002022    0.00002022   -0.00012731
     atom    5 type  1   force =     0.00000000    0.00000000    0.00000000
     atom    6 type  2   force =     0.00002022   -0.00002022    0.00012731
     atom    7 type  1   force =     0.00000000    0.00000000    0.00000000
     atom    8 type  2   force =     0.00002022   -0.00002022   -0.00012731
     atom    9 type  1   force =     0.00000000    0.00000000    0.00000000
     atom   10 type  2   force =    -0.00002022    0.00002022    0.00012731
     atom   11 type  1   force =     0.00000000    0.00000000    0.00000000
     atom   12 type  2   force =    -0.00002022    0.00002022   -0.00012731
     atom   13 type  1   force =     0.00000000    0.00000000    0.00000000
     atom   14 type  2   force =    -0.00002022   -0.00002022    0.00012731
     atom   15 type  1   force =     0.00000000    0.00000000    0.00000000
     atom   16 type  2   force =    -0.00002022   -0.00002022   -0.00012731

     Total force =     0.000369     Total SCF correction =     0.004985
     SCF correction compared to forces is large: reduce conv_thr to get better values


     Computing stress (Cartesian axis) and pressure


     negative rho (up, down):  0.000E+00 2.486E-03
          total   stress  (Ry/bohr**3)                   (kbar)     P=  -12.26
  -0.00007189   0.00000000   0.00000000        -10.58      0.00      0.00
   0.00000000  -0.00007189   0.00000000          0.00    -10.58      0.00
   0.00000000   0.00000000  -0.00010629          0.00      0.00    -15.64


     Writing output data file tVqxklftHzuTLfxm.save/
 
     init_run     :     13.08s CPU     13.75s WALL (       1 calls)
     electrons    :   1021.46s CPU   1053.14s WALL (       1 calls)
     forces       :      4.66s CPU      5.07s WALL (       1 calls)
     stress       :     12.38s CPU     12.50s WALL (       1 calls)

     Called by init_run:
     wfcinit      :     12.57s CPU     13.13s WALL (       1 calls)
     potinit      :      0.28s CPU      0.30s WALL (       1 calls)
     hinit0       :      0.13s CPU      0.14s WALL (       1 calls)

     Called by electrons:
     c_bands      :    920.72s CPU    946.96s WALL (      23 calls)
     sum_band     :     96.06s CPU    101.02s WALL (      23 calls)
     v_of_rho     :      0.43s CPU      0.43s WALL (      23 calls)
     newd         :      0.74s CPU      0.94s WALL (      23 calls)
     PAW_pot      :      3.52s CPU      3.73s WALL (      23 calls)
     mix_rho      :      0.14s CPU      0.14s WALL (      23 calls)

     Called by c_bands:
     init_us_2    :      4.99s CPU      5.06s WALL (    7350 calls)
     cegterg      :    895.74s CPU    921.72s WALL (    3450 calls)

     Called by sum_band:
     sum_band:bec :      1.34s CPU      1.36s WALL (    3450 calls)
     addusdens    :      1.10s CPU      1.29s WALL (      23 calls)

     Called by *egterg:
     h_psi        :    376.85s CPU    392.76s WALL (   11555 calls)
     s_psi        :     20.24s CPU     20.36s WALL (   11555 calls)
     g_psi        :      0.83s CPU      0.84s WALL (    7955 calls)
     cdiaghg      :    409.27s CPU    410.84s WALL (   11255 calls)

     Called by h_psi:
     h_psi:pot    :    374.57s CPU    390.45s WALL (   11555 calls)
     h_psi:calbec :     31.04s CPU     35.97s WALL (   11555 calls)
     vloc_psi     :    322.76s CPU    333.60s WALL (   11555 calls)
     add_vuspsi   :     20.66s CPU     20.81s WALL (   11555 calls)

     General routines
     calbec       :     47.53s CPU     55.15s WALL (   15755 calls)
     fft          :      0.45s CPU      0.47s WALL (     617 calls)
     ffts         :      0.05s CPU      0.22s WALL (      92 calls)
     fftw         :    376.40s CPU    388.94s WALL ( 2876460 calls)
     interpolate  :      0.07s CPU      0.14s WALL (      46 calls)
 
     Parallel routines
     fft_scatt_xy :     24.93s CPU     25.71s WALL ( 2877169 calls)
     fft_scatt_yz :    252.85s CPU    261.51s WALL ( 2877169 calls)
 
     PWSCF        : 17m40.99s CPU    18m38.85s WALL

 
   This run was terminated on:   8:32:49   2Nov2020            

=------------------------------------------------------------------------------=
   JOB DONE.
=------------------------------------------------------------------------------=
