--------------------------------------------------------------------------
WARNING: No preset parameters were found for the device that Open MPI
detected:

  Local host:            bear-pg0206u26a
  Device name:           mlx5_0
  Device vendor ID:      0x02c9
  Device vendor part ID: 4123

Default device parameters will be used, which may result in lower
performance.  You can edit any of the files specified by the
btl_openib_device_param_files MCA parameter to set values for your
device.

NOTE: You can turn off this warning by setting the MCA parameter
      btl_openib_warn_no_device_params_found to 0.
--------------------------------------------------------------------------
--------------------------------------------------------------------------
WARNING: There was an error initializing an OpenFabrics device.

  Local host:   bear-pg0206u26a
  Local device: mlx5_0
--------------------------------------------------------------------------

     Program PWSCF v.6.3 starts on  2Nov2020 at  6:59: 5 

     This program is part of the open-source Quantum ESPRESSO suite
     for quantum simulation of materials; please cite
         "P. Giannozzi et al., J. Phys.:Condens. Matter 21 395502 (2009);
         "P. Giannozzi et al., J. Phys.:Condens. Matter 29 465901 (2017);
          URL http://www.quantum-espresso.org", 
     in publications or presentations arising from this work. More details at
     http://www.quantum-espresso.org/quote

     Parallel version (MPI & OpenMP), running on      40 processor cores
     Number of MPI processes:                40
     Threads/MPI process:                     1

     MPI processes distributed on     1 nodes
     R & G space division:  proc/nbgrp/npool/nimage =      40
     Reading input from wd/ec/ec_3_002.in
Warning: card &IONS ignored
Warning: card ION_DYNAMICS = 'BFGS', ignored
Warning: card / ignored
Warning: card &CELL ignored
Warning: card CELL_DYNAMICS = 'BFGS', ignored
Warning: card CELL_FACTOR = 2.0, ignored
Warning: card PRESS = 0.0, ignored
Warning: card / ignored

     Current dimensions of program PWSCF are:
     Max number of different atomic species (ntypx) = 10
     Max number of k-points (npk) =  40000
     Max angular momentum in pseudopotentials (lmaxx) =  3
               file Fe.pbe-spn-kjpaw_psl.1.0.0.UPF: wavefunction(s)  3P 3D renormalized
               file Fe.pbe-spn-kjpaw_psl.1.0.0.UPF: wavefunction(s)  3P 3D renormalized

     Subspace diagonalization in iterative solution of the eigenvalue problem:
     a serial algorithm will be used

     Found symmetry operation: I + (  0.0000  0.0000 -0.5000)
     This is a supercell, fractional translations are disabled
 
     Parallelization info
     --------------------
     sticks:   dense  smooth     PW     G-vecs:    dense   smooth      PW
     Min          95      63     17                 4473     2401     357
     Max          96      64     18                 4480     2406     362
     Sum        3833    2537    717               179069    96121   14363
 


     bravais-lattice index     =            0
     lattice parameter (alat)  =      10.5935  a.u.
     unit-cell volume          =    1189.6255 (a.u.)^3
     number of atoms/cell      =           16
     number of atomic types    =            2
     number of electrons       =       256.00
     number of Kohn-Sham states=          154
     kinetic-energy cutoff     =      71.0000  Ry
     charge density cutoff     =     430.0000  Ry
     convergence threshold     =      1.0E-06
     mixing beta               =       0.1000
     number of iterations used =           10  plain     mixing
     Exchange-correlation      = SLA PW PBX PBC ( 1  4  3  4 0 0)

     celldm(1)=  10.593520  celldm(2)=   0.000000  celldm(3)=   0.000000
     celldm(4)=   0.000000  celldm(5)=   0.000000  celldm(6)=   0.000000

     crystal axes: (cart. coord. in units of alat)
               a(1) = (   1.000000   0.000000   0.000000 )  
               a(2) = (   0.000000   1.000000   0.000000 )  
               a(3) = (   0.000000   0.000000   1.000667 )  

     reciprocal axes: (cart. coord. in units 2 pi/alat)
               b(1) = (  1.000000  0.000000  0.000000 )  
               b(2) = (  0.000000  1.000000  0.000000 )  
               b(3) = (  0.000000  0.000000  0.999334 )  


     PseudoPot. # 1 for Fe read from file:
     /rds/homes/b/bxp912/pp/Fe.pbe-spn-kjpaw_psl.1.0.0.UPF
     MD5 check sum: 42f43b795421b414b0dc916aa790dbcb
     Pseudo is Projector augmented-wave + core cor, Zval = 16.0
     Generated using "atomic" code by A. Dal Corso v.6.3
     Shape of augmentation charge: PSQ
     Using radial grid of 1191 points,  6 beta functions with: 
                l(1) =   0
                l(2) =   0
                l(3) =   1
                l(4) =   1
                l(5) =   2
                l(6) =   2
     Q(r) pseudized with 0 coefficients 


     PseudoPot. # 2 for Fe read from file:
     /rds/homes/b/bxp912/pp/Fe.pbe-spn-kjpaw_psl.1.0.0.UPF
     MD5 check sum: 42f43b795421b414b0dc916aa790dbcb
     Pseudo is Projector augmented-wave + core cor, Zval = 16.0
     Generated using "atomic" code by A. Dal Corso v.6.3
     Shape of augmentation charge: PSQ
     Using radial grid of 1191 points,  6 beta functions with: 
                l(1) =   0
                l(2) =   0
                l(3) =   1
                l(4) =   1
                l(5) =   2
                l(6) =   2
     Q(r) pseudized with 0 coefficients 


     atomic species   valence    mass     pseudopotential
        Fe1           16.00    55.84500     Fe( 1.00)
        Fe2           16.00    55.84500     Fe( 1.00)

     Starting magnetic structure 
     atomic species   magnetization
        Fe1          0.100
        Fe2          0.100

     16 Sym. Ops., with inversion, found



   Cartesian axes

     site n.     atom                  positions (alat units)
         1           Fe1 tau(   1) = (   0.0000000   0.0000000   0.0000000  )
         2           Fe2 tau(   2) = (   0.2500004   0.2500004   0.2501671  )
         3           Fe1 tau(   3) = (   0.0000000   0.0000000   0.5003333  )
         4           Fe2 tau(   4) = (   0.2500004   0.2500004   0.7504996  )
         5           Fe1 tau(   5) = (   0.0000000   0.5000000   0.0000000  )
         6           Fe2 tau(   6) = (   0.2500004   0.7499996   0.2501671  )
         7           Fe1 tau(   7) = (   0.0000000   0.5000000   0.5003333  )
         8           Fe2 tau(   8) = (   0.2500004   0.7499996   0.7504996  )
         9           Fe1 tau(   9) = (   0.5000000   0.0000000   0.0000000  )
        10           Fe2 tau(  10) = (   0.7499996   0.2500004   0.2501671  )
        11           Fe1 tau(  11) = (   0.5000000   0.0000000   0.5003333  )
        12           Fe2 tau(  12) = (   0.7499996   0.2500004   0.7504996  )
        13           Fe1 tau(  13) = (   0.5000000   0.5000000   0.0000000  )
        14           Fe2 tau(  14) = (   0.7499996   0.7499996   0.2501671  )
        15           Fe1 tau(  15) = (   0.5000000   0.5000000   0.5003333  )
        16           Fe2 tau(  16) = (   0.7499996   0.7499996   0.7504996  )

     number of k points=    75  Marzari-Vanderbilt smearing, width (Ry)=  0.0400
                       cart. coord. in units 2pi/alat
        k(    1) = (   0.0555556   0.0555556   0.0555185), wk =   0.0109739
        k(    2) = (   0.0555556   0.0555556   0.1665556), wk =   0.0109739
        k(    3) = (   0.0555556   0.0555556   0.2775927), wk =   0.0109739
        k(    4) = (   0.0555556   0.0555556   0.3886298), wk =   0.0109739
        k(    5) = (   0.0555556   0.0555556  -0.4996669), wk =   0.0054870
        k(    6) = (   0.0555556   0.1666667   0.0555185), wk =   0.0219479
        k(    7) = (   0.0555556   0.1666667   0.1665556), wk =   0.0219479
        k(    8) = (   0.0555556   0.1666667   0.2775927), wk =   0.0219479
        k(    9) = (   0.0555556   0.1666667   0.3886298), wk =   0.0219479
        k(   10) = (   0.0555556   0.1666667  -0.4996669), wk =   0.0109739
        k(   11) = (   0.0555556   0.2777778   0.0555185), wk =   0.0219479
        k(   12) = (   0.0555556   0.2777778   0.1665556), wk =   0.0219479
        k(   13) = (   0.0555556   0.2777778   0.2775927), wk =   0.0219479
        k(   14) = (   0.0555556   0.2777778   0.3886298), wk =   0.0219479
        k(   15) = (   0.0555556   0.2777778  -0.4996669), wk =   0.0109739
        k(   16) = (   0.0555556   0.3888889   0.0555185), wk =   0.0219479
        k(   17) = (   0.0555556   0.3888889   0.1665556), wk =   0.0219479
        k(   18) = (   0.0555556   0.3888889   0.2775927), wk =   0.0219479
        k(   19) = (   0.0555556   0.3888889   0.3886298), wk =   0.0219479
        k(   20) = (   0.0555556   0.3888889  -0.4996669), wk =   0.0109739
        k(   21) = (   0.0555556  -0.5000000   0.0555185), wk =   0.0109739
        k(   22) = (   0.0555556  -0.5000000   0.1665556), wk =   0.0109739
        k(   23) = (   0.0555556  -0.5000000   0.2775927), wk =   0.0109739
        k(   24) = (   0.0555556  -0.5000000   0.3886298), wk =   0.0109739
        k(   25) = (   0.0555556  -0.5000000  -0.4996669), wk =   0.0054870
        k(   26) = (   0.1666667   0.1666667   0.0555185), wk =   0.0109739
        k(   27) = (   0.1666667   0.1666667   0.1665556), wk =   0.0109739
        k(   28) = (   0.1666667   0.1666667   0.2775927), wk =   0.0109739
        k(   29) = (   0.1666667   0.1666667   0.3886298), wk =   0.0109739
        k(   30) = (   0.1666667   0.1666667  -0.4996669), wk =   0.0054870
        k(   31) = (   0.1666667   0.2777778   0.0555185), wk =   0.0219479
        k(   32) = (   0.1666667   0.2777778   0.1665556), wk =   0.0219479
        k(   33) = (   0.1666667   0.2777778   0.2775927), wk =   0.0219479
        k(   34) = (   0.1666667   0.2777778   0.3886298), wk =   0.0219479
        k(   35) = (   0.1666667   0.2777778  -0.4996669), wk =   0.0109739
        k(   36) = (   0.1666667   0.3888889   0.0555185), wk =   0.0219479
        k(   37) = (   0.1666667   0.3888889   0.1665556), wk =   0.0219479
        k(   38) = (   0.1666667   0.3888889   0.2775927), wk =   0.0219479
        k(   39) = (   0.1666667   0.3888889   0.3886298), wk =   0.0219479
        k(   40) = (   0.1666667   0.3888889  -0.4996669), wk =   0.0109739
        k(   41) = (   0.1666667  -0.5000000   0.0555185), wk =   0.0109739
        k(   42) = (   0.1666667  -0.5000000   0.1665556), wk =   0.0109739
        k(   43) = (   0.1666667  -0.5000000   0.2775927), wk =   0.0109739
        k(   44) = (   0.1666667  -0.5000000   0.3886298), wk =   0.0109739
        k(   45) = (   0.1666667  -0.5000000  -0.4996669), wk =   0.0054870
        k(   46) = (   0.2777778   0.2777778   0.0555185), wk =   0.0109739
        k(   47) = (   0.2777778   0.2777778   0.1665556), wk =   0.0109739
        k(   48) = (   0.2777778   0.2777778   0.2775927), wk =   0.0109739
        k(   49) = (   0.2777778   0.2777778   0.3886298), wk =   0.0109739
        k(   50) = (   0.2777778   0.2777778  -0.4996669), wk =   0.0054870
        k(   51) = (   0.2777778   0.3888889   0.0555185), wk =   0.0219479
        k(   52) = (   0.2777778   0.3888889   0.1665556), wk =   0.0219479
        k(   53) = (   0.2777778   0.3888889   0.2775927), wk =   0.0219479
        k(   54) = (   0.2777778   0.3888889   0.3886298), wk =   0.0219479
        k(   55) = (   0.2777778   0.3888889  -0.4996669), wk =   0.0109739
        k(   56) = (   0.2777778  -0.5000000   0.0555185), wk =   0.0109739
        k(   57) = (   0.2777778  -0.5000000   0.1665556), wk =   0.0109739
        k(   58) = (   0.2777778  -0.5000000   0.2775927), wk =   0.0109739
        k(   59) = (   0.2777778  -0.5000000   0.3886298), wk =   0.0109739
        k(   60) = (   0.2777778  -0.5000000  -0.4996669), wk =   0.0054870
        k(   61) = (   0.3888889   0.3888889   0.0555185), wk =   0.0109739
        k(   62) = (   0.3888889   0.3888889   0.1665556), wk =   0.0109739
        k(   63) = (   0.3888889   0.3888889   0.2775927), wk =   0.0109739
        k(   64) = (   0.3888889   0.3888889   0.3886298), wk =   0.0109739
        k(   65) = (   0.3888889   0.3888889  -0.4996669), wk =   0.0054870
        k(   66) = (   0.3888889  -0.5000000   0.0555185), wk =   0.0109739
        k(   67) = (   0.3888889  -0.5000000   0.1665556), wk =   0.0109739
        k(   68) = (   0.3888889  -0.5000000   0.2775927), wk =   0.0109739
        k(   69) = (   0.3888889  -0.5000000   0.3886298), wk =   0.0109739
        k(   70) = (   0.3888889  -0.5000000  -0.4996669), wk =   0.0054870
        k(   71) = (  -0.5000000  -0.5000000   0.0555185), wk =   0.0027435
        k(   72) = (  -0.5000000  -0.5000000   0.1665556), wk =   0.0027435
        k(   73) = (  -0.5000000  -0.5000000   0.2775927), wk =   0.0027435
        k(   74) = (  -0.5000000  -0.5000000   0.3886298), wk =   0.0027435
        k(   75) = (  -0.5000000  -0.5000000  -0.4996669), wk =   0.0013717

     Dense  grid:   179069 G-vectors     FFT dimensions: (  72,  72,  72)

     Smooth grid:    96121 G-vectors     FFT dimensions: (  60,  60,  60)

     Estimated max dynamical RAM per process >     144.89 MB

     Estimated total dynamical RAM >       5.66 GB
     Generating pointlists ...
     new r_m :   0.1787 (alat units)  1.8926 (a.u.) for type    1
     new r_m :   0.1787 (alat units)  1.8926 (a.u.) for type    2

     Check: negative/imaginary core charge=   -0.000006    0.000000

     Initial potential from superposition of free atoms

     starting charge  255.99300, renormalised to  256.00000
     Starting wfcs are  160 randomized atomic wfcs
     Checking if some PAW data can be deallocated... 

     total cpu time spent up to now is       14.9 secs

     Self-consistent Calculation

     iteration #  1     ecut=    71.00 Ry     beta= 0.10
     Davidson diagonalization with overlap
     ethr =  1.00E-02,  avg # of iterations =  3.3

     Threshold (ethr) on eigenvalues was too large:
     Diagonalizing with lowered threshold

     Davidson diagonalization with overlap
     ethr =  2.10E-04,  avg # of iterations =  3.5

     total cpu time spent up to now is      129.1 secs

     total energy              =   -5268.00861466 Ry
     Harris-Foulkes estimate   =   -5268.07037739 Ry
     estimated scf accuracy    <       0.61884084 Ry

     total magnetization       =    27.95 Bohr mag/cell
     absolute magnetization    =    28.06 Bohr mag/cell

     iteration #  2     ecut=    71.00 Ry     beta= 0.10
     Davidson diagonalization with overlap
     ethr =  2.42E-04,  avg # of iterations =  1.0

     total cpu time spent up to now is      162.4 secs

     total energy              =   -5267.97673360 Ry
     Harris-Foulkes estimate   =   -5268.02094335 Ry
     estimated scf accuracy    <       0.36184134 Ry

     total magnetization       =    28.61 Bohr mag/cell
     absolute magnetization    =    28.75 Bohr mag/cell

     iteration #  3     ecut=    71.00 Ry     beta= 0.10
     Davidson diagonalization with overlap
     ethr =  1.41E-04,  avg # of iterations =  3.0

     total cpu time spent up to now is      216.2 secs

     total energy              =   -5268.02723045 Ry
     Harris-Foulkes estimate   =   -5268.03184743 Ry
     estimated scf accuracy    <       0.40966341 Ry

     total magnetization       =    29.74 Bohr mag/cell
     absolute magnetization    =    30.03 Bohr mag/cell

     iteration #  4     ecut=    71.00 Ry     beta= 0.10
     Davidson diagonalization with overlap
     ethr =  1.41E-04,  avg # of iterations =  1.0

     total cpu time spent up to now is      249.5 secs

     total energy              =   -5268.04476862 Ry
     Harris-Foulkes estimate   =   -5268.04045850 Ry
     estimated scf accuracy    <       0.12171514 Ry

     total magnetization       =    30.15 Bohr mag/cell
     absolute magnetization    =    30.48 Bohr mag/cell

     iteration #  5     ecut=    71.00 Ry     beta= 0.10
     Davidson diagonalization with overlap
     ethr =  4.75E-05,  avg # of iterations =  1.0

     total cpu time spent up to now is      282.7 secs

     total energy              =   -5268.11358056 Ry
     Harris-Foulkes estimate   =   -5268.04648048 Ry
     estimated scf accuracy    <       0.10583603 Ry

     total magnetization       =    30.21 Bohr mag/cell
     absolute magnetization    =    30.57 Bohr mag/cell

     iteration #  6     ecut=    71.00 Ry     beta= 0.10
     Davidson diagonalization with overlap
     ethr =  4.13E-05,  avg # of iterations =  3.5

     negative rho (up, down):  0.000E+00 1.103E-03

     total cpu time spent up to now is      348.0 secs

     total energy              =   -5268.16096479 Ry
     Harris-Foulkes estimate   =   -5268.16148982 Ry
     estimated scf accuracy    <       0.20104840 Ry

     total magnetization       =    30.98 Bohr mag/cell
     absolute magnetization    =    31.74 Bohr mag/cell

     iteration #  7     ecut=    71.00 Ry     beta= 0.10
     Davidson diagonalization with overlap
     ethr =  4.13E-05,  avg # of iterations =  2.6

     negative rho (up, down):  0.000E+00 1.532E-03

     total cpu time spent up to now is      401.1 secs

     total energy              =   -5268.18112528 Ry
     Harris-Foulkes estimate   =   -5268.18307072 Ry
     estimated scf accuracy    <       0.04701088 Ry

     total magnetization       =    31.91 Bohr mag/cell
     absolute magnetization    =    33.13 Bohr mag/cell

     iteration #  8     ecut=    71.00 Ry     beta= 0.10
     Davidson diagonalization with overlap
     ethr =  1.84E-05,  avg # of iterations =  1.2

     negative rho (up, down):  0.000E+00 1.211E-03

     total cpu time spent up to now is      435.5 secs

     total energy              =   -5268.17938922 Ry
     Harris-Foulkes estimate   =   -5268.18310103 Ry
     estimated scf accuracy    <       0.02880735 Ry

     total magnetization       =    32.06 Bohr mag/cell
     absolute magnetization    =    33.33 Bohr mag/cell

     iteration #  9     ecut=    71.00 Ry     beta= 0.10
     Davidson diagonalization with overlap
     ethr =  1.13E-05,  avg # of iterations =  2.3

     negative rho (up, down):  0.000E+00 1.538E-03

     total cpu time spent up to now is      478.9 secs

     total energy              =   -5268.18360037 Ry
     Harris-Foulkes estimate   =   -5268.18070826 Ry
     estimated scf accuracy    <       0.01776917 Ry

     total magnetization       =    32.16 Bohr mag/cell
     absolute magnetization    =    33.47 Bohr mag/cell

     iteration # 10     ecut=    71.00 Ry     beta= 0.10
     Davidson diagonalization with overlap
     ethr =  6.94E-06,  avg # of iterations =  1.9

     negative rho (up, down):  0.000E+00 2.355E-03

     total cpu time spent up to now is      520.1 secs

     total energy              =   -5268.18754155 Ry
     Harris-Foulkes estimate   =   -5268.18462011 Ry
     estimated scf accuracy    <       0.00582545 Ry

     total magnetization       =    32.37 Bohr mag/cell
     absolute magnetization    =    33.78 Bohr mag/cell

     iteration # 11     ecut=    71.00 Ry     beta= 0.10
     Davidson diagonalization with overlap
     ethr =  2.28E-06,  avg # of iterations =  3.5

     negative rho (up, down):  0.000E+00 2.320E-03

     total cpu time spent up to now is      579.4 secs

     total energy              =   -5268.18889776 Ry
     Harris-Foulkes estimate   =   -5268.18884833 Ry
     estimated scf accuracy    <       0.00102921 Ry

     total magnetization       =    32.63 Bohr mag/cell
     absolute magnetization    =    34.25 Bohr mag/cell

     iteration # 12     ecut=    71.00 Ry     beta= 0.10
     Davidson diagonalization with overlap
     ethr =  4.02E-07,  avg # of iterations =  1.2

     negative rho (up, down):  0.000E+00 2.210E-03

     total cpu time spent up to now is      613.9 secs

     total energy              =   -5268.18919233 Ry
     Harris-Foulkes estimate   =   -5268.18891497 Ry
     estimated scf accuracy    <       0.00086798 Ry

     total magnetization       =    32.64 Bohr mag/cell
     absolute magnetization    =    34.26 Bohr mag/cell

     iteration # 13     ecut=    71.00 Ry     beta= 0.10
     Davidson diagonalization with overlap
     ethr =  3.39E-07,  avg # of iterations =  2.4

     negative rho (up, down):  0.000E+00 2.325E-03

     total cpu time spent up to now is      660.5 secs

     total energy              =   -5268.18951358 Ry
     Harris-Foulkes estimate   =   -5268.18931248 Ry
     estimated scf accuracy    <       0.00058730 Ry

     total magnetization       =    32.71 Bohr mag/cell
     absolute magnetization    =    34.37 Bohr mag/cell

     iteration # 14     ecut=    71.00 Ry     beta= 0.10
     Davidson diagonalization with overlap
     ethr =  2.29E-07,  avg # of iterations =  2.4

     negative rho (up, down):  0.000E+00 2.458E-03

     total cpu time spent up to now is      706.3 secs

     total energy              =   -5268.18959066 Ry
     Harris-Foulkes estimate   =   -5268.18957774 Ry
     estimated scf accuracy    <       0.00024451 Ry

     total magnetization       =    32.78 Bohr mag/cell
     absolute magnetization    =    34.49 Bohr mag/cell

     iteration # 15     ecut=    71.00 Ry     beta= 0.10
     Davidson diagonalization with overlap
     ethr =  9.55E-08,  avg # of iterations =  3.1

     negative rho (up, down):  0.000E+00 2.388E-03

     total cpu time spent up to now is      759.7 secs

     total energy              =   -5268.18966808 Ry
     Harris-Foulkes estimate   =   -5268.18962716 Ry
     estimated scf accuracy    <       0.00009908 Ry

     total magnetization       =    32.82 Bohr mag/cell
     absolute magnetization    =    34.57 Bohr mag/cell

     iteration # 16     ecut=    71.00 Ry     beta= 0.10
     Davidson diagonalization with overlap
     ethr =  3.87E-08,  avg # of iterations =  2.1

     negative rho (up, down):  0.000E+00 2.476E-03

     total cpu time spent up to now is      802.5 secs

     total energy              =   -5268.18966503 Ry
     Harris-Foulkes estimate   =   -5268.18967937 Ry
     estimated scf accuracy    <       0.00009618 Ry

     total magnetization       =    32.84 Bohr mag/cell
     absolute magnetization    =    34.58 Bohr mag/cell

     iteration # 17     ecut=    71.00 Ry     beta= 0.10
     Davidson diagonalization with overlap
     ethr =  3.76E-08,  avg # of iterations =  2.9

     negative rho (up, down):  0.000E+00 2.437E-03

     total cpu time spent up to now is      853.5 secs

     total energy              =   -5268.18970474 Ry
     Harris-Foulkes estimate   =   -5268.18968073 Ry
     estimated scf accuracy    <       0.00007301 Ry

     total magnetization       =    32.86 Bohr mag/cell
     absolute magnetization    =    34.62 Bohr mag/cell

     iteration # 18     ecut=    71.00 Ry     beta= 0.10
     Davidson diagonalization with overlap
     ethr =  2.85E-08,  avg # of iterations =  2.5

     negative rho (up, down):  0.000E+00 2.438E-03

     total cpu time spent up to now is      900.5 secs

     total energy              =   -5268.18971996 Ry
     Harris-Foulkes estimate   =   -5268.18971660 Ry
     estimated scf accuracy    <       0.00001644 Ry

     total magnetization       =    32.89 Bohr mag/cell
     absolute magnetization    =    34.65 Bohr mag/cell

     iteration # 19     ecut=    71.00 Ry     beta= 0.10
     Davidson diagonalization with overlap
     ethr =  6.42E-09,  avg # of iterations =  2.0

     negative rho (up, down):  0.000E+00 2.454E-03

     total cpu time spent up to now is      941.4 secs

     total energy              =   -5268.18972193 Ry
     Harris-Foulkes estimate   =   -5268.18972096 Ry
     estimated scf accuracy    <       0.00001060 Ry

     total magnetization       =    32.89 Bohr mag/cell
     absolute magnetization    =    34.66 Bohr mag/cell

     iteration # 20     ecut=    71.00 Ry     beta= 0.10
     Davidson diagonalization with overlap
     ethr =  4.14E-09,  avg # of iterations =  2.7

     negative rho (up, down):  0.000E+00 2.455E-03

     total cpu time spent up to now is      992.8 secs

     total energy              =   -5268.18972452 Ry
     Harris-Foulkes estimate   =   -5268.18972407 Ry
     estimated scf accuracy    <       0.00000269 Ry

     total magnetization       =    32.90 Bohr mag/cell
     absolute magnetization    =    34.67 Bohr mag/cell

     iteration # 21     ecut=    71.00 Ry     beta= 0.10
     Davidson diagonalization with overlap
     ethr =  1.05E-09,  avg # of iterations =  2.3

     negative rho (up, down):  0.000E+00 2.456E-03

     total cpu time spent up to now is     1037.1 secs

     total energy              =   -5268.18972533 Ry
     Harris-Foulkes estimate   =   -5268.18972489 Ry
     estimated scf accuracy    <       0.00000100 Ry

     total magnetization       =    32.91 Bohr mag/cell
     absolute magnetization    =    34.68 Bohr mag/cell

     iteration # 22     ecut=    71.00 Ry     beta= 0.10
     Davidson diagonalization with overlap
     ethr =  3.91E-10,  avg # of iterations =  1.4

     negative rho (up, down):  0.000E+00 2.470E-03
 
     Magnetic moment per site:
     atom:    1    charge:   14.3669    magn:    2.1000    constr:    0.0000
     atom:    2    charge:   14.3669    magn:    2.1018    constr:    0.0000
     atom:    3    charge:   14.3669    magn:    2.1011    constr:    0.0000
     atom:    4    charge:   14.3669    magn:    2.1018    constr:    0.0000
     atom:    5    charge:   14.3670    magn:    2.1002    constr:    0.0000
     atom:    6    charge:   14.3669    magn:    2.1018    constr:    0.0000
     atom:    7    charge:   14.3670    magn:    2.1010    constr:    0.0000
     atom:    8    charge:   14.3669    magn:    2.1018    constr:    0.0000
     atom:    9    charge:   14.3670    magn:    2.1002    constr:    0.0000
     atom:   10    charge:   14.3669    magn:    2.1018    constr:    0.0000
     atom:   11    charge:   14.3670    magn:    2.1010    constr:    0.0000
     atom:   12    charge:   14.3669    magn:    2.1018    constr:    0.0000
     atom:   13    charge:   14.3669    magn:    2.1005    constr:    0.0000
     atom:   14    charge:   14.3669    magn:    2.1018    constr:    0.0000
     atom:   15    charge:   14.3670    magn:    2.1013    constr:    0.0000
     atom:   16    charge:   14.3669    magn:    2.1018    constr:    0.0000

     total cpu time spent up to now is     1073.2 secs

     End of self-consistent calculation

     Number of k-points >= 100: set verbosity='high' to print the bands.

     the Fermi energy is    18.9583 ev

!    total energy              =   -5268.18972664 Ry
     Harris-Foulkes estimate   =   -5268.18972536 Ry
     estimated scf accuracy    <       0.00000069 Ry

     total all-electron energy =    -40728.934256 Ry

     The total energy is the sum of the following terms:

     one-electron contribution =   -1708.41925360 Ry
     hartree contribution      =    1022.63346140 Ry
     xc contribution           =    -444.25253252 Ry
     ewald contribution        =   -2813.60485340 Ry
     one-center paw contrib.   =   -1324.67099762 Ry
     smearing contrib. (-TS)   =       0.12444910 Ry

     total magnetization       =    32.91 Bohr mag/cell
     absolute magnetization    =    34.68 Bohr mag/cell

     convergence has been achieved in  22 iterations

     negative rho (up, down):  0.000E+00 2.470E-03

     Forces acting on atoms (cartesian axes, Ry/au):

     atom    1 type  1   force =     0.00000000    0.00000000    0.00000000
     atom    2 type  2   force =     0.00003987    0.00003987    0.00011318
     atom    3 type  1   force =     0.00000000    0.00000000    0.00000000
     atom    4 type  2   force =     0.00003987    0.00003987   -0.00011318
     atom    5 type  1   force =     0.00000000    0.00000000    0.00000000
     atom    6 type  2   force =     0.00003987   -0.00003987    0.00011318
     atom    7 type  1   force =     0.00000000    0.00000000    0.00000000
     atom    8 type  2   force =     0.00003987   -0.00003987   -0.00011318
     atom    9 type  1   force =     0.00000000    0.00000000    0.00000000
     atom   10 type  2   force =    -0.00003987    0.00003987    0.00011318
     atom   11 type  1   force =     0.00000000    0.00000000    0.00000000
     atom   12 type  2   force =    -0.00003987    0.00003987   -0.00011318
     atom   13 type  1   force =     0.00000000    0.00000000    0.00000000
     atom   14 type  2   force =    -0.00003987   -0.00003987    0.00011318
     atom   15 type  1   force =     0.00000000    0.00000000    0.00000000
     atom   16 type  2   force =    -0.00003987   -0.00003987   -0.00011318

     Total force =     0.000358     Total SCF correction =     0.004744
     SCF correction compared to forces is large: reduce conv_thr to get better values


     Computing stress (Cartesian axis) and pressure


     negative rho (up, down):  0.000E+00 2.470E-03
          total   stress  (Ry/bohr**3)                   (kbar)     P=   -4.07
  -0.00002580   0.00000000   0.00000000         -3.80      0.00      0.00
   0.00000000  -0.00002580   0.00000000          0.00     -3.80      0.00
   0.00000000   0.00000000  -0.00003137          0.00      0.00     -4.61


     Writing output data file sBGOqpRhnCbpiezz.save/
 
     init_run     :     12.94s CPU     13.56s WALL (       1 calls)
     electrons    :   1027.26s CPU   1058.37s WALL (       1 calls)
     forces       :      4.52s CPU      4.92s WALL (       1 calls)
     stress       :     12.43s CPU     12.58s WALL (       1 calls)

     Called by init_run:
     wfcinit      :     12.51s CPU     13.03s WALL (       1 calls)
     potinit      :      0.20s CPU      0.22s WALL (       1 calls)
     hinit0       :      0.13s CPU      0.14s WALL (       1 calls)

     Called by electrons:
     c_bands      :    926.61s CPU    952.31s WALL (      23 calls)
     sum_band     :     96.03s CPU    100.95s WALL (      23 calls)
     v_of_rho     :      0.35s CPU      0.35s WALL (      23 calls)
     newd         :      0.73s CPU      0.91s WALL (      23 calls)
     PAW_pot      :      3.50s CPU      3.71s WALL (      23 calls)
     mix_rho      :      0.13s CPU      0.14s WALL (      23 calls)

     Called by c_bands:
     init_us_2    :      4.88s CPU      4.96s WALL (    7350 calls)
     cegterg      :    901.78s CPU    927.17s WALL (    3450 calls)

     Called by sum_band:
     sum_band:bec :      1.33s CPU      1.35s WALL (    3450 calls)
     addusdens    :      1.18s CPU      1.36s WALL (      23 calls)

     Called by *egterg:
     h_psi        :    382.40s CPU    397.96s WALL (   11530 calls)
     s_psi        :     20.12s CPU     20.26s WALL (   11530 calls)
     g_psi        :      0.81s CPU      0.82s WALL (    7930 calls)
     cdiaghg      :    409.93s CPU    411.21s WALL (   11230 calls)

     Called by h_psi:
     h_psi:pot    :    380.41s CPU    395.95s WALL (   11530 calls)
     h_psi:calbec :     31.37s CPU     36.20s WALL (   11530 calls)
     vloc_psi     :    328.48s CPU    339.07s WALL (   11530 calls)
     add_vuspsi   :     20.45s CPU     20.61s WALL (   11530 calls)

     General routines
     calbec       :     47.86s CPU     55.35s WALL (   15730 calls)
     fft          :      0.37s CPU      0.39s WALL (     617 calls)
     ffts         :      0.07s CPU      0.24s WALL (      92 calls)
     fftw         :    382.12s CPU    394.39s WALL ( 2884344 calls)
     interpolate  :      0.07s CPU      0.15s WALL (      46 calls)
 
     Parallel routines
     fft_scatt_xy :     24.72s CPU     25.52s WALL ( 2885053 calls)
     fft_scatt_yz :    258.54s CPU    267.10s WALL ( 2885053 calls)
 
     PWSCF        : 17m46.69s CPU    18m44.34s WALL

 
   This run was terminated on:   7:17:49   2Nov2020            

=------------------------------------------------------------------------------=
   JOB DONE.
=------------------------------------------------------------------------------=
