--------------------------------------------------------------------------
WARNING: No preset parameters were found for the device that Open MPI
detected:

  Local host:            bear-pg0206u26a
  Device name:           mlx5_0
  Device vendor ID:      0x02c9
  Device vendor part ID: 4123

Default device parameters will be used, which may result in lower
performance.  You can edit any of the files specified by the
btl_openib_device_param_files MCA parameter to set values for your
device.

NOTE: You can turn off this warning by setting the MCA parameter
      btl_openib_warn_no_device_params_found to 0.
--------------------------------------------------------------------------
--------------------------------------------------------------------------
WARNING: There was an error initializing an OpenFabrics device.

  Local host:   bear-pg0206u26a
  Local device: mlx5_0
--------------------------------------------------------------------------

     Program PWSCF v.6.3 starts on  2Nov2020 at 14:25:27 

     This program is part of the open-source Quantum ESPRESSO suite
     for quantum simulation of materials; please cite
         "P. Giannozzi et al., J. Phys.:Condens. Matter 21 395502 (2009);
         "P. Giannozzi et al., J. Phys.:Condens. Matter 29 465901 (2017);
          URL http://www.quantum-espresso.org", 
     in publications or presentations arising from this work. More details at
     http://www.quantum-espresso.org/quote

     Parallel version (MPI & OpenMP), running on      40 processor cores
     Number of MPI processes:                40
     Threads/MPI process:                     1

     MPI processes distributed on     1 nodes
     R & G space division:  proc/nbgrp/npool/nimage =      40
     Reading input from wd/ec/ec_6_003.in
Warning: card &IONS ignored
Warning: card ION_DYNAMICS = 'BFGS', ignored
Warning: card / ignored
Warning: card &CELL ignored
Warning: card CELL_DYNAMICS = 'BFGS', ignored
Warning: card CELL_FACTOR = 2.0, ignored
Warning: card PRESS = 0.0, ignored
Warning: card / ignored

     Current dimensions of program PWSCF are:
     Max number of different atomic species (ntypx) = 10
     Max number of k-points (npk) =  40000
     Max angular momentum in pseudopotentials (lmaxx) =  3
               file Fe.pbe-spn-kjpaw_psl.1.0.0.UPF: wavefunction(s)  3P 3D renormalized
               file Fe.pbe-spn-kjpaw_psl.1.0.0.UPF: wavefunction(s)  3P 3D renormalized

     Subspace diagonalization in iterative solution of the eigenvalue problem:
     a serial algorithm will be used

     Found symmetry operation: I + (  0.0000  0.0000 -0.5000)
     This is a supercell, fractional translations are disabled
 
     Parallelization info
     --------------------
     sticks:   dense  smooth     PW     G-vecs:    dense   smooth      PW
     Min          95      63     17                 4471     2401     355
     Max          96      64     18                 4476     2404     360
     Sum        3837    2541    717               178953    96097   14323
 


     bravais-lattice index     =            0
     lattice parameter (alat)  =      10.5935  a.u.
     unit-cell volume          =    1188.8329 (a.u.)^3
     number of atoms/cell      =           16
     number of atomic types    =            2
     number of electrons       =       256.00
     number of Kohn-Sham states=          154
     kinetic-energy cutoff     =      71.0000  Ry
     charge density cutoff     =     430.0000  Ry
     convergence threshold     =      1.0E-06
     mixing beta               =       0.1000
     number of iterations used =           10  plain     mixing
     Exchange-correlation      = SLA PW PBX PBC ( 1  4  3  4 0 0)

     celldm(1)=  10.593520  celldm(2)=   0.000000  celldm(3)=   0.000000
     celldm(4)=   0.000000  celldm(5)=   0.000000  celldm(6)=   0.000000

     crystal axes: (cart. coord. in units of alat)
               a(1) = (   1.000001   0.001333   0.000000 )  
               a(2) = (   0.001333   1.000001   0.000000 )  
               a(3) = (   0.000000   0.000000   1.000001 )  

     reciprocal axes: (cart. coord. in units 2 pi/alat)
               b(1) = (  1.000001 -0.001333  0.000000 )  
               b(2) = ( -0.001333  1.000001  0.000000 )  
               b(3) = (  0.000000  0.000000  0.999999 )  


     PseudoPot. # 1 for Fe read from file:
     /rds/homes/b/bxp912/pp/Fe.pbe-spn-kjpaw_psl.1.0.0.UPF
     MD5 check sum: 42f43b795421b414b0dc916aa790dbcb
     Pseudo is Projector augmented-wave + core cor, Zval = 16.0
     Generated using "atomic" code by A. Dal Corso v.6.3
     Shape of augmentation charge: PSQ
     Using radial grid of 1191 points,  6 beta functions with: 
                l(1) =   0
                l(2) =   0
                l(3) =   1
                l(4) =   1
                l(5) =   2
                l(6) =   2
     Q(r) pseudized with 0 coefficients 


     PseudoPot. # 2 for Fe read from file:
     /rds/homes/b/bxp912/pp/Fe.pbe-spn-kjpaw_psl.1.0.0.UPF
     MD5 check sum: 42f43b795421b414b0dc916aa790dbcb
     Pseudo is Projector augmented-wave + core cor, Zval = 16.0
     Generated using "atomic" code by A. Dal Corso v.6.3
     Shape of augmentation charge: PSQ
     Using radial grid of 1191 points,  6 beta functions with: 
                l(1) =   0
                l(2) =   0
                l(3) =   1
                l(4) =   1
                l(5) =   2
                l(6) =   2
     Q(r) pseudized with 0 coefficients 


     atomic species   valence    mass     pseudopotential
        Fe1           16.00    55.84500     Fe( 1.00)
        Fe2           16.00    55.84500     Fe( 1.00)

     Starting magnetic structure 
     atomic species   magnetization
        Fe1          0.100
        Fe2          0.100

      8 Sym. Ops., with inversion, found



   Cartesian axes

     site n.     atom                  positions (alat units)
         1           Fe1 tau(   1) = (   0.0000000   0.0000000   0.0000000  )
         2           Fe2 tau(   2) = (   0.2503339   0.2503339   0.2500006  )
         3           Fe1 tau(   3) = (   0.0000000   0.0000000   0.5000003  )
         4           Fe2 tau(   4) = (   0.2503339   0.2503339   0.7500000  )
         5           Fe1 tau(   5) = (   0.0006667   0.5000003   0.0000000  )
         6           Fe2 tau(   6) = (   0.2510006   0.7503333   0.2500006  )
         7           Fe1 tau(   7) = (   0.0006667   0.5000003   0.5000003  )
         8           Fe2 tau(   8) = (   0.2510006   0.7503333   0.7500000  )
         9           Fe1 tau(   9) = (   0.5000003   0.0006667   0.0000000  )
        10           Fe2 tau(  10) = (   0.7503333   0.2510006   0.2500006  )
        11           Fe1 tau(  11) = (   0.5000003   0.0006667   0.5000003  )
        12           Fe2 tau(  12) = (   0.7503333   0.2510006   0.7500000  )
        13           Fe1 tau(  13) = (   0.5006670   0.5006670   0.0000000  )
        14           Fe2 tau(  14) = (   0.7510000   0.7510000   0.2500006  )
        15           Fe1 tau(  15) = (   0.5006670   0.5006670   0.5000003  )
        16           Fe2 tau(  16) = (   0.7510000   0.7510000   0.7500000  )

     number of k points=   125  Marzari-Vanderbilt smearing, width (Ry)=  0.0400

     Number of k-points >= 100: set verbosity='high' to print them.

     Dense  grid:   178953 G-vectors     FFT dimensions: (  72,  72,  72)

     Smooth grid:    96097 G-vectors     FFT dimensions: (  60,  60,  60)

     Estimated max dynamical RAM per process >     215.38 MB

     Estimated total dynamical RAM >       8.41 GB
     Generating pointlists ...
     new r_m :   0.1785 (alat units)  1.8905 (a.u.) for type    1
     new r_m :   0.1785 (alat units)  1.8905 (a.u.) for type    2

     Check: negative/imaginary core charge=   -0.000006    0.000000

     Initial potential from superposition of free atoms

     starting charge  255.99300, renormalised to  256.00000
     Starting wfcs are  160 randomized atomic wfcs
     Checking if some PAW data can be deallocated... 

     total cpu time spent up to now is       23.9 secs

     Self-consistent Calculation

     iteration #  1     ecut=    71.00 Ry     beta= 0.10
     Davidson diagonalization with overlap
     ethr =  1.00E-02,  avg # of iterations =  3.4

     Threshold (ethr) on eigenvalues was too large:
     Diagonalizing with lowered threshold

     Davidson diagonalization with overlap
     ethr =  2.16E-04,  avg # of iterations =  3.6

     total cpu time spent up to now is      215.9 secs

     total energy              =   -5268.02499043 Ry
     Harris-Foulkes estimate   =   -5268.09760293 Ry
     estimated scf accuracy    <       0.63322486 Ry

     total magnetization       =    27.93 Bohr mag/cell
     absolute magnetization    =    28.05 Bohr mag/cell

     iteration #  2     ecut=    71.00 Ry     beta= 0.10
     Davidson diagonalization with overlap
     ethr =  2.47E-04,  avg # of iterations =  1.0

     total cpu time spent up to now is      270.8 secs

     total energy              =   -5267.99348358 Ry
     Harris-Foulkes estimate   =   -5268.03917259 Ry
     estimated scf accuracy    <       0.38572051 Ry

     total magnetization       =    28.58 Bohr mag/cell
     absolute magnetization    =    28.72 Bohr mag/cell

     iteration #  3     ecut=    71.00 Ry     beta= 0.10
     Davidson diagonalization with overlap
     ethr =  1.51E-04,  avg # of iterations =  2.4

     total cpu time spent up to now is      346.0 secs

     total energy              =   -5268.02048846 Ry
     Harris-Foulkes estimate   =   -5268.03028206 Ry
     estimated scf accuracy    <       0.39922444 Ry

     total magnetization       =    29.35 Bohr mag/cell
     absolute magnetization    =    29.62 Bohr mag/cell

     iteration #  4     ecut=    71.00 Ry     beta= 0.10
     Davidson diagonalization with overlap
     ethr =  1.51E-04,  avg # of iterations =  1.5

     total cpu time spent up to now is      406.7 secs

     total energy              =   -5268.04505780 Ry
     Harris-Foulkes estimate   =   -5268.04197468 Ry
     estimated scf accuracy    <       0.13127196 Ry

     total magnetization       =    30.13 Bohr mag/cell
     absolute magnetization    =    30.45 Bohr mag/cell

     iteration #  5     ecut=    71.00 Ry     beta= 0.10
     Davidson diagonalization with overlap
     ethr =  5.13E-05,  avg # of iterations =  1.6

     total cpu time spent up to now is      469.0 secs

     total energy              =   -5268.10638135 Ry
     Harris-Foulkes estimate   =   -5268.04786040 Ry
     estimated scf accuracy    <       0.10601335 Ry

     total magnetization       =    30.21 Bohr mag/cell
     absolute magnetization    =    30.56 Bohr mag/cell

     iteration #  6     ecut=    71.00 Ry     beta= 0.10
     Davidson diagonalization with overlap
     ethr =  4.14E-05,  avg # of iterations =  3.3

     negative rho (up, down):  0.000E+00 7.005E-04

     total cpu time spent up to now is      570.7 secs

     total energy              =   -5268.16130965 Ry
     Harris-Foulkes estimate   =   -5268.14084593 Ry
     estimated scf accuracy    <       0.13387455 Ry

     total magnetization       =    31.01 Bohr mag/cell
     absolute magnetization    =    31.75 Bohr mag/cell

     iteration #  7     ecut=    71.00 Ry     beta= 0.10
     Davidson diagonalization with overlap
     ethr =  4.14E-05,  avg # of iterations =  2.6

     negative rho (up, down):  0.000E+00 1.220E-03

     total cpu time spent up to now is      653.4 secs

     total energy              =   -5268.17789826 Ry
     Harris-Foulkes estimate   =   -5268.17677050 Ry
     estimated scf accuracy    <       0.04285570 Ry

     total magnetization       =    31.84 Bohr mag/cell
     absolute magnetization    =    32.98 Bohr mag/cell

     iteration #  8     ecut=    71.00 Ry     beta= 0.10
     Davidson diagonalization with overlap
     ethr =  1.67E-05,  avg # of iterations =  1.4

     negative rho (up, down):  0.000E+00 1.291E-03

     total cpu time spent up to now is      713.1 secs

     total energy              =   -5268.17908661 Ry
     Harris-Foulkes estimate   =   -5268.17970480 Ry
     estimated scf accuracy    <       0.02725234 Ry

     total magnetization       =    32.02 Bohr mag/cell
     absolute magnetization    =    33.23 Bohr mag/cell

     iteration #  9     ecut=    71.00 Ry     beta= 0.10
     Davidson diagonalization with overlap
     ethr =  1.06E-05,  avg # of iterations =  2.2

     negative rho (up, down):  0.000E+00 1.800E-03

     total cpu time spent up to now is      786.2 secs

     total energy              =   -5268.18543322 Ry
     Harris-Foulkes estimate   =   -5268.18134339 Ry
     estimated scf accuracy    <       0.01411315 Ry

     total magnetization       =    32.26 Bohr mag/cell
     absolute magnetization    =    33.60 Bohr mag/cell

     iteration # 10     ecut=    71.00 Ry     beta= 0.10
     Davidson diagonalization with overlap
     ethr =  5.51E-06,  avg # of iterations =  1.3

     negative rho (up, down):  0.000E+00 2.416E-03

     total cpu time spent up to now is      845.7 secs

     total energy              =   -5268.18769533 Ry
     Harris-Foulkes estimate   =   -5268.18608586 Ry
     estimated scf accuracy    <       0.00657402 Ry

     total magnetization       =    32.43 Bohr mag/cell
     absolute magnetization    =    33.86 Bohr mag/cell

     iteration # 11     ecut=    71.00 Ry     beta= 0.10
     Davidson diagonalization with overlap
     c_bands:  1 eigenvalues not converged
     ethr =  2.57E-06,  avg # of iterations =  3.5

     negative rho (up, down):  0.000E+00 2.370E-03

     total cpu time spent up to now is      939.1 secs

     total energy              =   -5268.18866290 Ry
     Harris-Foulkes estimate   =   -5268.18864599 Ry
     estimated scf accuracy    <       0.00137732 Ry

     total magnetization       =    32.63 Bohr mag/cell
     absolute magnetization    =    34.25 Bohr mag/cell

     iteration # 12     ecut=    71.00 Ry     beta= 0.10
     Davidson diagonalization with overlap
     ethr =  5.38E-07,  avg # of iterations =  1.2

     negative rho (up, down):  0.000E+00 2.326E-03

     total cpu time spent up to now is      996.3 secs

     total energy              =   -5268.18894718 Ry
     Harris-Foulkes estimate   =   -5268.18869410 Ry
     estimated scf accuracy    <       0.00096976 Ry

     total magnetization       =    32.64 Bohr mag/cell
     absolute magnetization    =    34.27 Bohr mag/cell

     iteration # 13     ecut=    71.00 Ry     beta= 0.10
     Davidson diagonalization with overlap
     ethr =  3.79E-07,  avg # of iterations =  2.5

     negative rho (up, down):  0.000E+00 2.408E-03

     total cpu time spent up to now is     1073.6 secs

     total energy              =   -5268.18924154 Ry
     Harris-Foulkes estimate   =   -5268.18908617 Ry
     estimated scf accuracy    <       0.00119517 Ry

     total magnetization       =    32.72 Bohr mag/cell
     absolute magnetization    =    34.38 Bohr mag/cell

     iteration # 14     ecut=    71.00 Ry     beta= 0.10
     Davidson diagonalization with overlap
     ethr =  3.79E-07,  avg # of iterations =  2.1

     negative rho (up, down):  0.000E+00 2.459E-03

     total cpu time spent up to now is     1146.2 secs

     total energy              =   -5268.18930532 Ry
     Harris-Foulkes estimate   =   -5268.18932257 Ry
     estimated scf accuracy    <       0.00062472 Ry

     total magnetization       =    32.79 Bohr mag/cell
     absolute magnetization    =    34.50 Bohr mag/cell

     iteration # 15     ecut=    71.00 Ry     beta= 0.10
     Davidson diagonalization with overlap
     ethr =  2.44E-07,  avg # of iterations =  1.4

     negative rho (up, down):  0.000E+00 2.352E-03

     total cpu time spent up to now is     1206.8 secs

     total energy              =   -5268.18936928 Ry
     Harris-Foulkes estimate   =   -5268.18933982 Ry
     estimated scf accuracy    <       0.00010319 Ry

     total magnetization       =    32.81 Bohr mag/cell
     absolute magnetization    =    34.55 Bohr mag/cell

     iteration # 16     ecut=    71.00 Ry     beta= 0.10
     Davidson diagonalization with overlap
     ethr =  4.03E-08,  avg # of iterations =  3.2

     negative rho (up, down):  0.000E+00 2.429E-03

     total cpu time spent up to now is     1301.4 secs

     total energy              =   -5268.18940143 Ry
     Harris-Foulkes estimate   =   -5268.18939305 Ry
     estimated scf accuracy    <       0.00016088 Ry

     total magnetization       =    32.82 Bohr mag/cell
     absolute magnetization    =    34.54 Bohr mag/cell

     iteration # 17     ecut=    71.00 Ry     beta= 0.10
     Davidson diagonalization with overlap
     ethr =  4.03E-08,  avg # of iterations =  2.6

     negative rho (up, down):  0.000E+00 2.420E-03

     total cpu time spent up to now is     1387.1 secs

     total energy              =   -5268.18944112 Ry
     Harris-Foulkes estimate   =   -5268.18943619 Ry
     estimated scf accuracy    <       0.00003289 Ry

     total magnetization       =    32.86 Bohr mag/cell
     absolute magnetization    =    34.62 Bohr mag/cell

     iteration # 18     ecut=    71.00 Ry     beta= 0.10
     Davidson diagonalization with overlap
     ethr =  1.28E-08,  avg # of iterations =  1.9

     negative rho (up, down):  0.000E+00 2.413E-03

     total cpu time spent up to now is     1453.2 secs

     total energy              =   -5268.18944557 Ry
     Harris-Foulkes estimate   =   -5268.18944332 Ry
     estimated scf accuracy    <       0.00001724 Ry

     total magnetization       =    32.87 Bohr mag/cell
     absolute magnetization    =    34.63 Bohr mag/cell

     iteration # 19     ecut=    71.00 Ry     beta= 0.10
     Davidson diagonalization with overlap
     ethr =  6.74E-09,  avg # of iterations =  1.2

     negative rho (up, down):  0.000E+00 2.422E-03

     total cpu time spent up to now is     1510.9 secs

     total energy              =   -5268.18944587 Ry
     Harris-Foulkes estimate   =   -5268.18944616 Ry
     estimated scf accuracy    <       0.00001090 Ry

     total magnetization       =    32.88 Bohr mag/cell
     absolute magnetization    =    34.64 Bohr mag/cell

     iteration # 20     ecut=    71.00 Ry     beta= 0.10
     Davidson diagonalization with overlap
     ethr =  4.26E-09,  avg # of iterations =  3.1

     negative rho (up, down):  0.000E+00 2.429E-03

     total cpu time spent up to now is     1607.6 secs

     total energy              =   -5268.18944976 Ry
     Harris-Foulkes estimate   =   -5268.18944962 Ry
     estimated scf accuracy    <       0.00000202 Ry

     total magnetization       =    32.89 Bohr mag/cell
     absolute magnetization    =    34.66 Bohr mag/cell

     iteration # 21     ecut=    71.00 Ry     beta= 0.10
     Davidson diagonalization with overlap
     ethr =  7.88E-10,  avg # of iterations =  1.6

     negative rho (up, down):  0.000E+00 2.433E-03

     total cpu time spent up to now is     1669.9 secs

     total energy              =   -5268.18945003 Ry
     Harris-Foulkes estimate   =   -5268.18944987 Ry
     estimated scf accuracy    <       0.00000124 Ry

     total magnetization       =    32.90 Bohr mag/cell
     absolute magnetization    =    34.66 Bohr mag/cell

     iteration # 22     ecut=    71.00 Ry     beta= 0.10
     Davidson diagonalization with overlap
     ethr =  4.83E-10,  avg # of iterations =  1.1

     negative rho (up, down):  0.000E+00 2.462E-03
 
     Magnetic moment per site:
     atom:    1    charge:   14.3610    magn:    2.0995    constr:    0.0000
     atom:    2    charge:   14.3610    magn:    2.1004    constr:    0.0000
     atom:    3    charge:   14.3610    magn:    2.1002    constr:    0.0000
     atom:    4    charge:   14.3610    magn:    2.1004    constr:    0.0000
     atom:    5    charge:   14.3610    magn:    2.0994    constr:    0.0000
     atom:    6    charge:   14.3610    magn:    2.1008    constr:    0.0000
     atom:    7    charge:   14.3609    magn:    2.0999    constr:    0.0000
     atom:    8    charge:   14.3610    magn:    2.1008    constr:    0.0000
     atom:    9    charge:   14.3610    magn:    2.0994    constr:    0.0000
     atom:   10    charge:   14.3610    magn:    2.1008    constr:    0.0000
     atom:   11    charge:   14.3609    magn:    2.0999    constr:    0.0000
     atom:   12    charge:   14.3610    magn:    2.1008    constr:    0.0000
     atom:   13    charge:   14.3611    magn:    2.0993    constr:    0.0000
     atom:   14    charge:   14.3610    magn:    2.1004    constr:    0.0000
     atom:   15    charge:   14.3607    magn:    2.1000    constr:    0.0000
     atom:   16    charge:   14.3610    magn:    2.1004    constr:    0.0000

     total cpu time spent up to now is     1725.9 secs

     End of self-consistent calculation

     Number of k-points >= 100: set verbosity='high' to print the bands.

     the Fermi energy is    18.9745 ev

!    total energy              =   -5268.18945055 Ry
     Harris-Foulkes estimate   =   -5268.18945006 Ry
     estimated scf accuracy    <       0.00000092 Ry

     total all-electron energy =    -40728.933980 Ry

     The total energy is the sum of the following terms:

     one-electron contribution =   -1707.43087401 Ry
     hartree contribution      =    1022.27533914 Ry
     xc contribution           =    -444.25900528 Ry
     ewald contribution        =   -2814.22794148 Ry
     one-center paw contrib.   =   -1324.67111766 Ry
     smearing contrib. (-TS)   =       0.12414873 Ry

     total magnetization       =    32.90 Bohr mag/cell
     absolute magnetization    =    34.66 Bohr mag/cell

     convergence has been achieved in  22 iterations

     negative rho (up, down):  0.000E+00 2.462E-03

     Forces acting on atoms (cartesian axes, Ry/au):

     atom    1 type  1   force =     0.00000000    0.00000000    0.00000000
     atom    2 type  2   force =     0.00008441    0.00008441   -0.00013051
     atom    3 type  1   force =     0.00000000    0.00000000    0.00000000
     atom    4 type  2   force =     0.00008441    0.00008441    0.00013051
     atom    5 type  1   force =     0.00000000    0.00000000    0.00000000
     atom    6 type  2   force =     0.00048027   -0.00048027    0.00025185
     atom    7 type  1   force =     0.00000000    0.00000000    0.00000000
     atom    8 type  2   force =     0.00048027   -0.00048027   -0.00025185
     atom    9 type  1   force =     0.00000000    0.00000000    0.00000000
     atom   10 type  2   force =    -0.00048027    0.00048027    0.00025185
     atom   11 type  1   force =     0.00000000    0.00000000    0.00000000
     atom   12 type  2   force =    -0.00048027    0.00048027   -0.00025185
     atom   13 type  1   force =     0.00000000    0.00000000    0.00000000
     atom   14 type  2   force =    -0.00008441   -0.00008441   -0.00013051
     atom   15 type  1   force =     0.00000000    0.00000000    0.00000000
     atom   16 type  2   force =    -0.00008441   -0.00008441    0.00013051

     Total force =     0.001491     Total SCF correction =     0.004874
     SCF correction compared to forces is large: reduce conv_thr to get better values


     Computing stress (Cartesian axis) and pressure


     negative rho (up, down):  0.000E+00 2.462E-03
          total   stress  (Ry/bohr**3)                   (kbar)     P=   -3.30
  -0.00002255  -0.00002465   0.00000000         -3.32     -3.63      0.00
  -0.00002465  -0.00002255   0.00000000         -3.63     -3.32      0.00
   0.00000000   0.00000000  -0.00002225          0.00      0.00     -3.27


     Writing output data file NRJWQNNgSmqLeCLF.save/
 
     init_run     :     21.43s CPU     22.49s WALL (       1 calls)
     electrons    :   1648.08s CPU   1702.01s WALL (       1 calls)
     forces       :      7.45s CPU      8.13s WALL (       1 calls)
     stress       :     20.51s CPU     20.73s WALL (       1 calls)

     Called by init_run:
     wfcinit      :     20.94s CPU     21.91s WALL (       1 calls)
     potinit      :      0.21s CPU      0.24s WALL (       1 calls)
     hinit0       :      0.15s CPU      0.17s WALL (       1 calls)

     Called by electrons:
     c_bands      :   1483.15s CPU   1527.93s WALL (      23 calls)
     sum_band     :    160.31s CPU    168.94s WALL (      23 calls)
     v_of_rho     :      0.34s CPU      0.35s WALL (      23 calls)
     newd         :      0.76s CPU      0.96s WALL (      23 calls)
     PAW_pot      :      3.50s CPU      3.75s WALL (      23 calls)
     mix_rho      :      0.13s CPU      0.14s WALL (      23 calls)

     Called by c_bands:
     init_us_2    :      8.19s CPU      8.40s WALL (   12250 calls)
     cegterg      :   1442.44s CPU   1486.58s WALL (    5750 calls)

     Called by sum_band:
     sum_band:bec :      2.17s CPU      2.20s WALL (    5750 calls)
     addusdens    :      1.16s CPU      1.34s WALL (      23 calls)

     Called by *egterg:
     h_psi        :    620.66s CPU    647.75s WALL (   18396 calls)
     s_psi        :     33.06s CPU     33.29s WALL (   18396 calls)
     g_psi        :      1.34s CPU      1.36s WALL (   12396 calls)
     cdiaghg      :    645.81s CPU    648.19s WALL (   17896 calls)

     Called by h_psi:
     h_psi:pot    :    616.85s CPU    643.90s WALL (   18396 calls)
     h_psi:calbec :     50.79s CPU     59.37s WALL (   18396 calls)
     vloc_psi     :    532.52s CPU    550.74s WALL (   18396 calls)
     add_vuspsi   :     33.39s CPU     33.68s WALL (   18396 calls)

     General routines
     calbec       :     78.17s CPU     91.46s WALL (   25396 calls)
     fft          :      0.39s CPU      0.42s WALL (     617 calls)
     ffts         :      0.07s CPU      0.23s WALL (      92 calls)
     fftw         :    623.65s CPU    644.83s WALL ( 4766428 calls)
     interpolate  :      0.07s CPU      0.14s WALL (      46 calls)
 
     Parallel routines
     fft_scatt_xy :     40.79s CPU     42.23s WALL ( 4767137 calls)
     fft_scatt_yz :    419.06s CPU    433.72s WALL ( 4767137 calls)
 
     PWSCF        : 28m32.74s CPU    30m16.62s WALL

 
   This run was terminated on:  14:55:44   2Nov2020            

=------------------------------------------------------------------------------=
   JOB DONE.
=------------------------------------------------------------------------------=
