--------------------------------------------------------------------------
WARNING: No preset parameters were found for the device that Open MPI
detected:

  Local host:            bear-pg0206u17a
  Device name:           mlx5_0
  Device vendor ID:      0x02c9
  Device vendor part ID: 4123

Default device parameters will be used, which may result in lower
performance.  You can edit any of the files specified by the
btl_openib_device_param_files MCA parameter to set values for your
device.

NOTE: You can turn off this warning by setting the MCA parameter
      btl_openib_warn_no_device_params_found to 0.
--------------------------------------------------------------------------
--------------------------------------------------------------------------
WARNING: There was an error initializing an OpenFabrics device.

  Local host:   bear-pg0206u17a
  Local device: mlx5_0
--------------------------------------------------------------------------

     Program PWSCF v.6.3 starts on 12Nov2020 at 17:10:52 

     This program is part of the open-source Quantum ESPRESSO suite
     for quantum simulation of materials; please cite
         "P. Giannozzi et al., J. Phys.:Condens. Matter 21 395502 (2009);
         "P. Giannozzi et al., J. Phys.:Condens. Matter 29 465901 (2017);
          URL http://www.quantum-espresso.org", 
     in publications or presentations arising from this work. More details at
     http://www.quantum-espresso.org/quote

     Parallel version (MPI & OpenMP), running on      40 processor cores
     Number of MPI processes:                40
     Threads/MPI process:                     1

     MPI processes distributed on     1 nodes
     R & G space division:  proc/nbgrp/npool/nimage =      40
     Reading input from wd/configs/1/config_0002.in
Warning: card &IONS ignored
Warning: card ION_DYNAMICS = 'BFGS', ignored
Warning: card / ignored
Warning: card &CELL ignored
Warning: card CELL_DYNAMICS = 'BFGS', ignored
Warning: card CELL_FACTOR = 2.0, ignored
Warning: card PRESS = 0.0, ignored
Warning: card / ignored

     Current dimensions of program PWSCF are:
     Max number of different atomic species (ntypx) = 10
     Max number of k-points (npk) =  40000
     Max angular momentum in pseudopotentials (lmaxx) =  3
               file Pd.pbe-spn-kjpaw_psl.1.0.0.UPF: wavefunction(s)  4S 5S 4D renormalized

     Subspace diagonalization in iterative solution of the eigenvalue problem:
     a serial algorithm will be used

 
     Parallelization info
     --------------------
     sticks:   dense  smooth     PW     G-vecs:    dense   smooth      PW
     Min         188     124     33                12336     6622     935
     Max         189     126     34                12341     6625     940
     Sum        7541    4997   1353               493479   264947   37561
 


     bravais-lattice index     =            0
     lattice parameter (alat)  =      14.8594  a.u.
     unit-cell volume          =    3280.9959 (a.u.)^3
     number of atoms/cell      =           32
     number of atomic types    =            1
     number of electrons       =       576.00
     number of Kohn-Sham states=          346
     kinetic-energy cutoff     =      71.0000  Ry
     charge density cutoff     =     430.0000  Ry
     convergence threshold     =      1.0E-06
     mixing beta               =       0.1000
     number of iterations used =           10  plain     mixing
     Exchange-correlation      = SLA PW PBX PBC ( 1  4  3  4 0 0)

     celldm(1)=  14.859421  celldm(2)=   0.000000  celldm(3)=   0.000000
     celldm(4)=   0.000000  celldm(5)=   0.000000  celldm(6)=   0.000000

     crystal axes: (cart. coord. in units of alat)
               a(1) = (   1.000000   0.000000   0.000000 )  
               a(2) = (   0.000000   1.000000   0.000000 )  
               a(3) = (   0.000000   0.000000   1.000000 )  

     reciprocal axes: (cart. coord. in units 2 pi/alat)
               b(1) = (  1.000000  0.000000  0.000000 )  
               b(2) = (  0.000000  1.000000  0.000000 )  
               b(3) = (  0.000000  0.000000  1.000000 )  


     PseudoPot. # 1 for Pd read from file:
     /rds/homes/b/bxp912/pp/Pd.pbe-spn-kjpaw_psl.1.0.0.UPF
     MD5 check sum: 790f2ebce206edfd9790dcb9844eca51
     Pseudo is Projector augmented-wave + core cor, Zval = 18.0
     Generated using "atomic" code by A. Dal Corso v.6.3
     Shape of augmentation charge: PSQ
     Using radial grid of 1235 points,  6 beta functions with: 
                l(1) =   0
                l(2) =   0
                l(3) =   1
                l(4) =   1
                l(5) =   2
                l(6) =   2
     Q(r) pseudized with 0 coefficients 


     atomic species   valence    mass     pseudopotential
        Pd            18.00   106.42000     Pd( 1.00)

     No symmetry found



   Cartesian axes

     site n.     atom                  positions (alat units)
         1           Pd  tau(   1) = (  -0.0007401  -0.0006534  -0.0005331  )
         2           Pd  tau(   2) = (   0.2494906   0.2489365  -0.0005284  )
         3           Pd  tau(   3) = (   0.2491361  -0.0006103   0.2499344  )
         4           Pd  tau(   4) = (  -0.0007141   0.2497766   0.2497046  )
         5           Pd  tau(   5) = (  -0.0001472  -0.0001548   0.4990824  )
         6           Pd  tau(   6) = (   0.2495725   0.2489829   0.4993344  )
         7           Pd  tau(   7) = (   0.2493841  -0.0003567   0.7490969  )
         8           Pd  tau(   8) = (  -0.0005601   0.2495606   0.7497589  )
         9           Pd  tau(   9) = (  -0.0001849   0.4995486  -0.0007047  )
        10           Pd  tau(  10) = (   0.2496140   0.7496892   0.0001602  )
        11           Pd  tau(  11) = (   0.2497157   0.4995508   0.2498430  )
        12           Pd  tau(  12) = (  -0.0005942   0.7494206   0.2493791  )
        13           Pd  tau(  13) = (  -0.0004466   0.4996480   0.4995305  )
        14           Pd  tau(  14) = (   0.2492531   0.7494570   0.4990611  )
        15           Pd  tau(  15) = (   0.2500188   0.4988941   0.7487022  )
        16           Pd  tau(  16) = (  -0.0013472   0.7487217   0.7493129  )
        17           Pd  tau(  17) = (   0.4997457  -0.0008794  -0.0007526  )
        18           Pd  tau(  18) = (   0.7491469   0.2495204  -0.0011522  )
        19           Pd  tau(  19) = (   0.7485776  -0.0008701   0.2494856  )
        20           Pd  tau(  20) = (   0.4992759   0.2492476   0.2489811  )
        21           Pd  tau(  21) = (   0.4991649  -0.0000709   0.4992707  )
        22           Pd  tau(  22) = (   0.7494675   0.2487018   0.4992289  )
        23           Pd  tau(  23) = (   0.7494005  -0.0008141   0.7493798  )
        24           Pd  tau(  24) = (   0.4993504   0.2490935   0.7493164  )
        25           Pd  tau(  25) = (   0.4990240   0.4995646  -0.0011236  )
        26           Pd  tau(  26) = (   0.7488591   0.7495281  -0.0001105  )
        27           Pd  tau(  27) = (   0.7495340   0.4989196   0.2492164  )
        28           Pd  tau(  28) = (   0.4995074   0.7488970   0.2497571  )
        29           Pd  tau(  29) = (   0.4986613   0.4995381   0.4994101  )
        30           Pd  tau(  30) = (   0.7496678   0.7493008   0.4990283  )
        31           Pd  tau(  31) = (   0.7492184   0.4993465   0.7496134  )
        32           Pd  tau(  32) = (   0.4993562   0.7492215   0.7491579  )

     number of k points=   365  Marzari-Vanderbilt smearing, width (Ry)=  0.0400

     Number of k-points >= 100: set verbosity='high' to print them.

     Dense  grid:   493479 G-vectors     FFT dimensions: ( 100, 100, 100)

     Smooth grid:   264947 G-vectors     FFT dimensions: (  80,  80,  80)

     Estimated max dynamical RAM per process >       1.72 GB

     Estimated total dynamical RAM >      68.84 GB

     Check: negative/imaginary core charge=   -0.000002    0.000000

     Initial potential from superposition of free atoms

     starting charge  575.98776, renormalised to  576.00000
     Starting wfcs are  320 randomized atomic wfcs +   26 random wfcs
     Checking if some PAW data can be deallocated... 

     total cpu time spent up to now is      143.2 secs

     Self-consistent Calculation

     iteration #  1     ecut=    71.00 Ry     beta= 0.10
     Davidson diagonalization with overlap
     ethr =  1.00E-02,  avg # of iterations =  3.1

     Threshold (ethr) on eigenvalues was too large:
     Diagonalizing with lowered threshold

     Davidson diagonalization with overlap
     ethr =  8.55E-05,  avg # of iterations =  3.2

     total cpu time spent up to now is     1913.5 secs

     total energy              =  -16385.02384347 Ry
     Harris-Foulkes estimate   =  -16385.09382573 Ry
     estimated scf accuracy    <       0.48692987 Ry

     iteration #  2     ecut=    71.00 Ry     beta= 0.10
     Davidson diagonalization with overlap
     ethr =  8.45E-05,  avg # of iterations =  1.0

     total cpu time spent up to now is     2387.1 secs

     total energy              =  -16384.93556208 Ry
     Harris-Foulkes estimate   =  -16385.03201564 Ry
     estimated scf accuracy    <       0.26477453 Ry

     iteration #  3     ecut=    71.00 Ry     beta= 0.10
     Davidson diagonalization with overlap
     ethr =  4.60E-05,  avg # of iterations =  2.1

     total cpu time spent up to now is     3070.0 secs

     total energy              =  -16384.96115980 Ry
     Harris-Foulkes estimate   =  -16384.97065420 Ry
     estimated scf accuracy    <       0.10340397 Ry

     iteration #  4     ecut=    71.00 Ry     beta= 0.10
     Davidson diagonalization with overlap
     ethr =  1.80E-05,  avg # of iterations =  1.6

     total cpu time spent up to now is     3620.7 secs

     total energy              =  -16384.96389063 Ry
     Harris-Foulkes estimate   =  -16384.96581128 Ry
     estimated scf accuracy    <       0.02373915 Ry

     iteration #  5     ecut=    71.00 Ry     beta= 0.10
     Davidson diagonalization with overlap
     c_bands:  1 eigenvalues not converged
     ethr =  4.12E-06,  avg # of iterations =  1.5

     total cpu time spent up to now is     4151.9 secs

     total energy              =  -16384.95812835 Ry
     Harris-Foulkes estimate   =  -16384.96414628 Ry
     estimated scf accuracy    <       0.01649079 Ry

     iteration #  6     ecut=    71.00 Ry     beta= 0.10
     Davidson diagonalization with overlap
     ethr =  2.86E-06,  avg # of iterations =  1.0

     total cpu time spent up to now is     4628.6 secs

     total energy              =  -16384.95890703 Ry
     Harris-Foulkes estimate   =  -16384.95906280 Ry
     estimated scf accuracy    <       0.00130279 Ry

     iteration #  7     ecut=    71.00 Ry     beta= 0.10
     Davidson diagonalization with overlap
     ethr =  2.26E-07,  avg # of iterations =  3.1

     total cpu time spent up to now is     5419.7 secs

     total energy              =  -16384.95906759 Ry
     Harris-Foulkes estimate   =  -16384.95911179 Ry
     estimated scf accuracy    <       0.00069058 Ry

     iteration #  8     ecut=    71.00 Ry     beta= 0.10
     Davidson diagonalization with overlap
     ethr =  1.20E-07,  avg # of iterations =  1.1

     total cpu time spent up to now is     5904.8 secs

     total energy              =  -16384.95909318 Ry
     Harris-Foulkes estimate   =  -16384.95909530 Ry
     estimated scf accuracy    <       0.00006079 Ry

     iteration #  9     ecut=    71.00 Ry     beta= 0.10
     Davidson diagonalization with overlap
     ethr =  1.06E-08,  avg # of iterations =  1.0

     total cpu time spent up to now is     6374.4 secs

     total energy              =  -16384.95908832 Ry
     Harris-Foulkes estimate   =  -16384.95909379 Ry
     estimated scf accuracy    <       0.00004731 Ry

     iteration # 10     ecut=    71.00 Ry     beta= 0.10
     Davidson diagonalization with overlap
     ethr =  8.21E-09,  avg # of iterations =  1.0

     total cpu time spent up to now is     6845.4 secs

     total energy              =  -16384.95909489 Ry
     Harris-Foulkes estimate   =  -16384.95909103 Ry
     estimated scf accuracy    <       0.00001389 Ry

     iteration # 11     ecut=    71.00 Ry     beta= 0.10
     Davidson diagonalization with overlap
     ethr =  2.41E-09,  avg # of iterations =  3.0

     total cpu time spent up to now is     7619.7 secs

     total energy              =  -16384.95909849 Ry
     Harris-Foulkes estimate   =  -16384.95909644 Ry
     estimated scf accuracy    <       0.00000430 Ry

     iteration # 12     ecut=    71.00 Ry     beta= 0.10
     Davidson diagonalization with overlap
     ethr =  7.47E-10,  avg # of iterations =  1.0

     total cpu time spent up to now is     8092.6 secs

     End of self-consistent calculation

     Number of k-points >= 100: set verbosity='high' to print the bands.

     the Fermi energy is    19.1934 ev

!    total energy              =  -16384.95910765 Ry
     Harris-Foulkes estimate   =  -16384.95909867 Ry
     estimated scf accuracy    <       0.00000079 Ry

     total all-electron energy =   -322945.812815 Ry

     The total energy is the sum of the following terms:

     one-electron contribution =   -2498.01755775 Ry
     hartree contribution      =    1664.92542977 Ry
     xc contribution           =    -986.43556467 Ry
     ewald contribution        =   -6398.04291865 Ry
     one-center paw contrib.   =   -8167.42271207 Ry
     smearing contrib. (-TS)   =       0.03421572 Ry

     convergence has been achieved in  12 iterations

     Forces acting on atoms (cartesian axes, Ry/au):

     atom    1 type  1   force =     0.00012899   -0.00021281    0.00009289
     atom    2 type  1   force =    -0.00032620    0.00082763    0.00040068
     atom    3 type  1   force =     0.00053407    0.00039024   -0.00188861
     atom    4 type  1   force =    -0.00009006   -0.00042272   -0.00136712
     atom    5 type  1   force =    -0.00157868   -0.00118147    0.00103318
     atom    6 type  1   force =    -0.00059900    0.00129840   -0.00029977
     atom    7 type  1   force =    -0.00057782   -0.00198555    0.00124419
     atom    8 type  1   force =    -0.00020774   -0.00008371   -0.00059085
     atom    9 type  1   force =     0.00018576   -0.00019423    0.00031800
     atom   10 type  1   force =    -0.00079282   -0.00046497   -0.00252219
     atom   11 type  1   force =    -0.00066148   -0.00110473   -0.00159406
     atom   12 type  1   force =    -0.00063588   -0.00017538   -0.00045089
     atom   13 type  1   force =    -0.00081294   -0.00127677   -0.00004831
     atom   14 type  1   force =    -0.00001507    0.00036132    0.00166575
     atom   15 type  1   force =    -0.00170422    0.00163596    0.00200693
     atom   16 type  1   force =     0.00240270    0.00143179    0.00070233
     atom   17 type  1   force =    -0.00152232    0.00013753    0.00029058
     atom   18 type  1   force =     0.00062180   -0.00020062    0.00140704
     atom   19 type  1   force =     0.00191552    0.00088238   -0.00037073
     atom   20 type  1   force =     0.00032912    0.00096989    0.00016773
     atom   21 type  1   force =     0.00073865   -0.00181071    0.00039710
     atom   22 type  1   force =    -0.00030944    0.00221110    0.00034823
     atom   23 type  1   force =     0.00043825    0.00007456   -0.00050942
     atom   24 type  1   force =     0.00067398    0.00067279   -0.00005610
     atom   25 type  1   force =     0.00001606   -0.00070547    0.00111653
     atom   26 type  1   force =     0.00125750   -0.00075666   -0.00056515
     atom   27 type  1   force =    -0.00067666    0.00025381    0.00058348
     atom   28 type  1   force =     0.00005814    0.00050469   -0.00028880
     atom   29 type  1   force =     0.00282541   -0.00114258   -0.00027319
     atom   30 type  1   force =    -0.00088382   -0.00020428    0.00045533
     atom   31 type  1   force =    -0.00016721   -0.00031711   -0.00130328
     atom   32 type  1   force =    -0.00056458    0.00058767   -0.00010149

     Total force =     0.009747     Total SCF correction =     0.007311
     SCF correction compared to forces is large: reduce conv_thr to get better values


     Computing stress (Cartesian axis) and pressure

          total   stress  (Ry/bohr**3)                   (kbar)     P=   -5.18
  -0.00003535  -0.00000033  -0.00000015         -5.20     -0.05     -0.02
  -0.00000033  -0.00003502   0.00000024         -0.05     -5.15      0.03
  -0.00000015   0.00000024  -0.00003529         -0.02      0.03     -5.19


     Writing output data file qLuiIIoKkCCXuUCF.save/
-------------------------------------------------------
Primary job  terminated normally, but 1 process returned
a non-zero exit code.. Per user-direction, the job has been aborted.
-------------------------------------------------------
--------------------------------------------------------------------------
mpirun detected that one or more processes exited with non-zero status, thus causing
the job to be terminated. The first process to do so was:

  Process name: [[44996,1],0]
  Exit code:    38
--------------------------------------------------------------------------
