--------------------------------------------------------------------------
WARNING: No preset parameters were found for the device that Open MPI
detected:

  Local host:            bear-pg0206u14b
  Device name:           mlx5_0
  Device vendor ID:      0x02c9
  Device vendor part ID: 4123

Default device parameters will be used, which may result in lower
performance.  You can edit any of the files specified by the
btl_openib_device_param_files MCA parameter to set values for your
device.

NOTE: You can turn off this warning by setting the MCA parameter
      btl_openib_warn_no_device_params_found to 0.
--------------------------------------------------------------------------
--------------------------------------------------------------------------
WARNING: There was an error initializing an OpenFabrics device.

  Local host:   bear-pg0206u14b
  Local device: mlx5_0
--------------------------------------------------------------------------

     Program PWSCF v.6.3 starts on 11Nov2020 at 10:38:32 

     This program is part of the open-source Quantum ESPRESSO suite
     for quantum simulation of materials; please cite
         "P. Giannozzi et al., J. Phys.:Condens. Matter 21 395502 (2009);
         "P. Giannozzi et al., J. Phys.:Condens. Matter 29 465901 (2017);
          URL http://www.quantum-espresso.org", 
     in publications or presentations arising from this work. More details at
     http://www.quantum-espresso.org/quote

     Parallel version (MPI & OpenMP), running on      20 processor cores
     Number of MPI processes:                20
     Threads/MPI process:                     1

     MPI processes distributed on     1 nodes
     R & G space division:  proc/nbgrp/npool/nimage =      20
     Reading input from wd/ec/ec_1_003.in
Warning: card &IONS ignored
Warning: card ION_DYNAMICS = 'BFGS', ignored
Warning: card / ignored
Warning: card &CELL ignored
Warning: card CELL_DYNAMICS = 'BFGS', ignored
Warning: card CELL_FACTOR = 2.0, ignored
Warning: card PRESS = 0.0, ignored
Warning: card / ignored

     Current dimensions of program PWSCF are:
     Max number of different atomic species (ntypx) = 10
     Max number of k-points (npk) =  40000
     Max angular momentum in pseudopotentials (lmaxx) =  3
               file Pd.pbe-spn-kjpaw_psl.1.0.0.UPF: wavefunction(s)  4S 5S 4D renormalized

     Subspace diagonalization in iterative solution of the eigenvalue problem:
     a serial algorithm will be used

 
     Parallelization info
     --------------------
     sticks:   dense  smooth     PW     G-vecs:    dense   smooth      PW
     Min         377     249     67                24631    13217    1873
     Max         378     250     68                24633    13219    1878
     Sum        7543    4985   1353               492643   264363   37537
 


     bravais-lattice index     =            0
     lattice parameter (alat)  =      14.8394  a.u.
     unit-cell volume          =    3273.2109 (a.u.)^3
     number of atoms/cell      =           32
     number of atomic types    =            1
     number of electrons       =       576.00
     number of Kohn-Sham states=          346
     kinetic-energy cutoff     =      71.0000  Ry
     charge density cutoff     =     430.0000  Ry
     convergence threshold     =      1.0E-06
     mixing beta               =       0.1000
     number of iterations used =           10  plain     mixing
     Exchange-correlation      = SLA PW PBX PBC ( 1  4  3  4 0 0)

     celldm(1)=  14.839420  celldm(2)=   0.000000  celldm(3)=   0.000000
     celldm(4)=   0.000000  celldm(5)=   0.000000  celldm(6)=   0.000000

     crystal axes: (cart. coord. in units of alat)
               a(1) = (   1.001667   0.000000   0.000000 )  
               a(2) = (   0.000000   1.000000   0.000000 )  
               a(3) = (   0.000000   0.000000   1.000000 )  

     reciprocal axes: (cart. coord. in units 2 pi/alat)
               b(1) = (  0.998336  0.000000  0.000000 )  
               b(2) = (  0.000000  1.000000  0.000000 )  
               b(3) = (  0.000000  0.000000  1.000000 )  


     PseudoPot. # 1 for Pd read from file:
     /rds/homes/b/bxp912/pp/Pd.pbe-spn-kjpaw_psl.1.0.0.UPF
     MD5 check sum: 790f2ebce206edfd9790dcb9844eca51
     Pseudo is Projector augmented-wave + core cor, Zval = 18.0
     Generated using "atomic" code by A. Dal Corso v.6.3
     Shape of augmentation charge: PSQ
     Using radial grid of 1235 points,  6 beta functions with: 
                l(1) =   0
                l(2) =   0
                l(3) =   1
                l(4) =   1
                l(5) =   2
                l(6) =   2
     Q(r) pseudized with 0 coefficients 


     atomic species   valence    mass     pseudopotential
        Pd            18.00   106.42000     Pd( 1.00)

     16 Sym. Ops., with inversion, found



   Cartesian axes

     site n.     atom                  positions (alat units)
         1           Pd  tau(   1) = (   0.0000000   0.0000000   0.0000000  )
         2           Pd  tau(   2) = (   0.2504211   0.2500045   0.0000000  )
         3           Pd  tau(   3) = (   0.2504211   0.0000000   0.2500040  )
         4           Pd  tau(   4) = (   0.0000000   0.2500045   0.2500040  )
         5           Pd  tau(   5) = (   0.0000000   0.0000000   0.4999990  )
         6           Pd  tau(   6) = (   0.2504283   0.2500116   0.4999990  )
         7           Pd  tau(   7) = (   0.2504211   0.0000000   0.7499950  )
         8           Pd  tau(   8) = (   0.0000000   0.2500045   0.7499950  )
         9           Pd  tau(   9) = (   0.0000000   0.4999998   0.0000000  )
        10           Pd  tau(  10) = (   0.2504211   0.7499952   0.0000000  )
        11           Pd  tau(  11) = (   0.2504283   0.4999998   0.2500109  )
        12           Pd  tau(  12) = (   0.0000000   0.7499952   0.2500040  )
        13           Pd  tau(  13) = (   0.0000000   0.4999998   0.4999990  )
        14           Pd  tau(  14) = (   0.2504283   0.7499881   0.4999990  )
        15           Pd  tau(  15) = (   0.2504283   0.4999998   0.7499881  )
        16           Pd  tau(  16) = (   0.0000000   0.7499952   0.7499950  )
        17           Pd  tau(  17) = (   0.5008331   0.0000000   0.0000000  )
        18           Pd  tau(  18) = (   0.7512452   0.2500045   0.0000000  )
        19           Pd  tau(  19) = (   0.7512452   0.0000000   0.2500040  )
        20           Pd  tau(  20) = (   0.5008331   0.2500116   0.2500109  )
        21           Pd  tau(  21) = (   0.5008331   0.0000000   0.4999990  )
        22           Pd  tau(  22) = (   0.7512381   0.2500116   0.4999990  )
        23           Pd  tau(  23) = (   0.7512452   0.0000000   0.7499950  )
        24           Pd  tau(  24) = (   0.5008331   0.2500116   0.7499881  )
        25           Pd  tau(  25) = (   0.5008331   0.4999998   0.0000000  )
        26           Pd  tau(  26) = (   0.7512452   0.7499952   0.0000000  )
        27           Pd  tau(  27) = (   0.7512381   0.4999998   0.2500109  )
        28           Pd  tau(  28) = (   0.5008331   0.7499881   0.2500109  )
        29           Pd  tau(  29) = (   0.5008331   0.4999998   0.4999990  )
        30           Pd  tau(  30) = (   0.7512381   0.7499881   0.4999990  )
        31           Pd  tau(  31) = (   0.7512381   0.4999998   0.7499881  )
        32           Pd  tau(  32) = (   0.5008331   0.7499881   0.7499881  )

     number of k points=    75  Marzari-Vanderbilt smearing, width (Ry)=  0.0400
                       cart. coord. in units 2pi/alat
        k(    1) = (   0.0554631   0.0555556   0.0555556), wk =   0.0219479
        k(    2) = (   0.0554631   0.0555556   0.1666667), wk =   0.0438957
        k(    3) = (   0.0554631   0.0555556   0.2777778), wk =   0.0438957
        k(    4) = (   0.0554631   0.0555556   0.3888889), wk =   0.0438957
        k(    5) = (   0.0554631   0.0555556  -0.5000000), wk =   0.0219479
        k(    6) = (   0.0554631   0.1666667   0.1666667), wk =   0.0219479
        k(    7) = (   0.0554631   0.1666667   0.2777778), wk =   0.0438957
        k(    8) = (   0.0554631   0.1666667   0.3888889), wk =   0.0438957
        k(    9) = (   0.0554631   0.1666667  -0.5000000), wk =   0.0219479
        k(   10) = (   0.0554631   0.2777778   0.2777778), wk =   0.0219479
        k(   11) = (   0.0554631   0.2777778   0.3888889), wk =   0.0438957
        k(   12) = (   0.0554631   0.2777778  -0.5000000), wk =   0.0219479
        k(   13) = (   0.0554631   0.3888889   0.3888889), wk =   0.0219479
        k(   14) = (   0.0554631   0.3888889  -0.5000000), wk =   0.0219479
        k(   15) = (   0.0554631  -0.5000000  -0.5000000), wk =   0.0054870
        k(   16) = (   0.1663894   0.0555556   0.0555556), wk =   0.0219479
        k(   17) = (   0.1663894   0.0555556   0.1666667), wk =   0.0438957
        k(   18) = (   0.1663894   0.0555556   0.2777778), wk =   0.0438957
        k(   19) = (   0.1663894   0.0555556   0.3888889), wk =   0.0438957
        k(   20) = (   0.1663894   0.0555556  -0.5000000), wk =   0.0219479
        k(   21) = (   0.1663894   0.1666667   0.1666667), wk =   0.0219479
        k(   22) = (   0.1663894   0.1666667   0.2777778), wk =   0.0438957
        k(   23) = (   0.1663894   0.1666667   0.3888889), wk =   0.0438957
        k(   24) = (   0.1663894   0.1666667  -0.5000000), wk =   0.0219479
        k(   25) = (   0.1663894   0.2777778   0.2777778), wk =   0.0219479
        k(   26) = (   0.1663894   0.2777778   0.3888889), wk =   0.0438957
        k(   27) = (   0.1663894   0.2777778  -0.5000000), wk =   0.0219479
        k(   28) = (   0.1663894   0.3888889   0.3888889), wk =   0.0219479
        k(   29) = (   0.1663894   0.3888889  -0.5000000), wk =   0.0219479
        k(   30) = (   0.1663894  -0.5000000  -0.5000000), wk =   0.0054870
        k(   31) = (   0.2773156   0.0555556   0.0555556), wk =   0.0219479
        k(   32) = (   0.2773156   0.0555556   0.1666667), wk =   0.0438957
        k(   33) = (   0.2773156   0.0555556   0.2777778), wk =   0.0438957
        k(   34) = (   0.2773156   0.0555556   0.3888889), wk =   0.0438957
        k(   35) = (   0.2773156   0.0555556  -0.5000000), wk =   0.0219479
        k(   36) = (   0.2773156   0.1666667   0.1666667), wk =   0.0219479
        k(   37) = (   0.2773156   0.1666667   0.2777778), wk =   0.0438957
        k(   38) = (   0.2773156   0.1666667   0.3888889), wk =   0.0438957
        k(   39) = (   0.2773156   0.1666667  -0.5000000), wk =   0.0219479
        k(   40) = (   0.2773156   0.2777778   0.2777778), wk =   0.0219479
        k(   41) = (   0.2773156   0.2777778   0.3888889), wk =   0.0438957
        k(   42) = (   0.2773156   0.2777778  -0.5000000), wk =   0.0219479
        k(   43) = (   0.2773156   0.3888889   0.3888889), wk =   0.0219479
        k(   44) = (   0.2773156   0.3888889  -0.5000000), wk =   0.0219479
        k(   45) = (   0.2773156  -0.5000000  -0.5000000), wk =   0.0054870
        k(   46) = (   0.3882418   0.0555556   0.0555556), wk =   0.0219479
        k(   47) = (   0.3882418   0.0555556   0.1666667), wk =   0.0438957
        k(   48) = (   0.3882418   0.0555556   0.2777778), wk =   0.0438957
        k(   49) = (   0.3882418   0.0555556   0.3888889), wk =   0.0438957
        k(   50) = (   0.3882418   0.0555556  -0.5000000), wk =   0.0219479
        k(   51) = (   0.3882418   0.1666667   0.1666667), wk =   0.0219479
        k(   52) = (   0.3882418   0.1666667   0.2777778), wk =   0.0438957
        k(   53) = (   0.3882418   0.1666667   0.3888889), wk =   0.0438957
        k(   54) = (   0.3882418   0.1666667  -0.5000000), wk =   0.0219479
        k(   55) = (   0.3882418   0.2777778   0.2777778), wk =   0.0219479
        k(   56) = (   0.3882418   0.2777778   0.3888889), wk =   0.0438957
        k(   57) = (   0.3882418   0.2777778  -0.5000000), wk =   0.0219479
        k(   58) = (   0.3882418   0.3888889   0.3888889), wk =   0.0219479
        k(   59) = (   0.3882418   0.3888889  -0.5000000), wk =   0.0219479
        k(   60) = (   0.3882418  -0.5000000  -0.5000000), wk =   0.0054870
        k(   61) = (  -0.4991681   0.0555556   0.0555556), wk =   0.0109739
        k(   62) = (  -0.4991681   0.0555556   0.1666667), wk =   0.0219479
        k(   63) = (  -0.4991681   0.0555556   0.2777778), wk =   0.0219479
        k(   64) = (  -0.4991681   0.0555556   0.3888889), wk =   0.0219479
        k(   65) = (  -0.4991681   0.0555556  -0.5000000), wk =   0.0109739
        k(   66) = (  -0.4991681   0.1666667   0.1666667), wk =   0.0109739
        k(   67) = (  -0.4991681   0.1666667   0.2777778), wk =   0.0219479
        k(   68) = (  -0.4991681   0.1666667   0.3888889), wk =   0.0219479
        k(   69) = (  -0.4991681   0.1666667  -0.5000000), wk =   0.0109739
        k(   70) = (  -0.4991681   0.2777778   0.2777778), wk =   0.0109739
        k(   71) = (  -0.4991681   0.2777778   0.3888889), wk =   0.0219479
        k(   72) = (  -0.4991681   0.2777778  -0.5000000), wk =   0.0109739
        k(   73) = (  -0.4991681   0.3888889   0.3888889), wk =   0.0109739
        k(   74) = (  -0.4991681   0.3888889  -0.5000000), wk =   0.0109739
        k(   75) = (  -0.4991681  -0.5000000  -0.5000000), wk =   0.0027435

     Dense  grid:   492643 G-vectors     FFT dimensions: ( 100, 100, 100)

     Smooth grid:   264363 G-vectors     FFT dimensions: (  80,  80,  80)

     Estimated max dynamical RAM per process >     892.25 MB

     Estimated total dynamical RAM >      17.43 GB

     Check: negative/imaginary core charge=   -0.000002    0.000000

     Initial potential from superposition of free atoms

     starting charge  575.98776, renormalised to  576.00000
     Starting wfcs are  320 randomized atomic wfcs +   26 random wfcs
     Checking if some PAW data can be deallocated... 

     total cpu time spent up to now is       44.2 secs

     Self-consistent Calculation

     iteration #  1     ecut=    71.00 Ry     beta= 0.10
     Davidson diagonalization with overlap
     ethr =  1.00E-02,  avg # of iterations =  3.1

     Threshold (ethr) on eigenvalues was too large:
     Diagonalizing with lowered threshold

     Davidson diagonalization with overlap
     ethr =  8.40E-05,  avg # of iterations =  3.0

     total cpu time spent up to now is      479.8 secs

     total energy              =  -16385.02127290 Ry
     Harris-Foulkes estimate   =  -16385.08936392 Ry
     estimated scf accuracy    <       0.47779571 Ry

     iteration #  2     ecut=    71.00 Ry     beta= 0.10
     Davidson diagonalization with overlap
     ethr =  8.30E-05,  avg # of iterations =  1.0

     total cpu time spent up to now is      613.0 secs

     total energy              =  -16384.92821612 Ry
     Harris-Foulkes estimate   =  -16385.02904825 Ry
     estimated scf accuracy    <       0.25978028 Ry

     iteration #  3     ecut=    71.00 Ry     beta= 0.10
     Davidson diagonalization with overlap
     ethr =  4.51E-05,  avg # of iterations =  2.1

     total cpu time spent up to now is      797.0 secs

     total energy              =  -16384.96255799 Ry
     Harris-Foulkes estimate   =  -16384.96693233 Ry
     estimated scf accuracy    <       0.06090959 Ry

     iteration #  4     ecut=    71.00 Ry     beta= 0.10
     Davidson diagonalization with overlap
     ethr =  1.06E-05,  avg # of iterations =  1.9

     total cpu time spent up to now is      953.3 secs

     total energy              =  -16384.96235859 Ry
     Harris-Foulkes estimate   =  -16384.96472777 Ry
     estimated scf accuracy    <       0.02182718 Ry

     iteration #  5     ecut=    71.00 Ry     beta= 0.10
     Davidson diagonalization with overlap
     ethr =  3.79E-06,  avg # of iterations =  1.2

     total cpu time spent up to now is     1091.0 secs

     total energy              =  -16384.95757482 Ry
     Harris-Foulkes estimate   =  -16384.96255752 Ry
     estimated scf accuracy    <       0.01433648 Ry

     iteration #  6     ecut=    71.00 Ry     beta= 0.10
     Davidson diagonalization with overlap
     ethr =  2.49E-06,  avg # of iterations =  1.0

     total cpu time spent up to now is     1224.3 secs

     total energy              =  -16384.95858496 Ry
     Harris-Foulkes estimate   =  -16384.95861738 Ry
     estimated scf accuracy    <       0.00026292 Ry

     iteration #  7     ecut=    71.00 Ry     beta= 0.10
     Davidson diagonalization with overlap
     ethr =  4.56E-08,  avg # of iterations =  3.1

     total cpu time spent up to now is     1466.4 secs

     total energy              =  -16384.95866406 Ry
     Harris-Foulkes estimate   =  -16384.95868320 Ry
     estimated scf accuracy    <       0.00023830 Ry

     iteration #  8     ecut=    71.00 Ry     beta= 0.10
     Davidson diagonalization with overlap
     ethr =  4.14E-08,  avg # of iterations =  1.4

     total cpu time spent up to now is     1612.7 secs

     total energy              =  -16384.95866851 Ry
     Harris-Foulkes estimate   =  -16384.95867145 Ry
     estimated scf accuracy    <       0.00005168 Ry

     iteration #  9     ecut=    71.00 Ry     beta= 0.10
     Davidson diagonalization with overlap
     ethr =  8.97E-09,  avg # of iterations =  1.0

     total cpu time spent up to now is     1747.6 secs

     total energy              =  -16384.95866922 Ry
     Harris-Foulkes estimate   =  -16384.95866973 Ry
     estimated scf accuracy    <       0.00003309 Ry

     iteration # 10     ecut=    71.00 Ry     beta= 0.10
     Davidson diagonalization with overlap
     ethr =  5.74E-09,  avg # of iterations =  2.0

     total cpu time spent up to now is     1938.2 secs

     total energy              =  -16384.95867589 Ry
     Harris-Foulkes estimate   =  -16384.95867307 Ry
     estimated scf accuracy    <       0.00000352 Ry

     iteration # 11     ecut=    71.00 Ry     beta= 0.10
     Davidson diagonalization with overlap
     ethr =  6.11E-10,  avg # of iterations =  1.0

     total cpu time spent up to now is     2073.9 secs

     End of self-consistent calculation

          k = 0.0555 0.0556 0.0556 ( 33044 PWs)   bands (ev):

   -64.9082 -64.8794 -64.8792 -64.8792 -64.8739 -64.8737 -64.8737 -64.8636
   -64.8635 -64.8634 -64.8612 -64.8609 -64.8607 -64.8606 -64.8605 -64.8605
   -64.8604 -64.8602 -64.8602 -64.8597 -64.8580 -64.8579 -64.8578 -64.8457
   -64.8450 -64.8450 -64.8448 -64.8447 -64.8446 -64.8446 -64.8445 -64.8441
   -30.7916 -30.7916 -30.7915 -30.7898 -30.7714 -30.7714 -30.7708 -30.6946
   -30.6935 -30.6934 -30.6903 -30.6903 -30.6892 -30.6891 -30.6891 -30.6890
   -30.6825 -30.6813 -30.6813 -30.6771 -30.6770 -30.6763 -30.6762 -30.6761
   -30.6760 -30.6586 -30.6586 -30.6576 -30.6576 -30.6575 -30.6574 -30.6172
   -30.6172 -30.6168 -30.5929 -30.5929 -30.5925 -30.5869 -30.5869 -30.5865
   -30.5776 -30.5776 -30.5775 -30.5774 -30.5771 -30.5770 -30.5626 -30.5626
   -30.5623 -30.5622 -30.5620 -30.5617 -30.5617 -30.5615 -30.5613 -30.5610
   -30.5610 -30.5602 -30.5595 -30.5594 -30.5587 -30.4969 -30.4969 -30.4960
   -30.4960 -30.4959 -30.4958 -30.4845 -30.4845 -30.4837 -30.4837 -30.4837
   -30.4835 -30.4807 -30.4807 -30.4800 -30.4767 -30.4761 -30.4760 -30.4756
   -30.4755 -30.4754 -30.4751 -30.4750 -30.4750 -30.4748 -30.4748 -30.4744
   -30.4744 -30.4734 -30.4685 -30.4685 -30.4679 -30.4229 -30.4206 -30.4205
    12.2635  14.0212  14.0213  14.0213  14.0889  14.1026  14.1026  14.1026
    14.2872  14.2928  14.2929  14.2957  14.2958  14.2958  14.4825  14.4880
    14.4881  15.0286  15.0286  15.0342  15.0342  15.0343  15.0344  15.1820
    15.1876  15.1876  15.3344  15.3347  15.3348  15.3673  15.3741  15.3742
    15.4166  15.4166  15.4174  15.4175  15.4176  15.4177  15.4183  15.4198
    15.4199  15.7581  15.7581  15.7616  15.7616  15.7628  15.7628  15.8641
    15.8697  15.8697  15.8858  15.8858  15.8915  15.8915  15.8922  15.8923
    15.9423  15.9487  15.9488  16.1127  16.1127  16.1166  16.1166  16.1182
    16.1183  16.2202  16.2202  16.2237  16.2248  16.2249  16.2250  16.2250
    16.2274  16.2274  16.3329  16.3329  16.3337  16.3903  16.3994  16.3995
    16.4111  16.4254  16.4267  16.4267  16.4360  16.4439  16.4639  16.4710
    17.2558  17.2642  17.2642  17.3207  17.3208  17.3244  17.3932  17.3933
    17.3937  17.3938  17.3966  17.3966  17.3996  17.3997  17.4024  17.4425
    17.4516  17.4517  17.5495  17.5495  17.5556  17.6693  17.6694  17.6711
    17.7930  17.7931  17.7986  17.8506  17.8507  17.8556  17.9245  17.9245
    17.9260  17.9261  17.9262  17.9263  17.9443  17.9444  17.9450  17.9843
    17.9983  17.9983  17.9986  17.9986  18.0001  18.0028  18.0029  18.1074
    18.1074  18.1117  18.4929  18.4930  18.4999  18.5947  18.5948  18.6007
    18.9776  18.9776  18.9822  19.1025  19.1025  19.1033  19.1263  19.1328
    19.1464  19.1514  19.1514  19.3783  19.3794  19.3794  19.4304  19.4304
    19.4308  19.4308  19.4359  19.4372  19.4373  19.4391  19.4391  20.1048
    20.4101  20.4102  20.4102  20.9273  20.9274  20.9368  21.4360  21.4361
    21.4366  21.4367  21.4477  21.4477  21.9645  21.9646  21.9775  22.5323
    22.5637  22.5637  26.2974  26.2974  26.2976  26.4542  27.4355  27.4356
    27.4500  27.4500  27.4645  27.4645  28.1275  28.1275  28.1411  28.1411
    28.1566  28.1567  29.5424  29.5424  29.5484  29.5484  29.5624  29.5624
    29.6842  29.7282  29.7282  30.6566  30.7040  30.7041  30.7091  30.7091
    30.7200  30.7201

          k = 0.0555 0.0556 0.1667 ( 33037 PWs)   bands (ev):

   -64.9072 -64.8847 -64.8789 -64.8787 -64.8735 -64.8732 -64.8682 -64.8665
   -64.8664 -64.8635 -64.8630 -64.8629 -64.8613 -64.8612 -64.8605 -64.8603
   -64.8599 -64.8597 -64.8579 -64.8575 -64.8574 -64.8555 -64.8554 -64.8458
   -64.8457 -64.8453 -64.8452 -64.8451 -64.8451 -64.8449 -64.8447 -64.8441
   -30.7889 -30.7872 -30.7871 -30.7840 -30.7681 -30.7676 -30.7662 -30.7050
   -30.6998 -30.6997 -30.6964 -30.6955 -30.6954 -30.6944 -30.6942 -30.6939
   -30.6918 -30.6835 -30.6823 -30.6806 -30.6799 -30.6758 -30.6748 -30.6724
   -30.6711 -30.6613 -30.6605 -30.6552 -30.6541 -30.6469 -30.6396 -30.6395
   -30.6221 -30.6215 -30.6081 -30.6075 -30.5930 -30.5926 -30.5925 -30.5918
   -30.5809 -30.5670 -30.5668 -30.5647 -30.5640 -30.5621 -30.5619 -30.5618
   -30.5613 -30.5596 -30.5595 -30.5582 -30.5573 -30.5567 -30.5564 -30.5559
   -30.5557 -30.5553 -30.5528 -30.5477 -30.5474 -30.5091 -30.5080 -30.4988
   -30.4987 -30.4939 -30.4930 -30.4882 -30.4874 -30.4864 -30.4863 -30.4849
   -30.4842 -30.4821 -30.4810 -30.4806 -30.4803 -30.4799 -30.4794 -30.4762
   -30.4762 -30.4757 -30.4756 -30.4753 -30.4747 -30.4730 -30.4728 -30.4724
   -30.4722 -30.4716 -30.4686 -30.4639 -30.4634 -30.4293 -30.4226 -30.4219
    12.3369  13.9939  14.0557  14.0676  14.0676  14.1168  14.1441  14.1441
    14.1575  14.3236  14.3378  14.3380  14.3387  14.3441  14.5346  14.5400
    14.5573  14.9482  14.9485  15.0093  15.0637  15.0690  15.0703  15.0757
    15.1034  15.1844  15.1845  15.2083  15.2135  15.2239  15.2297  15.2301
    15.3763  15.3765  15.3894  15.3957  15.4055  15.4075  15.4411  15.4449
    15.4886  15.4899  15.5636  15.7477  15.7492  15.7610  15.7646  15.8064
    15.8102  15.8159  15.8200  15.8745  15.8805  15.9632  15.9671  15.9828
    16.0281  16.0298  16.0764  16.0771  16.0807  16.0854  16.0870  16.1173
    16.1215  16.1646  16.1667  16.1934  16.1950  16.3598  16.3707  16.3750
    16.3752  16.3818  16.3948  16.3957  16.4140  16.4199  16.4399  16.4413
    16.4511  16.4579  16.4691  16.4695  16.4883  16.4999  16.5018  16.5064
    17.0667  17.0712  17.1800  17.1892  17.2023  17.2077  17.2599  17.2600
    17.2778  17.3226  17.3458  17.3493  17.4651  17.4757  17.4788  17.4896
    17.4914  17.5281  17.5300  17.5375  17.5413  17.7483  17.7528  17.7710
    17.7754  17.7796  17.8422  17.8423  17.9209  17.9224  17.9302  17.9312
    17.9318  17.9347  17.9547  18.0053  18.0092  18.0221  18.0226  18.0471
    18.1392  18.1402  18.1466  18.1469  18.1826  18.1860  18.2377  18.2551
    18.2587  18.2895  18.3945  18.5385  18.5445  18.6649  18.6678  18.6721
    18.6974  18.7148  18.7192  18.9297  19.0414  19.0417  19.0643  19.0791
    19.1207  19.1238  19.1259  19.1464  19.1530  19.3098  19.3597  19.3601
    19.3671  19.3680  19.3756  19.4286  19.4300  19.4310  19.4324  20.0948
    20.4644  20.4720  20.5794  20.5795  20.8099  20.8987  20.9469  20.9569
    21.4136  21.4142  21.9458  22.0040  22.0163  22.2013  22.5439  22.5579
    22.8243  22.8546  26.2963  26.4561  26.4568  26.7191  26.7405  26.7478
    26.7512  26.7539  27.3327  27.3466  27.5682  27.5829  28.2517  28.2659
    28.7666  28.7943  29.5860  29.6018  29.6707  29.7140  29.7208  29.8392
    29.8702  29.9216  29.9464  30.1308  30.1549  30.1826  30.2629  30.2643
    30.6792  30.7020

          k = 0.0555 0.0556 0.2778 ( 33038 PWs)   bands (ev):

   -64.9053 -64.8899 -64.8778 -64.8777 -64.8726 -64.8724 -64.8694 -64.8692
   -64.8654 -64.8653 -64.8634 -64.8630 -64.8618 -64.8612 -64.8605 -64.8603
   -64.8597 -64.8595 -64.8580 -64.8547 -64.8546 -64.8531 -64.8530 -64.8476
   -64.8463 -64.8462 -64.8461 -64.8459 -64.8456 -64.8450 -64.8447 -64.8441
   -30.7819 -30.7789 -30.7788 -30.7742 -30.7619 -30.7614 -30.7564 -30.7221
   -30.7164 -30.7163 -30.7114 -30.7110 -30.7082 -30.6979 -30.6971 -30.6957
   -30.6949 -30.6857 -30.6854 -30.6765 -30.6758 -30.6750 -30.6747 -30.6735
   -30.6620 -30.6612 -30.6603 -30.6590 -30.6493 -30.6482 -30.6305 -30.6298
   -30.6226 -30.6223 -30.6222 -30.6219 -30.6066 -30.6058 -30.6039 -30.6032
   -30.5711 -30.5707 -30.5626 -30.5616 -30.5609 -30.5599 -30.5584 -30.5553
   -30.5532 -30.5503 -30.5502 -30.5476 -30.5473 -30.5469 -30.5466 -30.5456
   -30.5455 -30.5375 -30.5335 -30.5333 -30.5277 -30.5208 -30.5195 -30.5041
   -30.5041 -30.4976 -30.4969 -30.4959 -30.4954 -30.4924 -30.4916 -30.4915
   -30.4888 -30.4882 -30.4879 -30.4877 -30.4819 -30.4802 -30.4773 -30.4763
   -30.4756 -30.4755 -30.4754 -30.4751 -30.4748 -30.4724 -30.4721 -30.4720
   -30.4690 -30.4619 -30.4614 -30.4607 -30.4600 -30.4405 -30.4268 -30.4258
    12.4820  13.6438  14.1218  14.1579  14.1579  14.1861  14.2265  14.2266
    14.2526  14.3786  14.4216  14.4221  14.4381  14.4432  14.5255  14.6355
    14.6405  14.8007  14.8010  14.8437  14.8565  14.9342  14.9342  14.9858
    15.0921  15.0935  15.1295  15.1338  15.1519  15.1569  15.1608  15.1638
    15.2604  15.2647  15.2764  15.2775  15.3879  15.3901  15.4327  15.4380
    15.5524  15.5545  15.6925  15.6942  15.7275  15.7298  15.7442  15.7462
    15.7502  15.7635  15.7671  15.7930  15.7938  15.9040  15.9067  15.9763
    15.9768  16.0301  16.0329  16.0344  16.1043  16.1066  16.1243  16.1288
    16.1314  16.1344  16.2019  16.2128  16.2138  16.3028  16.3348  16.3382
    16.3427  16.3944  16.3947  16.4029  16.4944  16.5258  16.5339  16.5455
    16.5521  16.5657  16.7093  16.7116  16.7277  16.7775  16.8625  16.8652
    16.9182  16.9255  16.9366  16.9402  17.0081  17.0877  17.0936  17.0937
    17.1110  17.1172  17.4180  17.4335  17.4361  17.5310  17.5337  17.5978
    17.5999  17.6138  17.6150  17.6720  17.6732  17.7026  17.7058  17.7662
    17.7694  17.8772  17.9084  17.9096  17.9099  17.9122  17.9329  17.9343
    17.9401  17.9403  18.0367  18.1375  18.1891  18.1897  18.2047  18.2048
    18.2150  18.2981  18.3021  18.3037  18.3444  18.3448  18.3458  18.3475
    18.3927  18.3945  18.4199  18.4354  18.4376  18.5080  18.6838  18.6873
    18.7439  18.7519  18.7574  18.7987  18.8978  18.8981  18.9475  18.9475
    18.9539  19.0287  19.0358  19.0397  19.0504  19.1754  19.2274  19.2281
    19.2333  19.2346  19.2619  19.4278  19.4294  19.4311  19.4320  20.0375
    20.0433  20.2666  20.4868  20.4951  20.8020  20.8023  20.8398  21.1795
    21.3655  21.3662  21.5908  21.9023  22.6393  22.6524  23.1848  23.1996
    23.3130  23.3424  25.8578  25.8711  25.9948  26.0233  26.4165  26.4309
    26.4673  26.7713  26.7723  27.1760  27.8158  27.8319  28.4896  28.5050
    28.8266  29.2678  29.2785  29.3710  29.3724  29.6016  29.6241  29.6442
    29.6858  29.7551  29.7633  29.9302  29.9997  30.0349  30.1668  30.1808
    30.1978  30.2030

          k = 0.0555 0.0556 0.3889 ( 33048 PWs)   bands (ev):

   -64.9026 -64.8947 -64.8763 -64.8762 -64.8720 -64.8718 -64.8713 -64.8711
   -64.8676 -64.8675 -64.8632 -64.8621 -64.8612 -64.8605 -64.8603 -64.8597
   -64.8592 -64.8582 -64.8582 -64.8521 -64.8520 -64.8510 -64.8508 -64.8503
   -64.8478 -64.8477 -64.8473 -64.8472 -64.8456 -64.8450 -64.8447 -64.8441
   -30.7710 -30.7669 -30.7668 -30.7610 -30.7528 -30.7523 -30.7421 -30.7401
   -30.7345 -30.7345 -30.7271 -30.7268 -30.7268 -30.7007 -30.6977 -30.6972
   -30.6927 -30.6922 -30.6909 -30.6908 -30.6814 -30.6812 -30.6644 -30.6632
   -30.6566 -30.6558 -30.6465 -30.6454 -30.6414 -30.6412 -30.6404 -30.6403
   -30.6359 -30.6352 -30.6197 -30.6188 -30.6174 -30.6165 -30.6063 -30.6063
   -30.5804 -30.5800 -30.5614 -30.5606 -30.5600 -30.5588 -30.5491 -30.5472
   -30.5425 -30.5348 -30.5348 -30.5340 -30.5339 -30.5335 -30.5333 -30.5321
   -30.5321 -30.5316 -30.5300 -30.5209 -30.5205 -30.5203 -30.5120 -30.5119
   -30.5086 -30.5084 -30.5080 -30.5080 -30.5064 -30.5008 -30.4997 -30.4997
   -30.4992 -30.4991 -30.4919 -30.4831 -30.4828 -30.4796 -30.4781 -30.4763
   -30.4756 -30.4754 -30.4748 -30.4742 -30.4740 -30.4712 -30.4698 -30.4697
   -30.4695 -30.4623 -30.4620 -30.4564 -30.4502 -30.4492 -30.4329 -30.4318
    12.6948  13.2912  14.2144  14.2870  14.2871  14.2965  14.3489  14.3489
    14.3862  14.4357  14.4600  14.5469  14.5478  14.5783  14.5827  14.6243
    14.6246  14.6346  14.6949  14.7060  14.7061  14.7580  14.7777  14.7822
    14.9178  14.9200  14.9253  14.9278  15.1242  15.1267  15.2154  15.2180
    15.2694  15.2736  15.3375  15.3407  15.3581  15.3597  15.4948  15.4987
    15.5531  15.5540  15.5607  15.5608  15.6592  15.6593  15.6984  15.6998
    15.7155  15.7190  15.7563  15.7594  15.8021  15.8076  15.9274  15.9455
    15.9468  15.9786  15.9794  16.0910  16.1303  16.1310  16.1353  16.1361
    16.1656  16.1686  16.2279  16.2343  16.2696  16.2848  16.2903  16.3143
    16.3154  16.3688  16.4435  16.4442  16.5823  16.6246  16.6304  16.6481
    16.6520  16.6609  16.6826  16.6844  16.6910  16.6933  16.8439  16.8872
    16.8921  16.9269  16.9384  16.9413  17.1232  17.1257  17.1268  17.1411
    17.3626  17.3706  17.5001  17.5016  17.5093  17.5253  17.5267  17.6948
    17.6956  17.7308  17.7316  17.7393  17.7407  17.7553  17.7575  17.7683
    17.7925  17.7934  17.8779  17.8788  17.9121  17.9191  17.9201  17.9225
    17.9227  17.9346  17.9366  17.9513  17.9524  18.0354  18.0837  18.1509
    18.1514  18.2181  18.2945  18.3031  18.3922  18.3928  18.4265  18.4659
    18.5487  18.5503  18.5520  18.6093  18.6165  18.6167  18.6380  18.6384
    18.7906  18.7906  18.8057  18.8980  18.9053  18.9082  18.9353  18.9362
    18.9443  18.9448  18.9849  19.0489  19.0504  19.0535  19.0544  19.1225
    19.2408  19.2434  19.3767  19.4278  19.4289  19.4311  19.4319  19.6403
    19.6442  20.0491  20.0558  20.4567  20.7480  20.8593  21.0062  21.0068
    21.2862  21.2869  21.4747  21.8214  23.3476  23.3613  23.8943  23.9094
    23.9133  23.9420  24.9710  24.9846  25.2761  25.3045  25.5191  25.5338
    26.8196  27.2358  27.2371  27.7182  28.0254  28.1664  28.1839  28.5552
    28.5566  28.8242  28.8411  29.0828  29.1036  29.1088  29.4733  29.4934
    29.6051  29.6437  29.6934  29.7139  30.1415  30.1510  30.1669  30.1774
    30.3673  30.3994

          k = 0.0555 0.0556-0.5000 ( 33068 PWs)   bands (ev):

   -64.8993 -64.8986 -64.8747 -64.8746 -64.8740 -64.8738 -64.8700 -64.8698
   -64.8692 -64.8691 -64.8631 -64.8623 -64.8612 -64.8605 -64.8603 -64.8597
   -64.8590 -64.8583 -64.8543 -64.8535 -64.8502 -64.8500 -64.8494 -64.8494
   -64.8493 -64.8492 -64.8486 -64.8485 -64.8456 -64.8450 -64.8447 -64.8441
   -30.7570 -30.7567 -30.7523 -30.7520 -30.7515 -30.7512 -30.7449 -30.7446
   -30.7415 -30.7410 -30.7407 -30.7403 -30.7236 -30.7228 -30.6954 -30.6952
   -30.6951 -30.6948 -30.6877 -30.6875 -30.6875 -30.6873 -30.6532 -30.6528
   -30.6521 -30.6517 -30.6478 -30.6471 -30.6470 -30.6463 -30.6322 -30.6319
   -30.6317 -30.6311 -30.6310 -30.6308 -30.6308 -30.6300 -30.5926 -30.5924
   -30.5919 -30.5917 -30.5614 -30.5607 -30.5598 -30.5592 -30.5415 -30.5407
   -30.5396 -30.5389 -30.5236 -30.5233 -30.5224 -30.5224 -30.5219 -30.5217
   -30.5216 -30.5216 -30.5215 -30.5212 -30.5210 -30.5207 -30.5205 -30.5202
   -30.5153 -30.5150 -30.5146 -30.5143 -30.5093 -30.5092 -30.5085 -30.5084
   -30.5054 -30.5050 -30.4794 -30.4786 -30.4781 -30.4780 -30.4778 -30.4777
   -30.4770 -30.4763 -30.4763 -30.4756 -30.4754 -30.4748 -30.4707 -30.4699
   -30.4652 -30.4651 -30.4649 -30.4648 -30.4411 -30.4404 -30.4401 -30.4394
    12.9679  12.9689  14.3237  14.3244  14.4460  14.4466  14.4466  14.4467
    14.4469  14.4475  14.5091  14.5092  14.5100  14.5100  14.5559  14.5560
    14.5657  14.5665  14.7123  14.7131  14.7138  14.7146  14.7463  14.7471
    14.7499  14.7506  14.9475  14.9483  14.9512  14.9519  15.3004  15.3007
    15.3007  15.3010  15.4141  15.4149  15.4169  15.4176  15.4381  15.4387
    15.4398  15.4404  15.5719  15.5725  15.5740  15.5747  15.7271  15.7273
    15.7287  15.7289  15.7336  15.7338  15.7387  15.7388  15.9467  15.9467
    15.9471  15.9472  16.0885  16.0893  16.1326  16.1333  16.1379  16.1386
    16.1610  16.1615  16.2262  16.2267  16.2303  16.2308  16.3230  16.3235
    16.4794  16.4796  16.4810  16.4812  16.5402  16.5404  16.5413  16.5415
    16.6999  16.7001  16.7502  16.7504  16.7548  16.7550  16.7738  16.7746
    16.7854  16.7856  16.7857  16.7864  17.5186  17.5189  17.5192  17.5193
    17.5196  17.5198  17.5199  17.5199  17.5227  17.5230  17.5664  17.5667
    17.6389  17.6397  17.7375  17.7381  17.7382  17.7389  17.8199  17.8206
    17.8207  17.8214  17.8255  17.8259  17.8339  17.8344  17.8366  17.8369
    17.8372  17.8375  17.8748  17.8754  17.8757  17.8763  18.0497  18.0498
    18.0504  18.0505  18.1443  18.1451  18.6001  18.6005  18.6008  18.6013
    18.6269  18.6271  18.7394  18.7396  18.7417  18.7419  18.7462  18.7469
    18.7736  18.7739  18.7851  18.7854  18.8392  18.8398  18.8416  18.8422
    18.8477  18.8482  18.8495  18.8500  19.0000  19.0003  19.2726  19.2727
    19.2744  19.2746  19.4279  19.4286  19.4311  19.4319  19.6320  19.6321
    19.6368  19.6369  20.0984  20.0990  20.6199  20.6207  21.1680  21.1687
    21.1687  21.1694  21.6849  21.6856  24.1276  24.1280  24.1413  24.1417
    24.5762  24.5768  24.6046  24.6052  24.6738  24.6742  24.6889  24.6892
    27.3464  27.3465  27.8364  27.8366  27.8380  27.8381  28.3666  28.3667
    28.5961  28.5969  28.6152  28.6160  29.2331  29.2338  29.2517  29.2525
    29.5520  29.5527  29.5848  29.5855  30.3132  30.3141  30.3487  30.3496
    30.5970  30.5981

          k = 0.0555 0.1667 0.1667 ( 33045 PWs)   bands (ev):

   -64.9063 -64.8841 -64.8841 -64.8784 -64.8730 -64.8699 -64.8679 -64.8678
   -64.8664 -64.8663 -64.8630 -64.8629 -64.8623 -64.8609 -64.8596 -64.8596
   -64.8594 -64.8593 -64.8575 -64.8574 -64.8556 -64.8555 -64.8535 -64.8462
   -64.8458 -64.8456 -64.8455 -64.8454 -64.8453 -64.8452 -64.8451 -64.8445
   -30.7861 -30.7861 -30.7814 -30.7768 -30.7645 -30.7634 -30.7634 -30.7078
   -30.7077 -30.7053 -30.7052 -30.6959 -30.6959 -30.6952 -30.6923 -30.6923
   -30.6921 -30.6921 -30.6914 -30.6914 -30.6841 -30.6841 -30.6812 -30.6812
   -30.6590 -30.6524 -30.6523 -30.6503 -30.6502 -30.6450 -30.6450 -30.6367
   -30.6366 -30.6265 -30.6230 -30.5989 -30.5947 -30.5947 -30.5810 -30.5810
   -30.5762 -30.5761 -30.5700 -30.5642 -30.5642 -30.5625 -30.5624 -30.5577
   -30.5576 -30.5570 -30.5569 -30.5555 -30.5548 -30.5547 -30.5529 -30.5529
   -30.5510 -30.5509 -30.5390 -30.5390 -30.5331 -30.5110 -30.5110 -30.5065
   -30.5065 -30.4964 -30.4947 -30.4928 -30.4879 -30.4878 -30.4872 -30.4871
   -30.4846 -30.4846 -30.4832 -30.4832 -30.4829 -30.4825 -30.4795 -30.4785
   -30.4785 -30.4765 -30.4742 -30.4742 -30.4733 -30.4732 -30.4730 -30.4730
   -30.4685 -30.4684 -30.4643 -30.4643 -30.4569 -30.4373 -30.4245 -30.4217
    12.4094  14.0462  14.0463  14.1022  14.1023  14.1092  14.1295  14.1706
    14.2107  14.2107  14.3652  14.3652  14.3794  14.3833  14.5730  14.6096
    14.6097  14.9703  14.9704  14.9906  14.9907  15.0159  15.0159  15.0389
    15.0390  15.0602  15.1047  15.1047  15.1293  15.1293  15.2462  15.2562
    15.2563  15.2646  15.2647  15.3142  15.4214  15.4527  15.4527  15.4630
    15.4631  15.4906  15.4906  15.5807  15.5808  15.7230  15.7230  15.8035
    15.8035  15.8137  15.9125  15.9126  15.9288  15.9288  15.9874  15.9875
    15.9988  16.0588  16.0589  16.0688  16.0689  16.1220  16.1221  16.2166
    16.2661  16.2662  16.3180  16.3181  16.3183  16.3184  16.3597  16.3944
    16.4199  16.4246  16.4247  16.4298  16.4298  16.4510  16.4511  16.4732
    16.4936  16.4937  16.4961  16.5051  16.5153  16.5156  16.5156  16.5184
    16.9666  17.0282  17.0282  17.0753  17.1853  17.1853  17.2970  17.3144
    17.3144  17.3162  17.3163  17.3723  17.3724  17.3953  17.3954  17.4566
    17.4589  17.4590  17.5399  17.6143  17.6213  17.6214  17.6421  17.6421
    17.6682  17.9167  17.9167  17.9335  17.9336  17.9478  17.9910  18.0094
    18.0095  18.0247  18.0247  18.0253  18.0360  18.0361  18.1150  18.1151
    18.1461  18.1461  18.3232  18.3232  18.3663  18.3749  18.3749  18.3766
    18.4169  18.4169  18.4226  18.4226  18.4838  18.4839  18.5179  18.5598
    18.6817  18.7891  18.8386  18.8386  18.9686  18.9741  18.9741  18.9911
    19.0843  19.1206  19.1206  19.1380  19.1381  19.1432  19.3088  19.3088
    19.3594  19.3595  19.3606  19.3607  19.3700  19.3700  19.3959  19.8146
    20.0395  20.4329  20.4329  20.4783  20.9231  20.9231  21.1053  21.1053
    21.5060  21.5060  21.9914  21.9914  22.4909  22.4909  22.5319  22.5320
    23.0866  23.1426  26.1283  26.1284  26.2940  26.2940  26.7584  26.8288
    26.8288  26.8548  26.8548  27.1579  27.4618  27.4619  27.9134  27.9136
    28.8934  28.8934  29.2010  29.2010  29.5701  29.6531  29.7385  29.7385
    29.7961  29.7961  30.0406  30.0406  30.1723  30.1723  30.5512  30.5513
    30.8084  30.8351

          k = 0.0555 0.1667 0.2778 ( 33035 PWs)   bands (ev):

   -64.9044 -64.8892 -64.8829 -64.8773 -64.8732 -64.8722 -64.8691 -64.8672
   -64.8660 -64.8652 -64.8632 -64.8629 -64.8627 -64.8614 -64.8613 -64.8591
   -64.8586 -64.8576 -64.8562 -64.8558 -64.8548 -64.8533 -64.8516 -64.8476
   -64.8466 -64.8465 -64.8464 -64.8461 -64.8459 -64.8454 -64.8452 -64.8445
   -30.7808 -30.7794 -30.7719 -30.7657 -30.7583 -30.7578 -30.7540 -30.7251
   -30.7216 -30.7116 -30.7083 -30.7080 -30.7080 -30.7079 -30.6988 -30.6980
   -30.6974 -30.6925 -30.6918 -30.6897 -30.6871 -30.6868 -30.6826 -30.6769
   -30.6685 -30.6563 -30.6530 -30.6473 -30.6437 -30.6423 -30.6375 -30.6355
   -30.6311 -30.6290 -30.6196 -30.6101 -30.6079 -30.5947 -30.5898 -30.5782
   -30.5769 -30.5750 -30.5688 -30.5635 -30.5611 -30.5580 -30.5579 -30.5572
   -30.5542 -30.5537 -30.5534 -30.5483 -30.5445 -30.5429 -30.5423 -30.5396
   -30.5383 -30.5364 -30.5259 -30.5252 -30.5227 -30.5195 -30.5185 -30.5165
   -30.5023 -30.5005 -30.5004 -30.4989 -30.4969 -30.4962 -30.4958 -30.4954
   -30.4900 -30.4874 -30.4871 -30.4847 -30.4843 -30.4842 -30.4808 -30.4803
   -30.4792 -30.4774 -30.4770 -30.4763 -30.4734 -30.4728 -30.4711 -30.4650
   -30.4627 -30.4627 -30.4625 -30.4565 -30.4532 -30.4498 -30.4287 -30.4241
    12.5527  13.6995  14.1481  14.1689  14.1826  14.1907  14.1930  14.2371
    14.3026  14.3150  14.4193  14.4481  14.4565  14.4731  14.5770  14.6450
    14.7113  14.7851  14.8109  14.8414  14.8702  14.8767  14.8846  14.9164
    15.0092  15.0201  15.0430  15.0530  15.0740  15.0984  15.1684  15.1776
    15.1850  15.2076  15.2346  15.2870  15.3232  15.3479  15.3778  15.4752
    15.4858  15.5043  15.5424  15.6133  15.6492  15.6656  15.6742  15.7626
    15.7696  15.7804  15.7932  15.8105  15.8567  15.9259  15.9332  15.9781
    15.9790  15.9902  16.0754  16.1278  16.1703  16.1747  16.2233  16.2406
    16.2534  16.2577  16.2671  16.2878  16.3297  16.3384  16.3519  16.3819
    16.4068  16.4206  16.4796  16.5196  16.5395  16.5540  16.5668  16.5697
    16.5775  16.5972  16.6040  16.6205  16.6350  16.7377  16.8148  16.8527
    16.8713  16.8766  16.9008  16.9911  17.0143  17.1154  17.1244  17.1380
    17.2076  17.2244  17.2382  17.3128  17.3196  17.3918  17.4032  17.5019
    17.5192  17.5419  17.5444  17.6015  17.6428  17.7264  17.7780  17.7829
    17.7999  17.8802  17.8853  17.9006  17.9314  17.9809  18.0133  18.0192
    18.0500  18.0917  18.0947  18.1402  18.1447  18.1564  18.1570  18.1681
    18.1798  18.2080  18.2780  18.3166  18.3396  18.3744  18.4066  18.4679
    18.4772  18.5080  18.5118  18.5142  18.5162  18.5394  18.5446  18.6347
    18.6357  18.6634  18.7531  18.8402  18.8662  18.8894  18.9665  18.9798
    19.0529  19.0896  19.0958  19.1007  19.1840  19.1994  19.2003  19.2041
    19.2280  19.2298  19.2650  19.3594  19.3612  19.3668  19.3751  19.6486
    19.8467  20.0053  20.3695  20.4636  20.5053  20.8750  21.0173  21.3939
    21.5917  21.8845  21.9608  22.1287  22.4971  22.6400  22.9681  23.1822
    23.5398  23.7816  25.2950  25.4812  25.9266  26.1407  26.2967  26.4337
    26.4668  26.9575  27.1429  27.1458  27.1878  27.6638  27.6736  28.3122
    28.4416  28.7044  28.8420  29.0049  29.1250  29.2406  29.4515  29.6126
    29.7940  29.8908  29.9511  30.1503  30.1966  30.4015  30.5064  30.5198
    30.7407  30.8658

          k = 0.0555 0.1667 0.3889 ( 33059 PWs)   bands (ev):

   -64.9017 -64.8939 -64.8812 -64.8762 -64.8759 -64.8716 -64.8709 -64.8674
   -64.8662 -64.8656 -64.8640 -64.8632 -64.8627 -64.8616 -64.8587 -64.8580
   -64.8578 -64.8577 -64.8563 -64.8532 -64.8522 -64.8512 -64.8503 -64.8498
   -64.8483 -64.8480 -64.8476 -64.8469 -64.8461 -64.8454 -64.8452 -64.8445
   -30.7715 -30.7689 -30.7590 -30.7514 -30.7495 -30.7493 -30.7427 -30.7404
   -30.7390 -30.7260 -30.7259 -30.7239 -30.7159 -30.7077 -30.7059 -30.7015
   -30.7012 -30.7010 -30.6997 -30.6959 -30.6868 -30.6821 -30.6801 -30.6714
   -30.6640 -30.6600 -30.6543 -30.6503 -30.6469 -30.6400 -30.6315 -30.6271
   -30.6241 -30.6233 -30.6200 -30.6139 -30.6077 -30.6038 -30.6024 -30.5928
   -30.5883 -30.5780 -30.5581 -30.5574 -30.5537 -30.5534 -30.5530 -30.5517
   -30.5473 -30.5472 -30.5443 -30.5366 -30.5337 -30.5326 -30.5322 -30.5313
   -30.5295 -30.5274 -30.5246 -30.5223 -30.5146 -30.5139 -30.5104 -30.5103
   -30.5100 -30.5096 -30.5094 -30.5077 -30.5075 -30.5074 -30.5069 -30.4969
   -30.4943 -30.4942 -30.4874 -30.4865 -30.4859 -30.4854 -30.4842 -30.4836
   -30.4827 -30.4816 -30.4755 -30.4749 -30.4739 -30.4711 -30.4692 -30.4663
   -30.4661 -30.4632 -30.4574 -30.4521 -30.4520 -30.4456 -30.4348 -30.4290
    12.7627  13.3513  14.2622  14.2760  14.2931  14.3087  14.3228  14.3430
    14.4320  14.4548  14.4859  14.4994  14.5612  14.5720  14.5798  14.6052
    14.6307  14.6629  14.6688  14.6690  14.7305  14.7413  14.7944  14.8032
    14.8260  14.8555  14.9383  14.9573  14.9782  15.0577  15.1680  15.1879
    15.1948  15.2125  15.2469  15.3008  15.3114  15.4347  15.4406  15.4655
    15.4956  15.5071  15.5751  15.5824  15.6048  15.6113  15.6120  15.6198
    15.6574  15.6982  15.7556  15.7865  15.8023  15.8542  15.9352  15.9562
    15.9912  16.0401  16.1430  16.1549  16.1865  16.2051  16.2214  16.2255
    16.2258  16.2298  16.2744  16.3067  16.3230  16.3324  16.3414  16.3599
    16.4089  16.4447  16.4549  16.5920  16.5935  16.6555  16.6614  16.6619
    16.6647  16.6669  16.7083  16.7210  16.7430  16.8094  16.8170  16.8274
    16.8954  16.9122  16.9377  17.0008  17.0352  17.0584  17.1003  17.1185
    17.2839  17.2906  17.3132  17.3314  17.3334  17.3662  17.4597  17.5540
    17.5562  17.5733  17.6325  17.6809  17.7329  17.7435  17.7545  17.7571
    17.7776  17.7841  17.8296  17.8613  17.9023  17.9262  17.9315  17.9376
    17.9907  17.9975  18.0463  18.0707  18.1027  18.1527  18.1801  18.1954
    18.2196  18.2215  18.2219  18.3629  18.3809  18.3831  18.4129  18.4181
    18.5252  18.5656  18.6087  18.6451  18.6783  18.7018  18.7046  18.7066
    18.7146  18.7194  18.7434  18.8036  18.8089  18.9055  18.9119  18.9334
    18.9581  19.0065  19.0090  19.0506  19.0547  19.0552  19.0563  19.1421
    19.2170  19.2934  19.3601  19.3620  19.3646  19.3661  19.6084  19.6323
    19.7501  19.9954  20.0273  20.2737  20.5434  20.5997  20.8024  21.1672
    21.6294  21.9010  21.9847  22.4166  22.8283  23.3641  23.5450  23.9027
    24.1106  24.4316  24.4836  24.8246  25.0216  25.4347  25.5472  26.0864
    26.4990  26.8232  27.4283  27.4933  27.5363  27.7337  27.9753  28.0378
    28.2355  28.2607  28.4554  28.7740  28.9280  29.1286  29.4465  29.5262
    29.6980  29.8461  29.8463  29.9853  30.1106  30.2754  30.2784  30.3762
    30.4334  30.6766

          k = 0.0555 0.1667-0.5000 ( 33068 PWs)   bands (ev):

   -64.8985 -64.8978 -64.8793 -64.8785 -64.8743 -64.8736 -64.8697 -64.8689
   -64.8652 -64.8652 -64.8645 -64.8644 -64.8626 -64.8618 -64.8586 -64.8578
   -64.8573 -64.8566 -64.8542 -64.8534 -64.8509 -64.8503 -64.8502 -64.8496
   -64.8496 -64.8489 -64.8486 -64.8478 -64.8462 -64.8454 -64.8452 -64.8445
   -30.7587 -30.7584 -30.7554 -30.7550 -30.7435 -30.7431 -30.7392 -30.7384
   -30.7382 -30.7374 -30.7346 -30.7342 -30.7231 -30.7223 -30.7050 -30.7048
   -30.7025 -30.7021 -30.7017 -30.7016 -30.6819 -30.6818 -30.6724 -30.6720
   -30.6597 -30.6594 -30.6592 -30.6590 -30.6394 -30.6391 -30.6311 -30.6306
   -30.6204 -30.6198 -30.6141 -30.6134 -30.6101 -30.6098 -30.6005 -30.6001
   -30.5901 -30.5894 -30.5581 -30.5575 -30.5531 -30.5527 -30.5438 -30.5430
   -30.5396 -30.5388 -30.5354 -30.5346 -30.5332 -30.5330 -30.5260 -30.5258
   -30.5236 -30.5231 -30.5209 -30.5207 -30.5202 -30.5198 -30.5195 -30.5192
   -30.5170 -30.5162 -30.5073 -30.5069 -30.5037 -30.5029 -30.4968 -30.4965
   -30.4962 -30.4955 -30.4919 -30.4915 -30.4869 -30.4864 -30.4848 -30.4840
   -30.4831 -30.4824 -30.4791 -30.4787 -30.4750 -30.4743 -30.4679 -30.4671
   -30.4664 -30.4661 -30.4537 -30.4534 -30.4430 -30.4423 -30.4365 -30.4361
    13.0322  13.0331  14.3725  14.3733  14.4089  14.4090  14.4578  14.4585
    14.4709  14.4717  14.4832  14.4841  14.4874  14.4875  14.5968  14.5969
    14.6034  14.6042  14.6268  14.6269  14.6810  14.6816  14.7355  14.7363
    14.7752  14.7759  14.8494  14.8499  15.0293  15.0299  15.1104  15.1106
    15.3052  15.3053  15.3090  15.3096  15.3452  15.3460  15.4456  15.4464
    15.5226  15.5227  15.5471  15.5478  15.5976  15.5979  15.6219  15.6222
    15.6773  15.6774  15.7072  15.7078  15.7085  15.7089  16.0685  16.0690
    16.0880  16.0885  16.0915  16.0922  16.1113  16.1119  16.1688  16.1689
    16.2662  16.2668  16.2822  16.2826  16.3820  16.3826  16.4157  16.4164
    16.4770  16.4771  16.5238  16.5238  16.5338  16.5340  16.6500  16.6502
    16.6979  16.6981  16.7672  16.7675  16.7741  16.7749  16.7853  16.7860
    16.8405  16.8407  16.8622  16.8625  17.3209  17.3214  17.3312  17.3317
    17.3778  17.3779  17.3882  17.3884  17.4145  17.4148  17.4642  17.4644
    17.5121  17.5127  17.6591  17.6598  17.6640  17.6645  17.7357  17.7361
    17.7445  17.7451  17.7758  17.7762  17.7886  17.7892  17.8564  17.8571
    17.9677  17.9684  18.0080  18.0086  18.0778  18.0784  18.1385  18.1393
    18.2718  18.2725  18.3216  18.3223  18.3963  18.3968  18.5622  18.5629
    18.6015  18.6017  18.6201  18.6207  18.7510  18.7513  18.7766  18.7767
    18.8381  18.8387  18.8662  18.8667  18.8720  18.8722  18.8777  18.8779
    18.8865  18.8870  18.8890  18.8895  18.9750  18.9752  19.0251  19.0253
    19.2405  19.2406  19.3615  19.3622  19.3628  19.3635  19.6109  19.6110
    20.0813  20.0815  20.1464  20.1472  20.4329  20.4335  20.7071  20.7079
    21.7957  21.7964  22.2564  22.2571  23.6001  23.6005  24.1609  24.1612
    24.1727  24.1733  24.6933  24.6936  24.7514  24.7520  25.2524  25.2527
    26.9180  26.9181  27.3547  27.3549  27.8041  27.8048  27.9435  27.9442
    28.3473  28.3481  28.3847  28.3848  28.9414  28.9415  29.3178  29.3180
    29.8371  29.8379  30.0114  30.0120  30.0321  30.0326  30.1090  30.1099
    30.7977  30.7982

          k = 0.0555 0.2778 0.2778 ( 33043 PWs)   bands (ev):

   -64.9026 -64.8879 -64.8878 -64.8769 -64.8764 -64.8714 -64.8687 -64.8686
   -64.8650 -64.8649 -64.8646 -64.8623 -64.8622 -64.8621 -64.8578 -64.8578
   -64.8576 -64.8575 -64.8551 -64.8550 -64.8538 -64.8537 -64.8501 -64.8477
   -64.8476 -64.8473 -64.8473 -64.8468 -64.8467 -64.8458 -64.8457 -64.8448
   -30.7757 -30.7757 -30.7615 -30.7536 -30.7523 -30.7494 -30.7494 -30.7253
   -30.7253 -30.7236 -30.7236 -30.7116 -30.7116 -30.7031 -30.7030 -30.7015
   -30.7015 -30.6974 -30.6974 -30.6965 -30.6965 -30.6868 -30.6842 -30.6841
   -30.6805 -30.6804 -30.6514 -30.6456 -30.6393 -30.6393 -30.6326 -30.6326
   -30.6256 -30.6222 -30.6144 -30.6143 -30.5881 -30.5873 -30.5873 -30.5768
   -30.5768 -30.5744 -30.5744 -30.5643 -30.5642 -30.5531 -30.5531 -30.5507
   -30.5507 -30.5500 -30.5495 -30.5493 -30.5439 -30.5439 -30.5361 -30.5360
   -30.5284 -30.5284 -30.5271 -30.5270 -30.5151 -30.5151 -30.5139 -30.5138
   -30.5087 -30.5087 -30.5063 -30.5060 -30.4980 -30.4979 -30.4962 -30.4957
   -30.4955 -30.4944 -30.4944 -30.4924 -30.4847 -30.4847 -30.4834 -30.4815
   -30.4806 -30.4792 -30.4740 -30.4736 -30.4736 -30.4733 -30.4675 -30.4675
   -30.4638 -30.4637 -30.4636 -30.4510 -30.4510 -30.4473 -30.4329 -30.4240
    12.6922  13.8085  13.8086  14.2166  14.2570  14.2606  14.2607  14.2847
    14.4125  14.4125  14.4910  14.5005  14.5005  14.5717  14.6298  14.6652
    14.6771  14.6772  14.7180  14.7180  14.8331  14.8332  14.8347  14.8347
    14.9207  14.9207  14.9429  14.9429  15.1070  15.1091  15.1091  15.1152
    15.1153  15.2109  15.2109  15.2434  15.2434  15.2914  15.2915  15.3680
    15.3680  15.4441  15.5648  15.5649  15.5705  15.5705  15.5908  15.7847
    15.7848  15.8124  15.8124  15.8246  15.8247  15.8270  15.8408  16.0807
    16.0807  16.1596  16.1596  16.2419  16.2420  16.2421  16.2421  16.2906
    16.2906  16.2907  16.3177  16.3177  16.3288  16.4224  16.4504  16.4604
    16.4605  16.5523  16.5523  16.5748  16.6025  16.6261  16.6294  16.6565
    16.6577  16.6578  16.6997  16.6997  16.7240  16.7241  16.7272  16.7627
    16.8640  16.8640  16.8877  16.8877  17.0591  17.0592  17.1149  17.1150
    17.1949  17.1949  17.2514  17.2926  17.3374  17.3375  17.3681  17.3682
    17.3887  17.3888  17.4591  17.4660  17.6053  17.6054  17.7345  17.8189
    17.8189  17.8354  17.8355  17.8526  17.8726  17.9557  17.9558  18.0208
    18.0711  18.1244  18.1244  18.1785  18.1786  18.2273  18.2274  18.2645
    18.2645  18.3743  18.3744  18.3767  18.3767  18.3975  18.3983  18.3984
    18.3984  18.4566  18.4566  18.6092  18.6523  18.6779  18.6780  18.6825
    18.6826  18.6874  18.6874  18.7891  18.7925  18.8276  18.9507  18.9507
    19.0228  19.1056  19.1056  19.1161  19.1370  19.1371  19.2308  19.2308
    19.2323  19.2323  19.2550  19.2550  19.2997  19.3136  19.6174  19.6494
    19.6494  19.9418  19.9418  20.3243  20.4191  20.4192  21.6191  21.6191
    21.9807  21.9808  22.3531  22.3531  22.6316  22.6317  23.1582  23.1583
    23.9455  24.4104  24.7029  24.7029  25.9459  25.9460  26.2957  26.2958
    26.4163  26.4164  26.8989  26.8990  27.5400  27.5402  27.7003  27.8310
    27.8310  28.2266  28.3455  28.3455  28.4076  29.5071  29.7001  29.7001
    29.8297  29.8298  30.2666  30.2848  30.5656  30.5657  30.7000  30.7000
    30.9389  30.9389

          k = 0.0555 0.2778 0.3889 ( 33073 PWs)   bands (ev):

   -64.8999 -64.8924 -64.8859 -64.8803 -64.8750 -64.8710 -64.8702 -64.8680
   -64.8669 -64.8658 -64.8645 -64.8630 -64.8614 -64.8591 -64.8576 -64.8569
   -64.8565 -64.8554 -64.8544 -64.8543 -64.8527 -64.8518 -64.8501 -64.8488
   -64.8487 -64.8487 -64.8485 -64.8476 -64.8468 -64.8464 -64.8457 -64.8449
   -30.7680 -30.7669 -30.7480 -30.7434 -30.7427 -30.7421 -30.7399 -30.7384
   -30.7373 -30.7235 -30.7226 -30.7225 -30.7184 -30.7147 -30.7111 -30.7108
   -30.7102 -30.7036 -30.7025 -30.7024 -30.6957 -30.6935 -30.6851 -30.6849
   -30.6832 -30.6692 -30.6607 -30.6582 -30.6500 -30.6372 -30.6253 -30.6219
   -30.6182 -30.6069 -30.6066 -30.5995 -30.5992 -30.5988 -30.5904 -30.5866
   -30.5733 -30.5682 -30.5654 -30.5601 -30.5577 -30.5575 -30.5526 -30.5506
   -30.5467 -30.5463 -30.5439 -30.5394 -30.5387 -30.5367 -30.5330 -30.5274
   -30.5270 -30.5269 -30.5256 -30.5249 -30.5222 -30.5168 -30.5135 -30.5132
   -30.5121 -30.5106 -30.5058 -30.5056 -30.5035 -30.5014 -30.5009 -30.5004
   -30.4942 -30.4939 -30.4929 -30.4896 -30.4883 -30.4881 -30.4871 -30.4869
   -30.4815 -30.4798 -30.4784 -30.4763 -30.4749 -30.4745 -30.4743 -30.4704
   -30.4653 -30.4649 -30.4567 -30.4465 -30.4444 -30.4409 -30.4392 -30.4270
    12.8966  13.4693  13.9657  14.2882  14.3555  14.3573  14.3690  14.3889
    14.3921  14.5379  14.5414  14.5438  14.5536  14.5781  14.5835  14.6218
    14.6454  14.6524  14.6540  14.6965  14.7121  14.7377  14.7847  14.8020
    14.8196  14.8709  14.8986  14.9111  14.9792  15.0052  15.0333  15.0432
    15.0830  15.1802  15.1841  15.2186  15.2608  15.2902  15.2925  15.3416
    15.3567  15.4090  15.4339  15.4715  15.5084  15.6154  15.6628  15.6801
    15.7027  15.7440  15.8108  15.8397  15.8698  15.8937  15.9462  16.0560
    16.0643  16.0692  16.1478  16.2084  16.2116  16.2662  16.3126  16.3162
    16.3496  16.3555  16.3601  16.3950  16.4224  16.4456  16.4713  16.5613
    16.5646  16.5968  16.6188  16.6213  16.6469  16.6683  16.6783  16.6957
    16.7078  16.7154  16.7266  16.8037  16.8050  16.8241  16.8294  16.8491
    16.8544  16.9397  16.9400  16.9406  17.0180  17.0383  17.1074  17.1226
    17.1327  17.1648  17.1926  17.1969  17.2154  17.2511  17.2654  17.3748
    17.4780  17.4870  17.5052  17.5123  17.5208  17.5329  17.6008  17.6189
    17.6497  17.6828  17.7387  17.7552  17.7745  17.8510  18.0159  18.0561
    18.0599  18.0692  18.0941  18.0996  18.2253  18.2317  18.2419  18.2522
    18.2569  18.3040  18.4085  18.4293  18.4312  18.4411  18.4964  18.5075
    18.5099  18.5859  18.6138  18.6465  18.6539  18.7144  18.7414  18.8103
    18.8251  18.8253  18.8365  18.8373  18.8464  18.8478  18.8751  18.8963
    18.9903  19.0405  19.0514  19.0527  19.0547  19.0576  19.0627  19.0690
    19.1167  19.1872  19.2355  19.2372  19.2461  19.2730  19.5465  19.6257
    19.8492  19.9887  20.1311  20.2296  20.2685  20.3592  21.1176  21.6353
    22.2901  22.3023  22.4935  22.5927  22.9055  23.0721  23.3794  23.8707
    23.8870  24.1000  24.4730  25.0704  25.0957  25.4614  25.7338  26.3120
    26.5024  26.6165  26.7396  26.8595  27.0969  27.1315  27.3900  27.5610
    27.8306  27.8870  28.0961  28.3016  28.8600  29.1845  29.7429  29.8089
    29.8849  29.9377  30.0210  30.0922  30.2005  30.3242  30.8369  30.8495
    31.0137  31.0706

          k = 0.0555 0.2778-0.5000 ( 33080 PWs)   bands (ev):

   -64.8969 -64.8961 -64.8837 -64.8830 -64.8736 -64.8728 -64.8691 -64.8683
   -64.8673 -64.8666 -64.8642 -64.8634 -64.8607 -64.8600 -64.8565 -64.8557
   -64.8557 -64.8550 -64.8539 -64.8531 -64.8517 -64.8509 -64.8509 -64.8504
   -64.8502 -64.8496 -64.8479 -64.8476 -64.8471 -64.8469 -64.8457 -64.8449
   -30.7567 -30.7564 -30.7549 -30.7546 -30.7343 -30.7336 -30.7323 -30.7322
   -30.7318 -30.7316 -30.7218 -30.7212 -30.7211 -30.7209 -30.7183 -30.7183
   -30.7176 -30.7174 -30.7085 -30.7080 -30.6897 -30.6892 -30.6878 -30.6872
   -30.6720 -30.6716 -30.6590 -30.6590 -30.6535 -30.6531 -30.6120 -30.6118
   -30.6109 -30.6107 -30.6044 -30.6040 -30.5979 -30.5972 -30.5872 -30.5870
   -30.5854 -30.5846 -30.5520 -30.5514 -30.5497 -30.5489 -30.5478 -30.5470
   -30.5449 -30.5447 -30.5442 -30.5440 -30.5388 -30.5386 -30.5379 -30.5372
   -30.5262 -30.5257 -30.5227 -30.5226 -30.5171 -30.5166 -30.5166 -30.5163
   -30.5082 -30.5074 -30.5060 -30.5055 -30.5024 -30.5022 -30.5004 -30.5001
   -30.4948 -30.4940 -30.4918 -30.4912 -30.4910 -30.4905 -30.4893 -30.4890
   -30.4839 -30.4831 -30.4812 -30.4808 -30.4768 -30.4761 -30.4688 -30.4685
   -30.4680 -30.4673 -30.4476 -30.4468 -30.4442 -30.4440 -30.4328 -30.4326
    13.1588  13.1598  14.1624  14.1633  14.3969  14.3970  14.4678  14.4685
    14.4896  14.4896  14.4902  14.4907  14.5547  14.5555  14.5930  14.5935
    14.6788  14.6797  14.7067  14.7068  14.7219  14.7220  14.7373  14.7376
    14.7816  14.7824  14.8858  14.8862  14.9273  14.9273  14.9926  14.9932
    15.1665  15.1673  15.1800  15.1804  15.2597  15.2599  15.3236  15.3238
    15.3302  15.3310  15.5123  15.5130  15.5509  15.5509  15.5598  15.5606
    15.8269  15.8269  15.8318  15.8323  15.9363  15.9366  15.9556  15.9562
    15.9775  15.9781  16.0899  16.0904  16.2907  16.2913  16.3836  16.3842
    16.3928  16.3929  16.4150  16.4155  16.4634  16.4637  16.4745  16.4746
    16.5210  16.5212  16.6738  16.6739  16.7152  16.7158  16.7376  16.7378
    16.7478  16.7479  16.7781  16.7787  16.7931  16.7937  16.8094  16.8097
    16.9559  16.9562  16.9791  16.9794  17.1374  17.1375  17.1465  17.1469
    17.1573  17.1577  17.2181  17.2182  17.2304  17.2305  17.2457  17.2460
    17.3080  17.3086  17.5640  17.5646  17.5673  17.5676  17.6158  17.6163
    17.6449  17.6453  17.6709  17.6711  17.6762  17.6769  17.9628  17.9635
    17.9700  17.9705  18.1491  18.1498  18.1839  18.1845  18.1950  18.1957
    18.3560  18.3567  18.4827  18.4834  18.4877  18.4884  18.6079  18.6086
    18.6322  18.6328  18.6747  18.6747  18.7218  18.7219  18.7224  18.7226
    18.8433  18.8439  18.8704  18.8705  18.8989  18.8992  18.9470  18.9473
    18.9492  18.9496  18.9644  18.9646  18.9701  18.9702  18.9821  18.9821
    19.1789  19.1790  19.2394  19.2402  19.2496  19.2500  19.5784  19.5785
    19.7348  19.7356  20.2978  20.2985  20.6214  20.6216  20.9068  20.9074
    22.4899  22.4906  22.8641  22.8648  23.0587  23.0592  23.4956  23.4961
    24.1975  24.1978  24.6723  24.6724  25.0786  25.0792  25.8421  25.8423
    26.5741  26.5742  26.9317  26.9318  27.0064  27.0070  27.2957  27.2964
    27.4763  27.4770  28.6597  28.6599  28.9848  28.9850  29.5608  29.5609
    29.8302  29.8311  29.9686  29.9695  30.4052  30.4060  30.6059  30.6059
    31.2632  31.2639

          k = 0.0555 0.3889 0.3889 ( 33082 PWs)   bands (ev):

   -64.8974 -64.8903 -64.8902 -64.8841 -64.8737 -64.8701 -64.8701 -64.8692
   -64.8674 -64.8663 -64.8662 -64.8642 -64.8571 -64.8570 -64.8555 -64.8554
   -64.8552 -64.8551 -64.8534 -64.8533 -64.8527 -64.8526 -64.8501 -64.8499
   -64.8497 -64.8496 -64.8491 -64.8490 -64.8478 -64.8462 -64.8460 -64.8452
   -30.7610 -30.7610 -30.7382 -30.7382 -30.7375 -30.7374 -30.7347 -30.7341
   -30.7327 -30.7327 -30.7228 -30.7222 -30.7222 -30.7193 -30.7193 -30.7104
   -30.7103 -30.7046 -30.7045 -30.7035 -30.7034 -30.7015 -30.7015 -30.6894
   -30.6870 -30.6870 -30.6723 -30.6587 -30.6533 -30.6375 -30.6374 -30.6117
   -30.6041 -30.6041 -30.5916 -30.5916 -30.5856 -30.5777 -30.5777 -30.5720
   -30.5719 -30.5718 -30.5718 -30.5666 -30.5665 -30.5480 -30.5480 -30.5449
   -30.5449 -30.5440 -30.5440 -30.5415 -30.5409 -30.5407 -30.5381 -30.5381
   -30.5345 -30.5345 -30.5234 -30.5234 -30.5204 -30.5204 -30.5188 -30.5155
   -30.5155 -30.5052 -30.5051 -30.5029 -30.5029 -30.5027 -30.5027 -30.5001
   -30.4944 -30.4940 -30.4940 -30.4924 -30.4924 -30.4896 -30.4875 -30.4825
   -30.4825 -30.4797 -30.4784 -30.4784 -30.4782 -30.4755 -30.4743 -30.4675
   -30.4674 -30.4634 -30.4634 -30.4455 -30.4393 -30.4377 -30.4376 -30.4275
    13.0927  13.6407  13.6408  14.1126  14.3333  14.4268  14.4377  14.4891
    14.4892  14.5189  14.5190  14.5194  14.6358  14.6358  14.6611  14.6814
    14.6815  14.6956  14.6956  14.6975  14.6976  14.7228  14.7229  14.8427
    14.8427  14.8582  14.8725  14.9095  14.9096  15.0137  15.0138  15.0167
    15.0168  15.0406  15.0407  15.0867  15.0867  15.2221  15.2222  15.2333
    15.2333  15.2619  15.2619  15.4972  15.4972  15.5514  15.7376  15.7377
    15.7427  15.7428  15.8355  15.9028  15.9479  15.9480  15.9513  15.9513
    15.9622  16.1584  16.2611  16.2612  16.3112  16.4311  16.4443  16.4443
    16.4867  16.4867  16.4908  16.4908  16.4927  16.4928  16.5315  16.5315
    16.5521  16.5654  16.7218  16.7298  16.7394  16.7395  16.7400  16.7692
    16.8011  16.8048  16.8049  16.8190  16.8202  16.8202  16.9429  16.9430
    16.9554  16.9555  16.9576  16.9577  16.9663  16.9663  17.0733  17.0734
    17.0799  17.0989  17.1595  17.1595  17.1694  17.2370  17.2735  17.2736
    17.2780  17.2861  17.2861  17.3032  17.3033  17.3279  17.3280  17.4944
    17.6023  17.6024  17.6157  17.6157  17.7307  17.7916  17.7916  17.8147
    17.9766  18.1144  18.2165  18.2165  18.2613  18.2613  18.3449  18.3449
    18.4227  18.4228  18.4713  18.4714  18.5291  18.5292  18.5307  18.6346
    18.6346  18.7280  18.7543  18.7568  18.7569  18.7607  18.7608  18.7609
    18.7668  18.7669  18.8320  18.9003  18.9331  18.9332  18.9382  18.9382
    18.9448  19.0372  19.0372  19.0615  19.0616  19.0636  19.0636  19.0656
    19.0897  19.0897  19.0918  19.0919  19.1897  19.2670  19.3849  19.4607
    19.4607  19.9481  19.9482  20.0391  20.7376  20.7376  21.7786  21.7786
    22.1702  22.1702  22.9307  22.9308  23.3026  23.3026  23.3535  23.3536
    23.7713  23.7714  24.9447  24.9447  24.9567  25.7548  26.1435  26.1436
    26.3208  26.3209  26.5708  26.5708  26.7284  26.7284  27.1349  27.1350
    27.2297  27.2733  27.2735  28.5618  28.9375  29.5154  29.8248  29.8280
    29.8281  29.9631  30.4018  30.4019  30.5540  30.5541  30.9894  30.9895
    31.4013  31.4015

          k = 0.0555 0.3889-0.5000 ( 33090 PWs)   bands (ev):

   -64.8945 -64.8938 -64.8878 -64.8871 -64.8724 -64.8717 -64.8693 -64.8685
   -64.8682 -64.8674 -64.8657 -64.8649 -64.8566 -64.8559 -64.8546 -64.8542
   -64.8538 -64.8535 -64.8535 -64.8528 -64.8523 -64.8518 -64.8516 -64.8515
   -64.8510 -64.8507 -64.8500 -64.8492 -64.8472 -64.8465 -64.8461 -64.8453
   -30.7513 -30.7511 -30.7508 -30.7505 -30.7316 -30.7315 -30.7314 -30.7314
   -30.7271 -30.7264 -30.7239 -30.7231 -30.7199 -30.7192 -30.7185 -30.7181
   -30.7133 -30.7128 -30.7056 -30.7052 -30.7046 -30.7040 -30.7006 -30.6998
   -30.6873 -30.6869 -30.6705 -30.6702 -30.6492 -30.6492 -30.6245 -30.6244
   -30.5906 -30.5905 -30.5874 -30.5872 -30.5830 -30.5822 -30.5784 -30.5777
   -30.5643 -30.5642 -30.5593 -30.5585 -30.5584 -30.5577 -30.5569 -30.5568
   -30.5541 -30.5540 -30.5432 -30.5426 -30.5372 -30.5371 -30.5354 -30.5347
   -30.5292 -30.5287 -30.5260 -30.5259 -30.5212 -30.5211 -30.5196 -30.5191
   -30.5124 -30.5122 -30.5119 -30.5118 -30.4993 -30.4992 -30.4986 -30.4986
   -30.4985 -30.4978 -30.4946 -30.4943 -30.4855 -30.4847 -30.4841 -30.4837
   -30.4827 -30.4824 -30.4813 -30.4807 -30.4725 -30.4724 -30.4721 -30.4717
   -30.4712 -30.4704 -30.4541 -30.4533 -30.4371 -30.4370 -30.4314 -30.4313
    13.3438  13.3447  13.8582  13.8591  14.4106  14.4108  14.5118  14.5122
    14.5159  14.5160  14.5514  14.5516  14.6041  14.6049  14.6407  14.6408
    14.6549  14.6557  14.7702  14.7703  14.7918  14.7927  14.8365  14.8366
    14.8406  14.8407  14.8504  14.8511  14.8942  14.8948  14.9657  14.9665
    15.0326  15.0329  15.0538  15.0543  15.1239  15.1248  15.1326  15.1328
    15.1437  15.1438  15.3834  15.3835  15.6020  15.6026  15.6077  15.6084
    15.8330  15.8336  15.8402  15.8409  15.9394  15.9397  16.0703  16.0706
    16.0764  16.0766  16.2188  16.2188  16.3011  16.3017  16.4390  16.4395
    16.4856  16.4856  16.5040  16.5042  16.6159  16.6160  16.6507  16.6509
    16.7355  16.7360  16.7882  16.7887  16.7948  16.7951  16.7962  16.7964
    16.7979  16.7980  16.8241  16.8245  16.8877  16.8878  16.9092  16.9092
    16.9372  16.9373  16.9952  16.9954  17.0011  17.0014  17.0097  17.0102
    17.0137  17.0141  17.0462  17.0464  17.1286  17.1289  17.1393  17.1397
    17.1590  17.1592  17.3565  17.3568  17.4594  17.4598  17.4736  17.4740
    17.5046  17.5048  17.5387  17.5392  17.5529  17.5536  17.6575  17.6582
    18.1039  18.1046  18.2105  18.2110  18.3692  18.3698  18.3810  18.3817
    18.3938  18.3945  18.5086  18.5089  18.6102  18.6109  18.6456  18.6463
    18.6558  18.6560  18.6814  18.6821  18.7885  18.7886  18.8556  18.8562
    18.8618  18.8624  18.9225  18.9228  18.9509  18.9511  18.9662  18.9664
    18.9995  18.9997  19.0025  19.0028  19.0172  19.0174  19.0217  19.0218
    19.0719  19.0726  19.0985  19.0986  19.1299  19.1302  19.3726  19.3733
    19.5699  19.5702  19.9427  19.9433  21.2560  21.2564  21.4292  21.4297
    22.5146  22.5151  22.7320  22.7325  23.2221  23.2227  23.4564  23.4569
    24.1605  24.1606  24.4548  24.4549  25.5235  25.5241  26.3658  26.3659
    26.4286  26.4287  26.4929  26.4933  26.5923  26.5924  26.7115  26.7120
    26.7820  26.7826  27.9024  27.9026  29.6388  29.6389  29.8066  29.8075
    29.8779  29.8788  30.2260  30.2261  30.9546  30.9554  31.0627  31.0628
    31.1069  31.1070

          k = 0.0555-0.5000-0.5000 ( 33032 PWs)   bands (ev):

   -64.8916 -64.8913 -64.8909 -64.8906 -64.8711 -64.8708 -64.8704 -64.8701
   -64.8672 -64.8669 -64.8665 -64.8662 -64.8533 -64.8532 -64.8530 -64.8529
   -64.8529 -64.8529 -64.8528 -64.8526 -64.8525 -64.8525 -64.8522 -64.8522
   -64.8521 -64.8521 -64.8520 -64.8518 -64.8467 -64.8465 -64.8460 -64.8457
   -30.7428 -30.7428 -30.7427 -30.7427 -30.7426 -30.7426 -30.7425 -30.7425
   -30.7172 -30.7172 -30.7170 -30.7169 -30.7166 -30.7166 -30.7163 -30.7163
   -30.7132 -30.7129 -30.7125 -30.7121 -30.7033 -30.7032 -30.7029 -30.7027
   -30.6885 -30.6883 -30.6881 -30.6879 -30.6371 -30.6371 -30.6370 -30.6370
   -30.5713 -30.5713 -30.5713 -30.5713 -30.5713 -30.5713 -30.5713 -30.5713
   -30.5698 -30.5698 -30.5695 -30.5694 -30.5691 -30.5690 -30.5687 -30.5687
   -30.5421 -30.5421 -30.5421 -30.5421 -30.5324 -30.5324 -30.5322 -30.5322
   -30.5319 -30.5318 -30.5317 -30.5315 -30.5307 -30.5307 -30.5307 -30.5306
   -30.5064 -30.5064 -30.5062 -30.5061 -30.5059 -30.5058 -30.5056 -30.5056
   -30.4916 -30.4915 -30.4912 -30.4911 -30.4861 -30.4861 -30.4861 -30.4861
   -30.4776 -30.4776 -30.4776 -30.4775 -30.4764 -30.4762 -30.4759 -30.4758
   -30.4626 -30.4623 -30.4618 -30.4615 -30.4327 -30.4327 -30.4326 -30.4326
    13.5799  13.5806  13.5809  13.5815  14.4494  14.4496  14.4497  14.4498
    14.5663  14.5664  14.5664  14.5665  14.6444  14.6445  14.6446  14.6447
    14.7733  14.7734  14.7739  14.7739  14.7741  14.7742  14.7746  14.7747
    14.9412  14.9412  14.9417  14.9418  14.9419  14.9421  14.9425  14.9425
    14.9817  14.9818  14.9818  14.9818  14.9819  14.9819  14.9819  14.9820
    15.2035  15.2036  15.2037  15.2038  15.7115  15.7116  15.7119  15.7120
    15.7122  15.7123  15.7126  15.7127  16.0208  16.0210  16.0211  16.0212
    16.2595  16.2599  16.2601  16.2605  16.4489  16.4492  16.4495  16.4498
    16.5689  16.5691  16.5692  16.5694  16.5803  16.5804  16.5805  16.5807
    16.8001  16.8004  16.8005  16.8008  16.8351  16.8351  16.8352  16.8352
    16.8353  16.8353  16.8354  16.8355  16.8921  16.8922  16.8922  16.8925
    16.9017  16.9018  16.9020  16.9021  17.0086  17.0087  17.0089  17.0090
    17.1236  17.1236  17.1237  17.1239  17.1240  17.1241  17.1242  17.1243
    17.2794  17.2797  17.2797  17.2800  17.2961  17.2961  17.2963  17.2963
    17.2965  17.2965  17.2967  17.2967  17.6024  17.6026  17.6031  17.6033
    18.2494  18.2496  18.2501  18.2503  18.3344  18.3346  18.3348  18.3350
    18.5348  18.5349  18.5350  18.5351  18.5354  18.5355  18.5356  18.5357
    18.8536  18.8537  18.8540  18.8541  18.8791  18.8791  18.8792  18.8794
    18.8796  18.8798  18.8798  18.8799  18.9927  18.9928  18.9931  18.9932
    19.0274  19.0276  19.0276  19.0277  19.0286  19.0286  19.0287  19.0287
    19.0288  19.0289  19.0289  19.0289  19.0950  19.0952  19.0954  19.0956
    19.6770  19.6772  19.6774  19.6776  21.9692  21.9694  21.9695  21.9696
    21.9697  21.9698  21.9699  21.9701  23.9259  23.9260  23.9260  23.9262
    23.9262  23.9264  23.9264  23.9265  26.0503  26.0508  26.0510  26.0515
    26.3982  26.3982  26.3983  26.3984  26.3984  26.3985  26.3985  26.3985
    27.1780  27.1783  27.1784  27.1785  29.8257  29.8260  29.8266  29.8269
    30.3467  30.3468  30.3469  30.3469  30.9379  30.9380  30.9380  30.9381
    31.5073  31.5075

          k = 0.1664 0.0556 0.0556 ( 33041 PWs)   bands (ev):

   -64.9072 -64.8848 -64.8787 -64.8787 -64.8733 -64.8732 -64.8685 -64.8665
   -64.8664 -64.8634 -64.8630 -64.8629 -64.8614 -64.8606 -64.8606 -64.8603
   -64.8602 -64.8599 -64.8580 -64.8575 -64.8574 -64.8554 -64.8554 -64.8464
   -64.8455 -64.8454 -64.8453 -64.8451 -64.8447 -64.8447 -64.8445 -64.8443
   -30.7889 -30.7872 -30.7872 -30.7840 -30.7682 -30.7681 -30.7656 -30.7059
   -30.7008 -30.7007 -30.6954 -30.6953 -30.6949 -30.6949 -30.6942 -30.6942
   -30.6928 -30.6824 -30.6824 -30.6797 -30.6796 -30.6750 -30.6750 -30.6712
   -30.6712 -30.6603 -30.6603 -30.6542 -30.6542 -30.6464 -30.6407 -30.6407
   -30.6219 -30.6219 -30.6080 -30.6080 -30.5928 -30.5928 -30.5921 -30.5921
   -30.5806 -30.5666 -30.5666 -30.5656 -30.5656 -30.5625 -30.5625 -30.5609
   -30.5608 -30.5589 -30.5588 -30.5582 -30.5567 -30.5563 -30.5563 -30.5562
   -30.5559 -30.5558 -30.5526 -30.5479 -30.5479 -30.5081 -30.5077 -30.4997
   -30.4997 -30.4932 -30.4931 -30.4883 -30.4882 -30.4872 -30.4871 -30.4850
   -30.4849 -30.4827 -30.4804 -30.4804 -30.4802 -30.4801 -30.4798 -30.4763
   -30.4756 -30.4750 -30.4750 -30.4748 -30.4747 -30.4729 -30.4728 -30.4724
   -30.4717 -30.4714 -30.4681 -30.4640 -30.4639 -30.4293 -30.4226 -30.4218
    12.3367  13.9886  14.0554  14.0674  14.0674  14.1167  14.1440  14.1441
    14.1574  14.3234  14.3379  14.3379  14.3439  14.3440  14.5397  14.5398
    14.5525  14.9432  14.9433  15.0048  15.0687  15.0688  15.0756  15.0757
    15.1027  15.1833  15.1833  15.2137  15.2137  15.2225  15.2294  15.2295
    15.3759  15.3760  15.3960  15.3961  15.4072  15.4072  15.4439  15.4439
    15.4898  15.4899  15.5555  15.7451  15.7451  15.7656  15.7657  15.8114
    15.8114  15.8208  15.8209  15.8791  15.8792  15.9670  15.9671  15.9776
    16.0230  16.0230  16.0697  16.0785  16.0786  16.0822  16.0822  16.1228
    16.1229  16.1657  16.1657  16.1960  16.1960  16.3500  16.3719  16.3719
    16.3772  16.3773  16.3975  16.3976  16.4022  16.4117  16.4435  16.4483
    16.4530  16.4681  16.4681  16.4796  16.4991  16.5031  16.5042  16.5042
    17.0746  17.0747  17.1851  17.1853  17.2103  17.2104  17.2646  17.2646
    17.2820  17.3291  17.3447  17.3447  17.4637  17.4753  17.4754  17.4883
    17.4884  17.5264  17.5264  17.5334  17.5335  17.7475  17.7476  17.7633
    17.7729  17.7730  17.8418  17.8419  17.9221  17.9222  17.9303  17.9304
    17.9310  17.9311  17.9438  18.0123  18.0161  18.0205  18.0206  18.0521
    18.1394  18.1395  18.1495  18.1495  18.1825  18.1826  18.2404  18.2549
    18.2549  18.2861  18.4024  18.5390  18.5391  18.6679  18.6679  18.6686
    18.7023  18.7181  18.7181  18.9330  19.0405  19.0405  19.0598  19.0801
    19.1191  19.1215  19.1215  19.1459  19.1459  19.3089  19.3592  19.3592
    19.3604  19.3604  19.3747  19.4378  19.4378  19.4390  19.4390  20.0970
    20.4646  20.4647  20.5811  20.5812  20.8113  20.9079  20.9477  20.9477
    21.4248  21.4248  21.9583  22.0024  22.0024  22.1712  22.5429  22.5429
    22.8530  22.8530  26.2956  26.4552  26.4553  26.7258  26.7259  26.7347
    26.7347  26.7500  27.3190  27.3190  27.5961  27.5962  28.2806  28.2807
    28.7799  28.7799  29.6100  29.6100  29.6994  29.7142  29.7142  29.8670
    29.8670  29.9398  29.9398  30.1374  30.1563  30.1564  30.2431  30.2431
    30.7044  30.7045

          k = 0.1664 0.0556 0.1667 ( 33051 PWs)   bands (ev):

   -64.9063 -64.8842 -64.8841 -64.8782 -64.8728 -64.8699 -64.8681 -64.8678
   -64.8664 -64.8663 -64.8630 -64.8629 -64.8623 -64.8608 -64.8597 -64.8597
   -64.8594 -64.8592 -64.8576 -64.8575 -64.8556 -64.8555 -64.8534 -64.8464
   -64.8459 -64.8458 -64.8455 -64.8454 -64.8452 -64.8452 -64.8450 -64.8443
   -30.7861 -30.7861 -30.7815 -30.7768 -30.7650 -30.7634 -30.7629 -30.7085
   -30.7077 -30.7060 -30.7051 -30.6965 -30.6956 -30.6943 -30.6933 -30.6925
   -30.6923 -30.6917 -30.6912 -30.6909 -30.6835 -30.6832 -30.6822 -30.6813
   -30.6578 -30.6515 -30.6513 -30.6501 -30.6497 -30.6458 -30.6448 -30.6378
   -30.6367 -30.6271 -30.6235 -30.5994 -30.5946 -30.5944 -30.5807 -30.5806
   -30.5769 -30.5764 -30.5710 -30.5640 -30.5638 -30.5633 -30.5618 -30.5570
   -30.5567 -30.5565 -30.5562 -30.5561 -30.5552 -30.5547 -30.5532 -30.5527
   -30.5514 -30.5512 -30.5391 -30.5388 -30.5335 -30.5120 -30.5109 -30.5056
   -30.5055 -30.4968 -30.4951 -30.4937 -30.4879 -30.4878 -30.4875 -30.4870
   -30.4847 -30.4841 -30.4837 -30.4837 -30.4834 -30.4826 -30.4790 -30.4780
   -30.4778 -30.4771 -30.4748 -30.4742 -30.4740 -30.4730 -30.4724 -30.4724
   -30.4680 -30.4679 -30.4643 -30.4638 -30.4574 -30.4372 -30.4246 -30.4218
    12.4092  14.0413  14.0461  14.1020  14.1020  14.1091  14.1295  14.1706
    14.2105  14.2106  14.3651  14.3653  14.3830  14.3845  14.5780  14.6049
    14.6094  14.9659  14.9700  14.9858  14.9908  15.0158  15.0159  15.0349
    15.0392  15.0592  15.1096  15.1096  15.1287  15.1292  15.2512  15.2548
    15.2562  15.2634  15.2648  15.3161  15.4276  15.4557  15.4565  15.4595
    15.4614  15.4906  15.4914  15.5732  15.5810  15.7207  15.7241  15.8065
    15.8071  15.8176  15.9090  15.9119  15.9242  15.9264  15.9855  15.9878
    15.9974  16.0545  16.0614  16.0640  16.0699  16.1189  16.1231  16.2202
    16.2669  16.2684  16.3071  16.3115  16.3200  16.3205  16.3699  16.3882
    16.4260  16.4265  16.4297  16.4309  16.4312  16.4453  16.4490  16.4635
    16.4948  16.4983  16.4987  16.5002  16.5083  16.5226  16.5271  16.5318
    16.9734  17.0267  17.0331  17.0825  17.1835  17.1899  17.2921  17.3105
    17.3127  17.3183  17.3195  17.3715  17.3758  17.3947  17.3991  17.4493
    17.4537  17.4606  17.5378  17.6091  17.6199  17.6209  17.6388  17.6398
    17.6612  17.9176  17.9178  17.9334  17.9358  17.9365  18.0028  18.0080
    18.0096  18.0238  18.0262  18.0291  18.0341  18.0350  18.1154  18.1176
    18.1432  18.1436  18.3222  18.3247  18.3627  18.3743  18.3769  18.3787
    18.4194  18.4212  18.4233  18.4299  18.4822  18.4838  18.5139  18.5545
    18.6776  18.7848  18.8373  18.8389  18.9706  18.9725  18.9731  18.9902
    19.0887  19.1168  19.1174  19.1326  19.1348  19.1479  19.3016  19.3020
    19.3582  19.3618  19.3664  19.3690  19.3733  19.3779  19.3966  19.8157
    20.0341  20.4332  20.4404  20.4798  20.9240  20.9329  21.1057  21.1062
    21.4934  21.4953  21.9898  22.0032  22.4620  22.4891  22.5309  22.5453
    23.1149  23.1267  26.1006  26.1160  26.2936  26.2943  26.7562  26.8147
    26.8406  26.8710  26.8831  27.1565  27.4480  27.4741  27.8855  27.8989
    28.9073  28.9222  29.1797  29.2024  29.5943  29.6954  29.7187  29.7413
    29.8295  29.8309  30.0447  30.0573  30.1280  30.1725  30.5292  30.5408
    30.8205  30.8429

          k = 0.1664 0.0556 0.2778 ( 33038 PWs)   bands (ev):

   -64.9044 -64.8892 -64.8830 -64.8772 -64.8732 -64.8720 -64.8690 -64.8674
   -64.8660 -64.8651 -64.8632 -64.8628 -64.8627 -64.8615 -64.8613 -64.8591
   -64.8586 -64.8576 -64.8562 -64.8559 -64.8548 -64.8534 -64.8515 -64.8476
   -64.8468 -64.8466 -64.8464 -64.8463 -64.8457 -64.8455 -64.8451 -64.8443
   -30.7807 -30.7793 -30.7721 -30.7658 -30.7588 -30.7573 -30.7540 -30.7250
   -30.7214 -30.7112 -30.7087 -30.7085 -30.7085 -30.7082 -30.6990 -30.6975
   -30.6973 -30.6920 -30.6912 -30.6890 -30.6879 -30.6856 -30.6837 -30.6768
   -30.6696 -30.6556 -30.6535 -30.6465 -30.6425 -30.6414 -30.6381 -30.6362
   -30.6323 -30.6290 -30.6196 -30.6107 -30.6075 -30.5942 -30.5907 -30.5789
   -30.5763 -30.5749 -30.5684 -30.5633 -30.5613 -30.5590 -30.5569 -30.5561
   -30.5551 -30.5547 -30.5525 -30.5477 -30.5446 -30.5432 -30.5423 -30.5396
   -30.5385 -30.5361 -30.5258 -30.5253 -30.5238 -30.5197 -30.5175 -30.5164
   -30.5017 -30.5010 -30.5006 -30.4991 -30.4966 -30.4962 -30.4961 -30.4949
   -30.4907 -30.4875 -30.4870 -30.4846 -30.4844 -30.4840 -30.4805 -30.4797
   -30.4793 -30.4774 -30.4773 -30.4768 -30.4734 -30.4725 -30.4712 -30.4651
   -30.4632 -30.4625 -30.4621 -30.4562 -30.4536 -30.4496 -30.4288 -30.4240
    12.5524  13.6994  14.1435  14.1687  14.1827  14.1906  14.1928  14.2372
    14.3025  14.3149  14.4195  14.4484  14.4611  14.4724  14.5767  14.6496
    14.7069  14.7853  14.8106  14.8416  14.8686  14.8769  14.8847  14.9172
    15.0063  15.0201  15.0430  15.0534  15.0694  15.0950  15.1724  15.1805
    15.1894  15.2046  15.2365  15.2854  15.3274  15.3466  15.3773  15.4784
    15.4911  15.5012  15.5433  15.6069  15.6497  15.6670  15.6722  15.7629
    15.7678  15.7788  15.7954  15.8100  15.8599  15.9206  15.9321  15.9750
    15.9777  15.9881  16.0747  16.1282  16.1716  16.1753  16.2246  16.2359
    16.2486  16.2536  16.2700  16.2946  16.3277  16.3500  16.3501  16.3813
    16.4077  16.4325  16.4848  16.5076  16.5374  16.5549  16.5560  16.5589
    16.5906  16.6069  16.6091  16.6205  16.6384  16.7398  16.8198  16.8464
    16.8707  16.8821  16.9083  16.9986  17.0119  17.1077  17.1207  17.1354
    17.2071  17.2245  17.2411  17.3146  17.3155  17.3939  17.3974  17.5046
    17.5181  17.5378  17.5472  17.5956  17.6414  17.7250  17.7782  17.7806
    17.7984  17.8756  17.8861  17.9017  17.9337  17.9797  18.0169  18.0236
    18.0485  18.0937  18.0982  18.1387  18.1466  18.1569  18.1582  18.1684
    18.1762  18.2068  18.2789  18.3175  18.3411  18.3733  18.4033  18.4685
    18.4778  18.5053  18.5098  18.5145  18.5217  18.5403  18.5435  18.6294
    18.6424  18.6600  18.7546  18.8350  18.8661  18.8888  18.9656  18.9843
    19.0538  19.0932  19.0948  19.0959  19.1807  19.1940  19.1944  19.1998
    19.2334  19.2368  19.2707  19.3575  19.3631  19.3705  19.3731  19.6452
    19.8469  20.0111  20.3698  20.4718  20.5066  20.8760  21.0061  21.3932
    21.5918  21.8826  21.9590  22.1170  22.4961  22.6524  22.9402  23.1960
    23.5678  23.7652  25.2827  25.4538  25.9387  26.1687  26.2968  26.4440
    26.4682  26.9462  27.1298  27.1589  27.1851  27.6583  27.6623  28.3136
    28.4154  28.6838  28.8448  29.0277  29.1401  29.2212  29.4757  29.6511
    29.8293  29.9289  29.9482  30.1082  30.1875  30.4267  30.5183  30.5426
    30.7622  30.8323

          k = 0.1664 0.0556 0.3889 ( 33062 PWs)   bands (ev):

   -64.9017 -64.8939 -64.8813 -64.8763 -64.8757 -64.8715 -64.8708 -64.8672
   -64.8664 -64.8656 -64.8640 -64.8633 -64.8626 -64.8616 -64.8588 -64.8580
   -64.8578 -64.8578 -64.8563 -64.8532 -64.8523 -64.8513 -64.8503 -64.8497
   -64.8482 -64.8481 -64.8478 -64.8467 -64.8463 -64.8455 -64.8451 -64.8444
   -30.7714 -30.7688 -30.7592 -30.7515 -30.7498 -30.7490 -30.7426 -30.7405
   -30.7388 -30.7261 -30.7255 -30.7243 -30.7161 -30.7080 -30.7061 -30.7013
   -30.7012 -30.7007 -30.6995 -30.6956 -30.6865 -30.6827 -30.6789 -30.6724
   -30.6631 -30.6602 -30.6554 -30.6509 -30.6478 -30.6394 -30.6308 -30.6260
   -30.6250 -30.6245 -30.6196 -30.6140 -30.6072 -30.6037 -30.6034 -30.5920
   -30.5888 -30.5777 -30.5569 -30.5562 -30.5545 -30.5541 -30.5536 -30.5526
   -30.5474 -30.5462 -30.5442 -30.5363 -30.5348 -30.5330 -30.5323 -30.5311
   -30.5285 -30.5273 -30.5246 -30.5224 -30.5147 -30.5139 -30.5107 -30.5105
   -30.5101 -30.5098 -30.5095 -30.5076 -30.5071 -30.5070 -30.5070 -30.4964
   -30.4944 -30.4940 -30.4874 -30.4866 -30.4859 -30.4853 -30.4846 -30.4835
   -30.4825 -30.4813 -30.4757 -30.4747 -30.4740 -30.4713 -30.4693 -30.4662
   -30.4662 -30.4630 -30.4573 -30.4524 -30.4523 -30.4455 -30.4350 -30.4290
    12.7625  13.3511  14.2620  14.2761  14.2891  14.3086  14.3227  14.3432
    14.4318  14.4547  14.4856  14.4996  14.5651  14.5728  14.5799  14.6040
    14.6305  14.6630  14.6666  14.6690  14.7307  14.7452  14.7943  14.8051
    14.8260  14.8515  14.9405  14.9589  14.9758  15.0566  15.1695  15.1855
    15.1905  15.2104  15.2490  15.3045  15.3099  15.4334  15.4439  15.4651
    15.4939  15.5106  15.5703  15.5864  15.6032  15.6123  15.6138  15.6219
    15.6529  15.7003  15.7555  15.7873  15.7958  15.8547  15.9353  15.9567
    15.9896  16.0361  16.1427  16.1516  16.1795  16.2045  16.2242  16.2252
    16.2267  16.2277  16.2734  16.3168  16.3245  16.3303  16.3459  16.3672
    16.4177  16.4459  16.4610  16.5845  16.5932  16.6451  16.6500  16.6653
    16.6708  16.6769  16.7161  16.7248  16.7430  16.8068  16.8120  16.8205
    16.9050  16.9197  16.9283  17.0072  17.0355  17.0582  17.0965  17.1166
    17.2769  17.2913  17.3135  17.3303  17.3396  17.3624  17.4596  17.5520
    17.5524  17.5711  17.6343  17.6828  17.7320  17.7460  17.7560  17.7561
    17.7752  17.7816  17.8305  17.8624  17.9017  17.9251  17.9305  17.9358
[...]
    23.5154  23.5154  24.2383  24.2385  24.3845  24.3847  25.0129  25.0131
    26.5732  26.5733  26.7288  26.7289  26.9228  26.9229  27.4546  27.4547
    27.7426  27.7428  28.2314  28.2315  28.5317  28.5318  29.1467  29.1469
    29.3510  29.3510  29.9660  29.9660  30.2495  30.2495  30.4628  30.4631
    31.3541  31.3543

          k =-0.4992 0.2778-0.5000 ( 33056 PWs)   bands (ev):

   -64.8896 -64.8894 -64.8888 -64.8886 -64.8786 -64.8784 -64.8778 -64.8776
   -64.8595 -64.8593 -64.8587 -64.8585 -64.8535 -64.8533 -64.8532 -64.8531
   -64.8530 -64.8528 -64.8528 -64.8527 -64.8527 -64.8525 -64.8524 -64.8523
   -64.8522 -64.8521 -64.8520 -64.8519 -64.8485 -64.8483 -64.8477 -64.8475
   -30.7386 -30.7386 -30.7385 -30.7385 -30.7383 -30.7383 -30.7378 -30.7378
   -30.7243 -30.7242 -30.7240 -30.7239 -30.7238 -30.7237 -30.7234 -30.7232
   -30.7218 -30.7217 -30.7214 -30.7212 -30.7212 -30.7211 -30.7206 -30.7205
   -30.6514 -30.6513 -30.6511 -30.6510 -30.6117 -30.6117 -30.6115 -30.6115
   -30.5715 -30.5715 -30.5714 -30.5714 -30.5712 -30.5712 -30.5711 -30.5711
   -30.5711 -30.5710 -30.5707 -30.5707 -30.5706 -30.5705 -30.5701 -30.5700
   -30.5672 -30.5671 -30.5670 -30.5670 -30.5287 -30.5287 -30.5284 -30.5283
   -30.5274 -30.5274 -30.5274 -30.5274 -30.5265 -30.5264 -30.5258 -30.5258
   -30.5257 -30.5256 -30.5254 -30.5252 -30.5102 -30.5101 -30.5095 -30.5094
   -30.5093 -30.5092 -30.5090 -30.5089 -30.5033 -30.5033 -30.5033 -30.5033
   -30.4614 -30.4614 -30.4614 -30.4614 -30.4546 -30.4545 -30.4542 -30.4541
   -30.4530 -30.4529 -30.4524 -30.4523 -30.4374 -30.4374 -30.4374 -30.4373
    13.6814  13.6817  13.6822  13.6825  14.1736  14.1738  14.1741  14.1742
    14.6927  14.6927  14.6927  14.6927  14.7111  14.7112  14.7115  14.7116
    14.7120  14.7120  14.7127  14.7128  14.7185  14.7186  14.7187  14.7187
    14.8652  14.8653  14.8653  14.8654  14.8654  14.8656  14.8658  14.8658
    15.1785  15.1785  15.1793  15.1793  15.1796  15.1796  15.1800  15.1800
    15.2835  15.2835  15.2836  15.2836  15.7201  15.7205  15.7208  15.7211
    15.7214  15.7217  15.7221  15.7223  15.8494  15.8496  15.8499  15.8501
    16.1596  16.1599  16.1599  16.1599  16.5692  16.5693  16.5696  16.5697
    16.7035  16.7035  16.7035  16.7035  16.7064  16.7065  16.7068  16.7070
    16.7582  16.7583  16.7586  16.7586  16.7715  16.7716  16.7717  16.7718
    16.7730  16.7731  16.7732  16.7733  16.7836  16.7837  16.7840  16.7841
    16.8025  16.8025  16.8026  16.8028  17.0720  17.0721  17.0722  17.0724
    17.0771  17.0772  17.0777  17.0778  17.1593  17.1595  17.1596  17.1598
    17.2840  17.2841  17.2844  17.2845  17.4278  17.4279  17.4281  17.4281
    17.4306  17.4307  17.4309  17.4310  17.8012  17.8013  17.8018  17.8019
    18.0022  18.0023  18.0027  18.0028  18.0411  18.0412  18.0413  18.0414
    18.0440  18.0441  18.0447  18.0448  18.2580  18.2581  18.2584  18.2585
    18.3125  18.3125  18.3128  18.3129  18.5155  18.5156  18.5160  18.5161
    19.1266  19.1266  19.1267  19.1267  19.1282  19.1283  19.1284  19.1285
    19.1482  19.1484  19.1484  19.1486  19.1692  19.1692  19.1697  19.1697
    19.1720  19.1721  19.1722  19.1723  19.1857  19.1858  19.1861  19.1861
    21.1145  21.1146  21.1150  21.1152  22.2300  22.2301  22.2305  22.2306
    22.2420  22.2422  22.2425  22.2427  23.4615  23.4616  23.4622  23.4622
    23.4746  23.4748  23.4749  23.4750  24.6316  24.6318  24.6323  24.6325
    27.0496  27.0497  27.0502  27.0503  27.0637  27.0638  27.0638  27.0640
    27.5212  27.5214  27.5216  27.5216  29.2155  29.2156  29.2157  29.2157
    29.7681  29.7682  29.7690  29.7690  29.7831  29.7832  29.7833  29.7834
    31.4547  31.4553

          k =-0.4992 0.3889 0.3889 ( 33044 PWs)   bands (ev):

   -64.8900 -64.8898 -64.8840 -64.8839 -64.8838 -64.8837 -64.8789 -64.8787
   -64.8562 -64.8560 -64.8560 -64.8558 -64.8554 -64.8553 -64.8552 -64.8550
   -64.8534 -64.8532 -64.8531 -64.8530 -64.8525 -64.8523 -64.8522 -64.8521
   -64.8505 -64.8504 -64.8503 -64.8502 -64.8498 -64.8497 -64.8496 -64.8494
   -30.7407 -30.7407 -30.7367 -30.7367 -30.7365 -30.7364 -30.7294 -30.7293
   -30.7292 -30.7292 -30.7278 -30.7277 -30.7276 -30.7275 -30.7271 -30.7271
   -30.7270 -30.7270 -30.7230 -30.7229 -30.7210 -30.7209 -30.7208 -30.7208
   -30.6512 -30.6511 -30.6089 -30.6089 -30.6089 -30.6089 -30.5937 -30.5937
   -30.5936 -30.5936 -30.5894 -30.5894 -30.5894 -30.5893 -30.5752 -30.5751
   -30.5751 -30.5751 -30.5676 -30.5676 -30.5668 -30.5667 -30.5654 -30.5654
   -30.5517 -30.5517 -30.5516 -30.5516 -30.5490 -30.5489 -30.5489 -30.5489
   -30.5284 -30.5284 -30.5283 -30.5282 -30.5250 -30.5248 -30.5187 -30.5186
   -30.5186 -30.5186 -30.5178 -30.5178 -30.5176 -30.5176 -30.5144 -30.5143
   -30.5143 -30.5143 -30.5073 -30.5071 -30.5069 -30.5068 -30.5068 -30.5068
   -30.4583 -30.4582 -30.4558 -30.4558 -30.4557 -30.4557 -30.4508 -30.4507
   -30.4452 -30.4452 -30.4452 -30.4451 -30.4442 -30.4440 -30.4398 -30.4398
    13.6140  13.6143  13.9637  13.9637  13.9639  13.9640  14.1123  14.1125
    14.6446  14.6449  14.6675  14.6675  14.6676  14.6676  14.7499  14.7499
    14.7500  14.7500  14.7613  14.7613  14.7615  14.7615  14.7991  14.7993
    14.8087  14.8087  14.8087  14.8088  14.8125  14.8126  14.8128  14.8129
    15.1627  15.1631  15.2099  15.2099  15.2099  15.2099  15.4986  15.4986
    15.4987  15.4988  15.5059  15.5059  15.5062  15.5063  15.5255  15.5256
    15.5256  15.5257  15.7463  15.7467  15.7876  15.7877  15.7879  15.7879
    16.2254  16.2255  16.3197  16.3198  16.3199  16.3199  16.6552  16.6553
    16.7078  16.7079  16.7544  16.7545  16.7579  16.7579  16.7579  16.7580
    16.7724  16.7727  16.7787  16.7788  16.7788  16.7789  16.7836  16.7836
    16.7837  16.7837  16.7866  16.7867  16.7888  16.7889  16.7889  16.7890
    16.8417  16.8417  16.8418  16.8418  16.8641  16.8642  16.8838  16.8839
    16.8839  16.8840  17.1892  17.1892  17.1893  17.1893  17.2329  17.2330
    17.3426  17.3426  17.3427  17.3428  17.3667  17.3668  17.6258  17.6259
    17.6259  17.6260  17.6955  17.6956  17.6956  17.6957  17.7220  17.7220
    17.7220  17.7221  17.9218  17.9220  17.9434  17.9435  17.9954  17.9954
    17.9955  17.9956  17.9958  17.9959  17.9959  17.9960  18.1157  18.1159
    18.2197  18.2198  18.3603  18.3604  18.3604  18.3604  18.4672  18.4674
    19.1501  19.1501  19.1502  19.1502  19.1659  19.1660  19.1706  19.1706
    19.1706  19.1706  19.1987  19.1987  19.1987  19.1988  19.2003  19.2003
    19.2004  19.2004  19.2326  19.2327  19.2328  19.2328  19.2543  19.2544
    21.6644  21.6645  21.6646  21.6647  22.1015  22.1017  22.2512  22.2513
    22.2514  22.2515  22.9071  22.9072  22.9072  22.9073  23.3512  23.3512
    23.3713  23.3714  23.3715  23.3716  24.0761  24.0761  24.0763  24.0763
    27.0113  27.0115  27.2188  27.2188  27.2189  27.2189  28.0378  28.0379
    28.0382  28.0383  28.3315  28.3317  28.3317  28.3319  28.5592  28.5592
    28.5594  28.5594  29.4436  29.4436  29.4436  29.4436  29.6967  29.6969
    32.1213  32.1215

          k =-0.4992 0.3889-0.5000 ( 33072 PWs)   bands (ev):

   -64.8876 -64.8874 -64.8868 -64.8866 -64.8820 -64.8818 -64.8813 -64.8811
   -64.8561 -64.8559 -64.8553 -64.8552 -64.8535 -64.8533 -64.8532 -64.8531
   -64.8530 -64.8528 -64.8528 -64.8527 -64.8527 -64.8525 -64.8524 -64.8523
   -64.8522 -64.8521 -64.8520 -64.8519 -64.8504 -64.8503 -64.8497 -64.8495
   -30.7349 -30.7347 -30.7347 -30.7346 -30.7344 -30.7344 -30.7340 -30.7339
   -30.7292 -30.7291 -30.7288 -30.7287 -30.7286 -30.7286 -30.7282 -30.7281
   -30.7260 -30.7258 -30.7256 -30.7255 -30.7254 -30.7253 -30.7248 -30.7247
   -30.6302 -30.6301 -30.6299 -30.6298 -30.5923 -30.5923 -30.5921 -30.5921
   -30.5869 -30.5868 -30.5867 -30.5866 -30.5716 -30.5716 -30.5714 -30.5714
   -30.5713 -30.5712 -30.5712 -30.5711 -30.5711 -30.5711 -30.5710 -30.5710
   -30.5708 -30.5707 -30.5707 -30.5706 -30.5498 -30.5497 -30.5495 -30.5494
   -30.5231 -30.5231 -30.5231 -30.5231 -30.5224 -30.5223 -30.5216 -30.5216
   -30.5214 -30.5212 -30.5212 -30.5210 -30.5137 -30.5136 -30.5129 -30.5129
   -30.5126 -30.5125 -30.5124 -30.5123 -30.5108 -30.5108 -30.5108 -30.5108
   -30.4539 -30.4539 -30.4539 -30.4539 -30.4492 -30.4491 -30.4488 -30.4488
   -30.4487 -30.4487 -30.4483 -30.4481 -30.4417 -30.4417 -30.4417 -30.4417
    13.7776  13.7779  13.7784  13.7787  14.0310  14.0312  14.0316  14.0318
    14.7149  14.7149  14.7152  14.7152  14.7158  14.7158  14.7165  14.7165
    14.7244  14.7244  14.7245  14.7245  14.7464  14.7465  14.7466  14.7466
    14.7973  14.7975  14.7976  14.7978  14.7978  14.7979  14.7984  14.7985
    15.3373  15.3373  15.3381  15.3381  15.3388  15.3390  15.3392  15.3393
    15.3736  15.3737  15.3739  15.3739  15.6395  15.6397  15.6399  15.6402
    15.6403  15.6404  15.6405  15.6407  15.6608  15.6610  15.6612  15.6614
    16.2883  16.2885  16.2885  16.2885  16.5357  16.5358  16.5360  16.5360
    16.7242  16.7243  16.7244  16.7245  16.7363  16.7364  16.7369  16.7370
    16.7554  16.7555  16.7556  16.7557  16.7663  16.7664  16.7664  16.7666
    16.8054  16.8054  16.8055  16.8055  16.8215  16.8216  16.8217  16.8218
    16.8266  16.8267  16.8270  16.8271  17.0098  17.0098  17.0099  17.0100
    17.0167  17.0168  17.0173  17.0174  17.0483  17.0485  17.0486  17.0487
    17.4549  17.4550  17.4553  17.4554  17.5166  17.5166  17.5168  17.5169
    17.5218  17.5218  17.5221  17.5222  17.8124  17.8125  17.8126  17.8127
    17.8178  17.8179  17.8184  17.8184  17.8237  17.8238  17.8242  17.8243
    17.9634  17.9635  17.9639  17.9641  18.1624  18.1625  18.1627  18.1628
    18.1939  18.1940  18.1943  18.1944  18.3298  18.3299  18.3303  18.3304
    19.1907  19.1908  19.1909  19.1910  19.1928  19.1929  19.1931  19.1932
    19.2053  19.2054  19.2056  19.2057  19.2287  19.2288  19.2290  19.2291
    19.2299  19.2299  19.2303  19.2303  19.2326  19.2327  19.2328  19.2329
    21.9362  21.9364  21.9368  21.9370  22.4876  22.4877  22.4882  22.4883
    22.5006  22.5009  22.5011  22.5013  23.1314  23.1315  23.1321  23.1322
    23.1455  23.1457  23.1458  23.1460  23.7193  23.7195  23.7200  23.7202
    27.5954  27.5955  27.5961  27.5962  27.6108  27.6110  27.6110  27.6111
    27.8417  27.8419  27.8420  27.8421  28.7034  28.7035  28.7037  28.7037
    28.9687  28.9688  28.9695  28.9696  28.9841  28.9842  28.9843  28.9844
    32.5249  32.5253

          k =-0.4992-0.5000-0.5000 ( 33016 PWs)   bands (ev):

   -64.8852 -64.8850 -64.8849 -64.8847 -64.8845 -64.8842 -64.8841 -64.8839
   -64.8537 -64.8535 -64.8534 -64.8532 -64.8532 -64.8530 -64.8530 -64.8529
   -64.8528 -64.8528 -64.8527 -64.8526 -64.8526 -64.8525 -64.8524 -64.8524
   -64.8523 -64.8522 -64.8521 -64.8520 -64.8520 -64.8519 -64.8518 -64.8516
   -30.7308 -30.7307 -30.7307 -30.7306 -30.7306 -30.7305 -30.7304 -30.7303
   -30.7303 -30.7302 -30.7302 -30.7301 -30.7301 -30.7301 -30.7301 -30.7300
   -30.7298 -30.7297 -30.7296 -30.7296 -30.7293 -30.7293 -30.7291 -30.7291
   -30.6084 -30.6083 -30.6083 -30.6082 -30.6081 -30.6081 -30.6080 -30.6080
   -30.5716 -30.5715 -30.5715 -30.5714 -30.5714 -30.5713 -30.5713 -30.5713
   -30.5712 -30.5712 -30.5712 -30.5712 -30.5712 -30.5711 -30.5711 -30.5711
   -30.5711 -30.5710 -30.5710 -30.5710 -30.5709 -30.5709 -30.5709 -30.5708
   -30.5179 -30.5179 -30.5179 -30.5178 -30.5177 -30.5177 -30.5176 -30.5176
   -30.5174 -30.5174 -30.5173 -30.5173 -30.5171 -30.5171 -30.5171 -30.5171
   -30.5167 -30.5166 -30.5166 -30.5166 -30.5165 -30.5165 -30.5164 -30.5164
   -30.4478 -30.4478 -30.4477 -30.4477 -30.4474 -30.4474 -30.4471 -30.4471
   -30.4470 -30.4469 -30.4469 -30.4468 -30.4468 -30.4468 -30.4467 -30.4467
    13.8962  13.8965  13.8967  13.8969  13.8969  13.8972  13.8974  13.8976
    14.7447  14.7448  14.7449  14.7450  14.7450  14.7451  14.7452  14.7452
    14.7455  14.7456  14.7456  14.7456  14.7457  14.7457  14.7458  14.7458
    14.7461  14.7461  14.7462  14.7462  14.7463  14.7463  14.7463  14.7464
    15.4996  15.4996  15.4998  15.4999  15.4999  15.5000  15.5000  15.5002
    15.5003  15.5004  15.5004  15.5006  15.5006  15.5007  15.5007  15.5008
    15.5010  15.5013  15.5014  15.5014  15.5016  15.5017  15.5018  15.5020
    16.4295  16.4297  16.4297  16.4298  16.4298  16.4298  16.4298  16.4298
    16.7308  16.7309  16.7309  16.7310  16.7310  16.7310  16.7311  16.7312
    16.7441  16.7441  16.7442  16.7442  16.7443  16.7444  16.7444  16.7445
    16.9175  16.9176  16.9176  16.9177  16.9178  16.9178  16.9178  16.9180
    16.9248  16.9249  16.9249  16.9250  16.9251  16.9251  16.9252  16.9252
    16.9252  16.9253  16.9253  16.9254  16.9254  16.9255  16.9255  16.9257
    17.6373  17.6374  17.6375  17.6375  17.6375  17.6376  17.6376  17.6377
    17.6377  17.6378  17.6378  17.6379  17.6379  17.6380  17.6380  17.6381
    17.6439  17.6439  17.6440  17.6441  17.6443  17.6444  17.6445  17.6446
    18.1419  18.1420  18.1420  18.1422  18.1423  18.1424  18.1424  18.1426
    18.1462  18.1463  18.1464  18.1465  18.1468  18.1469  18.1469  18.1470
    19.2320  19.2321  19.2322  19.2322  19.2323  19.2323  19.2324  19.2325
    19.2345  19.2345  19.2346  19.2346  19.2346  19.2346  19.2347  19.2347
    19.2347  19.2348  19.2348  19.2349  19.2349  19.2349  19.2349  19.2350
    22.7966  22.7967  22.7970  22.7971  22.7972  22.7973  22.7976  22.7977
    22.8104  22.8105  22.8105  22.8106  22.8107  22.8108  22.8108  22.8108
    22.8110  22.8111  22.8111  22.8112  22.8113  22.8113  22.8114  22.8114
    28.2402  28.2403  28.2404  28.2404  28.2405  28.2406  28.2408  28.2408
    28.2408  28.2409  28.2410  28.2411  28.2412  28.2413  28.2413  28.2413
    28.2559  28.2562  28.2562  28.2562  28.2563  28.2563  28.2564  28.2565
    33.4735  33.4735

     the Fermi energy is    19.2552 ev

!    total energy              =  -16384.95868729 Ry
     Harris-Foulkes estimate   =  -16384.95867617 Ry
     estimated scf accuracy    <       0.00000050 Ry

     total all-electron energy =   -322945.812394 Ry

     The total energy is the sum of the following terms:

     one-electron contribution =   -2490.03150451 Ry
     hartree contribution      =    1662.09560064 Ry
     xc contribution           =    -986.48778008 Ry
     ewald contribution        =   -6403.14362707 Ry
     one-center paw contrib.   =   -8167.42478638 Ry
     smearing contrib. (-TS)   =       0.03341012 Ry

     convergence has been achieved in  11 iterations

     Forces acting on atoms (cartesian axes, Ry/au):

     atom    1 type  1   force =     0.00000000    0.00000000    0.00000000
     atom    2 type  1   force =     0.00000455    0.00007523    0.00000000
     atom    3 type  1   force =     0.00000455    0.00000000    0.00007523
     atom    4 type  1   force =     0.00000000    0.00005391    0.00005391
     atom    5 type  1   force =     0.00000000    0.00000000    0.00000000
     atom    6 type  1   force =     0.00006054    0.00010154    0.00000000
     atom    7 type  1   force =     0.00000455    0.00000000   -0.00007523
     atom    8 type  1   force =     0.00000000    0.00005391   -0.00005391
     atom    9 type  1   force =     0.00000000    0.00000000    0.00000000
     atom   10 type  1   force =     0.00000455   -0.00007523    0.00000000
     atom   11 type  1   force =     0.00006054   -0.00000000    0.00010154
     atom   12 type  1   force =     0.00000000   -0.00005391    0.00005391
     atom   13 type  1   force =     0.00000000    0.00000000    0.00000000
     atom   14 type  1   force =     0.00006054   -0.00010154    0.00000000
     atom   15 type  1   force =     0.00006054    0.00000000   -0.00010154
     atom   16 type  1   force =     0.00000000   -0.00005391   -0.00005391
     atom   17 type  1   force =     0.00000000    0.00000000   -0.00000000
     atom   18 type  1   force =    -0.00000455    0.00007523   -0.00000000
     atom   19 type  1   force =    -0.00000455    0.00000000    0.00007523
     atom   20 type  1   force =     0.00000000    0.00013571    0.00013571
     atom   21 type  1   force =     0.00000000    0.00000000    0.00000000
     atom   22 type  1   force =    -0.00006054    0.00010154    0.00000000
     atom   23 type  1   force =    -0.00000455    0.00000000   -0.00007523
     atom   24 type  1   force =     0.00000000    0.00013571   -0.00013571
     atom   25 type  1   force =     0.00000000    0.00000000   -0.00000000
     atom   26 type  1   force =    -0.00000455   -0.00007523   -0.00000000
     atom   27 type  1   force =    -0.00006054    0.00000000    0.00010154
     atom   28 type  1   force =     0.00000000   -0.00013571    0.00013571
     atom   29 type  1   force =     0.00000000    0.00000000    0.00000000
     atom   30 type  1   force =    -0.00006054   -0.00010154    0.00000000
     atom   31 type  1   force =    -0.00006054   -0.00000000   -0.00010154
     atom   32 type  1   force =     0.00000000   -0.00013571   -0.00013571

     Total force =     0.000573     Total SCF correction =     0.004862
     SCF correction compared to forces is large: reduce conv_thr to get better values


     Computing stress (Cartesian axis) and pressure

          total   stress  (Ry/bohr**3)                   (kbar)     P=   -1.70
  -0.00001740   0.00000000   0.00000000         -2.56      0.00      0.00
   0.00000000  -0.00000866   0.00000000          0.00     -1.27      0.00
   0.00000000   0.00000000  -0.00000866          0.00      0.00     -1.27


     Writing output data file metoxgdxCrHQBrno.save/
 
     init_run     :     39.95s CPU     43.44s WALL (       1 calls)
     electrons    :   1924.73s CPU   2029.78s WALL (       1 calls)
     forces       :     18.64s CPU     19.34s WALL (       1 calls)
     stress       :    185.29s CPU    185.95s WALL (       1 calls)

     Called by init_run:
     wfcinit      :     39.19s CPU     42.61s WALL (       1 calls)
     potinit      :      0.36s CPU      0.37s WALL (       1 calls)
     hinit0       :      0.21s CPU      0.23s WALL (       1 calls)

     Called by electrons:
     c_bands      :   1748.43s CPU   1834.38s WALL (      12 calls)
     sum_band     :    172.26s CPU    190.97s WALL (      12 calls)
     v_of_rho     :      0.35s CPU      0.37s WALL (      12 calls)
     newd         :      0.82s CPU      1.08s WALL (      12 calls)
     PAW_pot      :      3.04s CPU      3.09s WALL (      12 calls)
     mix_rho      :      0.09s CPU      0.10s WALL (      12 calls)

     Called by c_bands:
     init_us_2    :     10.62s CPU     10.66s WALL (    2025 calls)
     cegterg      :   1690.18s CPU   1775.79s WALL (     900 calls)

     Called by sum_band:
     sum_band:bec :      1.33s CPU      1.34s WALL (     900 calls)
     addusdens    :      0.90s CPU      1.19s WALL (      12 calls)

     Called by *egterg:
     h_psi        :    690.74s CPU    768.96s WALL (    2606 calls)
     s_psi        :     84.33s CPU     84.57s WALL (    2606 calls)
     g_psi        :      2.39s CPU      2.41s WALL (    1631 calls)
     cdiaghg      :    644.06s CPU    645.80s WALL (    2456 calls)

     Called by h_psi:
     h_psi:pot    :    684.28s CPU    762.25s WALL (    2606 calls)
     h_psi:calbec :     88.61s CPU     92.80s WALL (    2606 calls)
     vloc_psi     :    511.58s CPU    584.93s WALL (    2606 calls)
     add_vuspsi   :     84.07s CPU     84.51s WALL (    2606 calls)

     General routines
     calbec       :    147.70s CPU    154.50s WALL (    3881 calls)
     fft          :      0.35s CPU      0.38s WALL (     181 calls)
     ffts         :      0.03s CPU      0.03s WALL (      24 calls)
     fftw         :    594.16s CPU    678.99s WALL ( 1706558 calls)
     interpolate  :      0.04s CPU      0.05s WALL (      12 calls)
 
     Parallel routines
     fft_scatt_xy :     48.97s CPU     54.96s WALL ( 1706763 calls)
     fft_scatt_yz :    388.61s CPU    448.66s WALL ( 1706763 calls)
 
     PWSCF        : 36m15.53s CPU    39m36.57s WALL

 
   This run was terminated on:  11:18: 9  11Nov2020            

=------------------------------------------------------------------------------=
   JOB DONE.
=------------------------------------------------------------------------------=
