--------------------------------------------------------------------------
WARNING: No preset parameters were found for the device that Open MPI
detected:

  Local host:            bear-pg0206u14b
  Device name:           mlx5_0
  Device vendor ID:      0x02c9
  Device vendor part ID: 4123

Default device parameters will be used, which may result in lower
performance.  You can edit any of the files specified by the
btl_openib_device_param_files MCA parameter to set values for your
device.

NOTE: You can turn off this warning by setting the MCA parameter
      btl_openib_warn_no_device_params_found to 0.
--------------------------------------------------------------------------
--------------------------------------------------------------------------
WARNING: There was an error initializing an OpenFabrics device.

  Local host:   bear-pg0206u14b
  Local device: mlx5_0
--------------------------------------------------------------------------

     Program PWSCF v.6.3 starts on 11Nov2020 at 13:18: 2 

     This program is part of the open-source Quantum ESPRESSO suite
     for quantum simulation of materials; please cite
         "P. Giannozzi et al., J. Phys.:Condens. Matter 21 395502 (2009);
         "P. Giannozzi et al., J. Phys.:Condens. Matter 29 465901 (2017);
          URL http://www.quantum-espresso.org", 
     in publications or presentations arising from this work. More details at
     http://www.quantum-espresso.org/quote

     Parallel version (MPI & OpenMP), running on      20 processor cores
     Number of MPI processes:                20
     Threads/MPI process:                     1

     MPI processes distributed on     1 nodes
     R & G space division:  proc/nbgrp/npool/nimage =      20
     Reading input from wd/ec/ec_1_007.in
Warning: card &IONS ignored
Warning: card ION_DYNAMICS = 'BFGS', ignored
Warning: card / ignored
Warning: card &CELL ignored
Warning: card CELL_DYNAMICS = 'BFGS', ignored
Warning: card CELL_FACTOR = 2.0, ignored
Warning: card PRESS = 0.0, ignored
Warning: card / ignored

     Current dimensions of program PWSCF are:
     Max number of different atomic species (ntypx) = 10
     Max number of k-points (npk) =  40000
     Max angular momentum in pseudopotentials (lmaxx) =  3
               file Pd.pbe-spn-kjpaw_psl.1.0.0.UPF: wavefunction(s)  4S 5S 4D renormalized

     Subspace diagonalization in iterative solution of the eigenvalue problem:
     a serial algorithm will be used

 
     Parallelization info
     --------------------
     sticks:   dense  smooth     PW     G-vecs:    dense   smooth      PW
     Min         378     249     67                24714    13261    1879
     Max         379     250     68                24717    13264    1884
     Sum        7563    4995   1357               494291   265261   37657
 


     bravais-lattice index     =            0
     lattice parameter (alat)  =      14.8394  a.u.
     unit-cell volume          =    3284.1034 (a.u.)^3
     number of atoms/cell      =           32
     number of atomic types    =            1
     number of electrons       =       576.00
     number of Kohn-Sham states=          346
     kinetic-energy cutoff     =      71.0000  Ry
     charge density cutoff     =     430.0000  Ry
     convergence threshold     =      1.0E-06
     mixing beta               =       0.1000
     number of iterations used =           10  plain     mixing
     Exchange-correlation      = SLA PW PBX PBC ( 1  4  3  4 0 0)

     celldm(1)=  14.839420  celldm(2)=   0.000000  celldm(3)=   0.000000
     celldm(4)=   0.000000  celldm(5)=   0.000000  celldm(6)=   0.000000

     crystal axes: (cart. coord. in units of alat)
               a(1) = (   1.005000   0.000000   0.000000 )  
               a(2) = (   0.000000   1.000000   0.000000 )  
               a(3) = (   0.000000   0.000000   1.000000 )  

     reciprocal axes: (cart. coord. in units 2 pi/alat)
               b(1) = (  0.995025  0.000000  0.000000 )  
               b(2) = (  0.000000  1.000000  0.000000 )  
               b(3) = (  0.000000  0.000000  1.000000 )  


     PseudoPot. # 1 for Pd read from file:
     /rds/homes/b/bxp912/pp/Pd.pbe-spn-kjpaw_psl.1.0.0.UPF
     MD5 check sum: 790f2ebce206edfd9790dcb9844eca51
     Pseudo is Projector augmented-wave + core cor, Zval = 18.0
     Generated using "atomic" code by A. Dal Corso v.6.3
     Shape of augmentation charge: PSQ
     Using radial grid of 1235 points,  6 beta functions with: 
                l(1) =   0
                l(2) =   0
                l(3) =   1
                l(4) =   1
                l(5) =   2
                l(6) =   2
     Q(r) pseudized with 0 coefficients 


     atomic species   valence    mass     pseudopotential
        Pd            18.00   106.42000     Pd( 1.00)

     16 Sym. Ops., with inversion, found



   Cartesian axes

     site n.     atom                  positions (alat units)
         1           Pd  tau(   1) = (   0.0000000   0.0000000   0.0000000  )
         2           Pd  tau(   2) = (   0.2512545   0.2500045   0.0000000  )
         3           Pd  tau(   3) = (   0.2512545   0.0000000   0.2500040  )
         4           Pd  tau(   4) = (   0.0000000   0.2500045   0.2500040  )
         5           Pd  tau(   5) = (   0.0000000   0.0000000   0.4999990  )
         6           Pd  tau(   6) = (   0.2512617   0.2500116   0.4999990  )
         7           Pd  tau(   7) = (   0.2512545   0.0000000   0.7499950  )
         8           Pd  tau(   8) = (   0.0000000   0.2500045   0.7499950  )
         9           Pd  tau(   9) = (   0.0000000   0.4999998   0.0000000  )
        10           Pd  tau(  10) = (   0.2512545   0.7499952   0.0000000  )
        11           Pd  tau(  11) = (   0.2512617   0.4999998   0.2500109  )
        12           Pd  tau(  12) = (   0.0000000   0.7499952   0.2500040  )
        13           Pd  tau(  13) = (   0.0000000   0.4999998   0.4999990  )
        14           Pd  tau(  14) = (   0.2512617   0.7499881   0.4999990  )
        15           Pd  tau(  15) = (   0.2512617   0.4999998   0.7499881  )
        16           Pd  tau(  16) = (   0.0000000   0.7499952   0.7499950  )
        17           Pd  tau(  17) = (   0.5024998   0.0000000   0.0000000  )
        18           Pd  tau(  18) = (   0.7537452   0.2500045   0.0000000  )
        19           Pd  tau(  19) = (   0.7537452   0.0000000   0.2500040  )
        20           Pd  tau(  20) = (   0.5024998   0.2500116   0.2500109  )
        21           Pd  tau(  21) = (   0.5024998   0.0000000   0.4999990  )
        22           Pd  tau(  22) = (   0.7537380   0.2500116   0.4999990  )
        23           Pd  tau(  23) = (   0.7537452   0.0000000   0.7499950  )
        24           Pd  tau(  24) = (   0.5024998   0.2500116   0.7499881  )
        25           Pd  tau(  25) = (   0.5024998   0.4999998   0.0000000  )
        26           Pd  tau(  26) = (   0.7537452   0.7499952   0.0000000  )
        27           Pd  tau(  27) = (   0.7537380   0.4999998   0.2500109  )
        28           Pd  tau(  28) = (   0.5024998   0.7499881   0.2500109  )
        29           Pd  tau(  29) = (   0.5024998   0.4999998   0.4999990  )
        30           Pd  tau(  30) = (   0.7537380   0.7499881   0.4999990  )
        31           Pd  tau(  31) = (   0.7537380   0.4999998   0.7499881  )
        32           Pd  tau(  32) = (   0.5024998   0.7499881   0.7499881  )

     number of k points=    75  Marzari-Vanderbilt smearing, width (Ry)=  0.0400
                       cart. coord. in units 2pi/alat
        k(    1) = (   0.0552792   0.0555556   0.0555556), wk =   0.0219479
        k(    2) = (   0.0552792   0.0555556   0.1666667), wk =   0.0438957
        k(    3) = (   0.0552792   0.0555556   0.2777778), wk =   0.0438957
        k(    4) = (   0.0552792   0.0555556   0.3888889), wk =   0.0438957
        k(    5) = (   0.0552792   0.0555556  -0.5000000), wk =   0.0219479
        k(    6) = (   0.0552792   0.1666667   0.1666667), wk =   0.0219479
        k(    7) = (   0.0552792   0.1666667   0.2777778), wk =   0.0438957
        k(    8) = (   0.0552792   0.1666667   0.3888889), wk =   0.0438957
        k(    9) = (   0.0552792   0.1666667  -0.5000000), wk =   0.0219479
        k(   10) = (   0.0552792   0.2777778   0.2777778), wk =   0.0219479
        k(   11) = (   0.0552792   0.2777778   0.3888889), wk =   0.0438957
        k(   12) = (   0.0552792   0.2777778  -0.5000000), wk =   0.0219479
        k(   13) = (   0.0552792   0.3888889   0.3888889), wk =   0.0219479
        k(   14) = (   0.0552792   0.3888889  -0.5000000), wk =   0.0219479
        k(   15) = (   0.0552792  -0.5000000  -0.5000000), wk =   0.0054870
        k(   16) = (   0.1658375   0.0555556   0.0555556), wk =   0.0219479
        k(   17) = (   0.1658375   0.0555556   0.1666667), wk =   0.0438957
        k(   18) = (   0.1658375   0.0555556   0.2777778), wk =   0.0438957
        k(   19) = (   0.1658375   0.0555556   0.3888889), wk =   0.0438957
        k(   20) = (   0.1658375   0.0555556  -0.5000000), wk =   0.0219479
        k(   21) = (   0.1658375   0.1666667   0.1666667), wk =   0.0219479
        k(   22) = (   0.1658375   0.1666667   0.2777778), wk =   0.0438957
        k(   23) = (   0.1658375   0.1666667   0.3888889), wk =   0.0438957
        k(   24) = (   0.1658375   0.1666667  -0.5000000), wk =   0.0219479
        k(   25) = (   0.1658375   0.2777778   0.2777778), wk =   0.0219479
        k(   26) = (   0.1658375   0.2777778   0.3888889), wk =   0.0438957
        k(   27) = (   0.1658375   0.2777778  -0.5000000), wk =   0.0219479
        k(   28) = (   0.1658375   0.3888889   0.3888889), wk =   0.0219479
        k(   29) = (   0.1658375   0.3888889  -0.5000000), wk =   0.0219479
        k(   30) = (   0.1658375  -0.5000000  -0.5000000), wk =   0.0054870
        k(   31) = (   0.2763958   0.0555556   0.0555556), wk =   0.0219479
        k(   32) = (   0.2763958   0.0555556   0.1666667), wk =   0.0438957
        k(   33) = (   0.2763958   0.0555556   0.2777778), wk =   0.0438957
        k(   34) = (   0.2763958   0.0555556   0.3888889), wk =   0.0438957
        k(   35) = (   0.2763958   0.0555556  -0.5000000), wk =   0.0219479
        k(   36) = (   0.2763958   0.1666667   0.1666667), wk =   0.0219479
        k(   37) = (   0.2763958   0.1666667   0.2777778), wk =   0.0438957
        k(   38) = (   0.2763958   0.1666667   0.3888889), wk =   0.0438957
        k(   39) = (   0.2763958   0.1666667  -0.5000000), wk =   0.0219479
        k(   40) = (   0.2763958   0.2777778   0.2777778), wk =   0.0219479
        k(   41) = (   0.2763958   0.2777778   0.3888889), wk =   0.0438957
        k(   42) = (   0.2763958   0.2777778  -0.5000000), wk =   0.0219479
        k(   43) = (   0.2763958   0.3888889   0.3888889), wk =   0.0219479
        k(   44) = (   0.2763958   0.3888889  -0.5000000), wk =   0.0219479
        k(   45) = (   0.2763958  -0.5000000  -0.5000000), wk =   0.0054870
        k(   46) = (   0.3869541   0.0555556   0.0555556), wk =   0.0219479
        k(   47) = (   0.3869541   0.0555556   0.1666667), wk =   0.0438957
        k(   48) = (   0.3869541   0.0555556   0.2777778), wk =   0.0438957
        k(   49) = (   0.3869541   0.0555556   0.3888889), wk =   0.0438957
        k(   50) = (   0.3869541   0.0555556  -0.5000000), wk =   0.0219479
        k(   51) = (   0.3869541   0.1666667   0.1666667), wk =   0.0219479
        k(   52) = (   0.3869541   0.1666667   0.2777778), wk =   0.0438957
        k(   53) = (   0.3869541   0.1666667   0.3888889), wk =   0.0438957
        k(   54) = (   0.3869541   0.1666667  -0.5000000), wk =   0.0219479
        k(   55) = (   0.3869541   0.2777778   0.2777778), wk =   0.0219479
        k(   56) = (   0.3869541   0.2777778   0.3888889), wk =   0.0438957
        k(   57) = (   0.3869541   0.2777778  -0.5000000), wk =   0.0219479
        k(   58) = (   0.3869541   0.3888889   0.3888889), wk =   0.0219479
        k(   59) = (   0.3869541   0.3888889  -0.5000000), wk =   0.0219479
        k(   60) = (   0.3869541  -0.5000000  -0.5000000), wk =   0.0054870
        k(   61) = (  -0.4975124   0.0555556   0.0555556), wk =   0.0109739
        k(   62) = (  -0.4975124   0.0555556   0.1666667), wk =   0.0219479
        k(   63) = (  -0.4975124   0.0555556   0.2777778), wk =   0.0219479
        k(   64) = (  -0.4975124   0.0555556   0.3888889), wk =   0.0219479
        k(   65) = (  -0.4975124   0.0555556  -0.5000000), wk =   0.0109739
        k(   66) = (  -0.4975124   0.1666667   0.1666667), wk =   0.0109739
        k(   67) = (  -0.4975124   0.1666667   0.2777778), wk =   0.0219479
        k(   68) = (  -0.4975124   0.1666667   0.3888889), wk =   0.0219479
        k(   69) = (  -0.4975124   0.1666667  -0.5000000), wk =   0.0109739
        k(   70) = (  -0.4975124   0.2777778   0.2777778), wk =   0.0109739
        k(   71) = (  -0.4975124   0.2777778   0.3888889), wk =   0.0219479
        k(   72) = (  -0.4975124   0.2777778  -0.5000000), wk =   0.0109739
        k(   73) = (  -0.4975124   0.3888889   0.3888889), wk =   0.0109739
        k(   74) = (  -0.4975124   0.3888889  -0.5000000), wk =   0.0109739
        k(   75) = (  -0.4975124  -0.5000000  -0.5000000), wk =   0.0027435

     Dense  grid:   494291 G-vectors     FFT dimensions: ( 100, 100, 100)

     Smooth grid:   265261 G-vectors     FFT dimensions: (  81,  80,  80)

     Estimated max dynamical RAM per process >     894.66 MB

     Estimated total dynamical RAM >      17.47 GB

     Check: negative/imaginary core charge=   -0.000002    0.000000

     Initial potential from superposition of free atoms

     starting charge  575.98776, renormalised to  576.00000
     Starting wfcs are  320 randomized atomic wfcs +   26 random wfcs
     Checking if some PAW data can be deallocated... 

     total cpu time spent up to now is       47.9 secs

     Self-consistent Calculation

     iteration #  1     ecut=    71.00 Ry     beta= 0.10
     Davidson diagonalization with overlap
     ethr =  1.00E-02,  avg # of iterations =  3.1

     Threshold (ethr) on eigenvalues was too large:
     Diagonalizing with lowered threshold

     Davidson diagonalization with overlap
     ethr =  8.59E-05,  avg # of iterations =  3.2

     total cpu time spent up to now is      510.1 secs

     total energy              =  -16385.02303963 Ry
     Harris-Foulkes estimate   =  -16385.09279805 Ry
     estimated scf accuracy    <       0.48856993 Ry

     iteration #  2     ecut=    71.00 Ry     beta= 0.10
     Davidson diagonalization with overlap
     ethr =  8.48E-05,  avg # of iterations =  1.0

     total cpu time spent up to now is      652.2 secs

     total energy              =  -16384.92809666 Ry
     Harris-Foulkes estimate   =  -16385.03103966 Ry
     estimated scf accuracy    <       0.26494701 Ry

     iteration #  3     ecut=    71.00 Ry     beta= 0.10
     Davidson diagonalization with overlap
     ethr =  4.60E-05,  avg # of iterations =  2.0

     total cpu time spent up to now is      843.5 secs

     total energy              =  -16384.96325957 Ry
     Harris-Foulkes estimate   =  -16384.96768579 Ry
     estimated scf accuracy    <       0.06174804 Ry

     iteration #  4     ecut=    71.00 Ry     beta= 0.10
     Davidson diagonalization with overlap
     ethr =  1.07E-05,  avg # of iterations =  1.8

     total cpu time spent up to now is     1005.9 secs

     total energy              =  -16384.96306886 Ry
     Harris-Foulkes estimate   =  -16384.96545806 Ry
     estimated scf accuracy    <       0.02205786 Ry

     iteration #  5     ecut=    71.00 Ry     beta= 0.10
     Davidson diagonalization with overlap
     ethr =  3.83E-06,  avg # of iterations =  1.2

     total cpu time spent up to now is     1152.8 secs

     total energy              =  -16384.95820125 Ry
     Harris-Foulkes estimate   =  -16384.96327093 Ry
     estimated scf accuracy    <       0.01452935 Ry

     iteration #  6     ecut=    71.00 Ry     beta= 0.10
     Davidson diagonalization with overlap
     ethr =  2.52E-06,  avg # of iterations =  1.0

     total cpu time spent up to now is     1294.9 secs

     total energy              =  -16384.95923527 Ry
     Harris-Foulkes estimate   =  -16384.95926323 Ry
     estimated scf accuracy    <       0.00019371 Ry

     iteration #  7     ecut=    71.00 Ry     beta= 0.10
     Davidson diagonalization with overlap
     ethr =  3.36E-08,  avg # of iterations =  3.0

     total cpu time spent up to now is     1550.4 secs

     total energy              =  -16384.95931200 Ry
     Harris-Foulkes estimate   =  -16384.95932649 Ry
     estimated scf accuracy    <       0.00020467 Ry

     iteration #  8     ecut=    71.00 Ry     beta= 0.10
     Davidson diagonalization with overlap
     ethr =  3.36E-08,  avg # of iterations =  1.3

     total cpu time spent up to now is     1698.4 secs

     total energy              =  -16384.95931559 Ry
     Harris-Foulkes estimate   =  -16384.95931818 Ry
     estimated scf accuracy    <       0.00005229 Ry

     iteration #  9     ecut=    71.00 Ry     beta= 0.10
     Davidson diagonalization with overlap
     ethr =  9.08E-09,  avg # of iterations =  1.0

     total cpu time spent up to now is     1838.9 secs

     total energy              =  -16384.95931543 Ry
     Harris-Foulkes estimate   =  -16384.95931663 Ry
     estimated scf accuracy    <       0.00003482 Ry

     iteration # 10     ecut=    71.00 Ry     beta= 0.10
     Davidson diagonalization with overlap
     ethr =  6.05E-09,  avg # of iterations =  2.0

     total cpu time spent up to now is     2033.4 secs

     total energy              =  -16384.95932240 Ry
     Harris-Foulkes estimate   =  -16384.95931942 Ry
     estimated scf accuracy    <       0.00000381 Ry

     iteration # 11     ecut=    71.00 Ry     beta= 0.10
     Davidson diagonalization with overlap
     ethr =  6.61E-10,  avg # of iterations =  1.0

     total cpu time spent up to now is     2174.7 secs

     End of self-consistent calculation

          k = 0.0553 0.0556 0.0556 ( 33154 PWs)   bands (ev):

   -64.9845 -64.9564 -64.9559 -64.9558 -64.9510 -64.9504 -64.9503 -64.9406
   -64.9405 -64.9404 -64.9382 -64.9379 -64.9377 -64.9376 -64.9375 -64.9375
   -64.9374 -64.9372 -64.9372 -64.9367 -64.9350 -64.9349 -64.9349 -64.9232
   -64.9224 -64.9223 -64.9222 -64.9220 -64.9217 -64.9217 -64.9215 -64.9213
   -30.8658 -30.8658 -30.8657 -30.8639 -30.8461 -30.8461 -30.8443 -30.7713
   -30.7680 -30.7679 -30.7671 -30.7671 -30.7637 -30.7637 -30.7635 -30.7634
   -30.7595 -30.7559 -30.7558 -30.7538 -30.7537 -30.7513 -30.7513 -30.7507
   -30.7506 -30.7357 -30.7357 -30.7328 -30.7328 -30.7323 -30.7323 -30.6937
   -30.6937 -30.6923 -30.6698 -30.6698 -30.6682 -30.6636 -30.6636 -30.6627
   -30.6548 -30.6548 -30.6543 -30.6543 -30.6532 -30.6531 -30.6409 -30.6408
   -30.6398 -30.6398 -30.6393 -30.6393 -30.6388 -30.6388 -30.6384 -30.6370
   -30.6369 -30.6358 -30.6356 -30.6355 -30.6342 -30.5758 -30.5758 -30.5731
   -30.5731 -30.5729 -30.5727 -30.5634 -30.5634 -30.5611 -30.5611 -30.5609
   -30.5608 -30.5591 -30.5591 -30.5569 -30.5554 -30.5548 -30.5546 -30.5540
   -30.5540 -30.5539 -30.5536 -30.5531 -30.5523 -30.5523 -30.5520 -30.5519
   -30.5515 -30.5505 -30.5470 -30.5470 -30.5451 -30.5015 -30.4992 -30.4992
    12.2021  13.9618  13.9620  13.9621  14.0274  14.0411  14.0411  14.0411
    14.2142  14.2312  14.2313  14.2349  14.2352  14.2352  14.4102  14.4268
    14.4268  14.9572  14.9573  14.9741  14.9742  14.9744  14.9745  15.1095
    15.1264  15.1265  15.2662  15.2672  15.2673  15.2923  15.3128  15.3129
    15.3476  15.3477  15.3488  15.3502  15.3502  15.3507  15.3508  15.3535
    15.3536  15.6846  15.6847  15.6949  15.6949  15.6984  15.6985  15.7882
    15.8046  15.8047  15.8090  15.8090  15.8259  15.8260  15.8282  15.8282
    15.8649  15.8840  15.8840  16.0365  16.0365  16.0483  16.0483  16.0530
    16.0531  16.1479  16.1479  16.1531  16.1532  16.1536  16.1537  16.1584
    16.1607  16.1608  16.2618  16.2619  16.2644  16.3050  16.3229  16.3229
    16.3255  16.3566  16.3605  16.3605  16.3681  16.3785  16.3978  16.4088
    17.1685  17.1937  17.1937  17.2425  17.2425  17.2532  17.3145  17.3145
    17.3159  17.3160  17.3216  17.3216  17.3243  17.3244  17.3296  17.3534
    17.3809  17.3810  17.4677  17.4678  17.4862  17.5905  17.5906  17.5957
    17.7104  17.7105  17.7272  17.7682  17.7683  17.7830  17.8433  17.8433
    17.8477  17.8478  17.8482  17.8483  17.8647  17.8648  17.8669  17.8884
    17.9151  17.9152  17.9160  17.9161  17.9287  17.9287  17.9353  18.0239
    18.0239  18.0369  18.4052  18.4053  18.4261  18.5072  18.5072  18.5250
    18.8896  18.8896  18.9035  19.0154  19.0154  19.0180  19.0334  19.0526
    19.0533  19.0682  19.0682  19.2884  19.2888  19.2888  19.3360  19.3361
    19.3372  19.3372  19.3464  19.3532  19.3532  19.3619  19.3619  20.0255
    20.3289  20.3289  20.3292  20.8286  20.8286  20.8568  21.3341  21.3342
    21.3358  21.3359  21.3688  21.3688  21.8608  21.8608  21.8995  22.4041
    22.4978  22.4978  26.1852  26.1852  26.1859  26.3423  27.3025  27.3025
    27.3455  27.3455  27.3889  27.3890  27.9934  27.9934  28.0339  28.0339
    28.0803  28.0804  29.4089  29.4089  29.4270  29.4270  29.4707  29.4708
    29.5061  29.6375  29.6375  30.5094  30.5809  30.5810  30.5963  30.5963
    30.6267  30.6269

          k = 0.0553 0.0556 0.1667 ( 33153 PWs)   bands (ev):

   -64.9835 -64.9612 -64.9558 -64.9553 -64.9505 -64.9499 -64.9450 -64.9435
   -64.9433 -64.9405 -64.9401 -64.9399 -64.9383 -64.9382 -64.9376 -64.9373
   -64.9370 -64.9367 -64.9349 -64.9346 -64.9344 -64.9326 -64.9324 -64.9232
   -64.9229 -64.9226 -64.9225 -64.9223 -64.9222 -64.9221 -64.9220 -64.9213
   -30.8630 -30.8614 -30.8613 -30.8581 -30.8429 -30.8412 -30.8410 -30.7795
   -30.7745 -30.7742 -30.7730 -30.7721 -30.7701 -30.7692 -30.7691 -30.7683
   -30.7664 -30.7605 -30.7571 -30.7567 -30.7552 -30.7525 -30.7495 -30.7495
   -30.7458 -30.7382 -30.7358 -30.7323 -30.7290 -30.7230 -30.7148 -30.7146
   -30.6986 -30.6969 -30.6849 -30.6832 -30.6699 -30.6696 -30.6685 -30.6676
   -30.6577 -30.6441 -30.6436 -30.6423 -30.6398 -30.6395 -30.6390 -30.6385
   -30.6382 -30.6382 -30.6372 -30.6339 -30.6338 -30.6337 -30.6335 -30.6327
   -30.6320 -30.6315 -30.6299 -30.6249 -30.6239 -30.5881 -30.5849 -30.5759
   -30.5756 -30.5727 -30.5701 -30.5664 -30.5643 -30.5637 -30.5635 -30.5631
   -30.5613 -30.5598 -30.5597 -30.5590 -30.5582 -30.5577 -30.5567 -30.5547
   -30.5544 -30.5540 -30.5537 -30.5536 -30.5525 -30.5512 -30.5511 -30.5509
   -30.5496 -30.5492 -30.5471 -30.5424 -30.5408 -30.5078 -30.5012 -30.5006
    12.2755  13.9320  13.9964  14.0082  14.0083  14.0552  14.0824  14.0825
    14.0958  14.2630  14.2659  14.2768  14.2771  14.2823  14.4625  14.4786
    14.4965  14.8879  14.8887  14.9483  14.9928  14.9991  15.0087  15.0154
    15.0375  15.1186  15.1188  15.1360  15.1517  15.1584  15.1618  15.1630
    15.3087  15.3092  15.3148  15.3338  15.3362  15.3422  15.3701  15.3814
    15.4191  15.4231  15.5022  15.6803  15.6849  15.6876  15.6981  15.7321
    15.7416  15.7435  15.7535  15.7988  15.8168  15.8887  15.9007  15.9173
    15.9611  15.9660  16.0046  16.0109  16.0153  16.0167  16.0215  16.0410
    16.0533  16.0926  16.0995  16.1209  16.1258  16.2895  16.2927  16.3027
    16.3033  16.3214  16.3241  16.3242  16.3400  16.3485  16.3688  16.3727
    16.3768  16.3786  16.3938  16.4007  16.4076  16.4209  16.4391  16.4402
    16.9834  16.9969  17.1014  17.1157  17.1178  17.1339  17.1812  17.1815
    17.1993  17.2422  17.2683  17.2784  17.3896  17.3972  17.4063  17.4125
    17.4177  17.4510  17.4566  17.4601  17.4717  17.6674  17.6806  17.6955
    17.6979  17.7081  17.7638  17.7640  17.8402  17.8443  17.8495  17.8499
    17.8541  17.8603  17.8740  17.9255  17.9271  17.9431  17.9444  17.9635
    18.0584  18.0613  18.0637  18.0647  18.0993  18.1095  18.1546  18.1714
    18.1823  18.2114  18.3068  18.4509  18.4689  18.5802  18.5811  18.5938
    18.6099  18.6272  18.6402  18.8431  18.9556  18.9566  18.9815  18.9920
    19.0304  19.0405  19.0456  19.0561  19.0759  19.2203  19.2668  19.2672
    19.2894  19.2903  19.2909  19.3322  19.3348  19.3383  19.3427  20.0115
    20.3681  20.3909  20.4948  20.4950  20.7251  20.8004  20.8472  20.8771
    21.3122  21.3140  21.8428  21.9017  21.9384  22.1345  22.4390  22.4808
    22.6967  22.7873  26.1849  26.3444  26.3465  26.5872  26.6374  26.6401
    26.6727  26.6776  27.2277  27.2688  27.4354  27.4788  28.1168  28.1592
    28.6320  28.7143  29.4441  29.4913  29.4936  29.6225  29.6230  29.6855
    29.7781  29.7789  29.8537  29.9851  30.0569  30.0929  30.1620  30.1661
    30.5316  30.6571

          k = 0.0553 0.0556 0.2778 ( 33147 PWs)   bands (ev):

   -64.9816 -64.9664 -64.9548 -64.9543 -64.9496 -64.9491 -64.9463 -64.9461
   -64.9425 -64.9422 -64.9403 -64.9398 -64.9388 -64.9382 -64.9376 -64.9373
   -64.9367 -64.9366 -64.9351 -64.9318 -64.9316 -64.9303 -64.9301 -64.9246
   -64.9237 -64.9235 -64.9232 -64.9231 -64.9229 -64.9224 -64.9220 -64.9213
   -30.8561 -30.8531 -30.8529 -30.8484 -30.8367 -30.8351 -30.8313 -30.7966
   -30.7910 -30.7907 -30.7863 -30.7853 -30.7828 -30.7743 -30.7721 -30.7719
   -30.7699 -30.7619 -30.7609 -30.7529 -30.7518 -30.7508 -30.7508 -30.7480
   -30.7387 -30.7375 -30.7364 -30.7337 -30.7264 -30.7232 -30.7073 -30.7050
   -30.6994 -30.6976 -30.6975 -30.6974 -30.6837 -30.6815 -30.6810 -30.6789
   -30.6475 -30.6462 -30.6397 -30.6394 -30.6386 -30.6372 -30.6343 -30.6341
   -30.6295 -30.6274 -30.6272 -30.6244 -30.6242 -30.6237 -30.6231 -30.6225
   -30.6221 -30.6147 -30.6107 -30.6100 -30.6052 -30.5998 -30.5962 -30.5811
   -30.5810 -30.5756 -30.5739 -30.5737 -30.5723 -30.5698 -30.5688 -30.5687
   -30.5673 -30.5656 -30.5655 -30.5650 -30.5595 -30.5587 -30.5555 -30.5547
   -30.5540 -30.5540 -30.5537 -30.5530 -30.5526 -30.5506 -30.5504 -30.5494
   -30.5475 -30.5403 -30.5395 -30.5389 -30.5379 -30.5189 -30.5054 -30.5044
    12.4205  13.5818  14.0624  14.0984  14.0985  14.1243  14.1645  14.1647
    14.1906  14.3180  14.3598  14.3610  14.3659  14.3811  14.4650  14.5638
    14.5788  14.7404  14.7413  14.7828  14.7918  14.8695  14.8695  14.9211
    15.0236  15.0279  15.0598  15.0727  15.0811  15.0923  15.0961  15.1010
    15.1886  15.2019  15.2083  15.2117  15.3192  15.3257  15.3587  15.3749
    15.4828  15.4889  15.6211  15.6261  15.6587  15.6654  15.6721  15.6782
    15.6885  15.6901  15.7008  15.7236  15.7261  15.8322  15.8399  15.9058
    15.9075  15.9637  15.9644  15.9680  16.0360  16.0430  16.0477  16.0573
    16.0610  16.0661  16.1362  16.1387  16.1419  16.2372  16.2591  16.2754
    16.2835  16.3201  16.3209  16.3345  16.4194  16.4416  16.4620  16.4666
    16.4680  16.5022  16.6337  16.6405  16.6539  16.7037  16.7816  16.7897
    16.8365  16.8551  16.8583  16.8656  16.9295  17.0053  17.0148  17.0151
    17.0325  17.0421  17.3473  17.3573  17.3648  17.4551  17.4631  17.5203
    17.5265  17.5371  17.5403  17.5952  17.5987  17.6235  17.6330  17.6875
    17.6972  17.8033  17.8285  17.8300  17.8319  17.8368  17.8531  17.8569
    17.8625  17.8628  17.9508  18.0596  18.1091  18.1108  18.1251  18.1257
    18.1330  18.2143  18.2162  18.2193  18.2602  18.2613  18.2642  18.2692
    18.3099  18.3151  18.3370  18.3520  18.3588  18.4258  18.5971  18.6076
    18.6544  18.6780  18.6827  18.7117  18.8134  18.8145  18.8628  18.8628
    18.8710  18.9415  18.9479  18.9594  18.9671  19.0878  19.1367  19.1368
    19.1546  19.1560  19.1761  19.3303  19.3336  19.3392  19.3419  19.9439
    19.9611  20.1787  20.3896  20.4146  20.7130  20.7141  20.7425  21.0908
    21.2652  21.2672  21.5229  21.8007  22.5362  22.5755  23.0792  23.1231
    23.1857  23.2733  25.7550  25.7949  25.8640  25.9490  26.3117  26.3546
    26.3577  26.6609  26.6640  27.0664  27.6807  27.7286  28.3533  28.3991
    28.7266  29.1405  29.1681  29.2683  29.2725  29.4579  29.4693  29.5249
    29.5939  29.6334  29.6540  29.8275  29.8389  29.9442  30.0118  30.0357
    30.1021  30.1046

          k = 0.0553 0.0556 0.3889 ( 33157 PWs)   bands (ev):

   -64.9789 -64.9711 -64.9533 -64.9529 -64.9489 -64.9486 -64.9484 -64.9479
   -64.9447 -64.9443 -64.9402 -64.9391 -64.9382 -64.9376 -64.9373 -64.9367
   -64.9362 -64.9352 -64.9351 -64.9293 -64.9290 -64.9282 -64.9279 -64.9273
   -64.9251 -64.9247 -64.9246 -64.9242 -64.9231 -64.9224 -64.9220 -64.9213
   -30.8453 -30.8412 -30.8410 -30.8352 -30.8276 -30.8262 -30.8171 -30.8145
   -30.8090 -30.8088 -30.8021 -30.8012 -30.8009 -30.7762 -30.7739 -30.7723
   -30.7689 -30.7674 -30.7667 -30.7665 -30.7574 -30.7568 -30.7413 -30.7378
   -30.7334 -30.7309 -30.7239 -30.7203 -30.7184 -30.7182 -30.7154 -30.7154
   -30.7127 -30.7104 -30.6968 -30.6946 -30.6942 -30.6919 -30.6818 -30.6816
   -30.6563 -30.6556 -30.6398 -30.6390 -30.6364 -30.6347 -30.6281 -30.6235
   -30.6195 -30.6119 -30.6117 -30.6109 -30.6107 -30.6106 -30.6105 -30.6101
   -30.6093 -30.6091 -30.6065 -30.5981 -30.5977 -30.5972 -30.5889 -30.5888
   -30.5865 -30.5861 -30.5849 -30.5847 -30.5836 -30.5785 -30.5772 -30.5769
   -30.5764 -30.5762 -30.5693 -30.5614 -30.5604 -30.5581 -30.5564 -30.5547
   -30.5540 -30.5538 -30.5531 -30.5523 -30.5517 -30.5496 -30.5480 -30.5479
   -30.5475 -30.5406 -30.5398 -30.5346 -30.5287 -30.5274 -30.5115 -30.5104
    12.6331  13.2293  14.1548  14.2273  14.2276  14.2342  14.2864  14.2866
    14.3238  14.3756  14.3993  14.4839  14.4865  14.5068  14.5200  14.5641
    14.5650  14.5708  14.6341  14.6422  14.6424  14.6942  14.7067  14.7200
    14.8514  14.8558  14.8578  14.8634  15.0551  15.0627  15.1476  15.1554
    15.1994  15.2120  15.2664  15.2761  15.2908  15.2957  15.4219  15.4338
    15.4862  15.4889  15.4916  15.4920  15.5894  15.5897  15.6278  15.6320
    15.6445  15.6550  15.6837  15.6932  15.7279  15.7442  15.8656  15.8741
    15.8779  15.9090  15.9115  16.0254  16.0533  16.0540  16.0680  16.0692
    16.0964  16.1055  16.1656  16.1690  16.2036  16.2125  16.2295  16.2386
    16.2419  16.3023  16.3674  16.3692  16.5050  16.5415  16.5580  16.5594
    16.5738  16.5962  16.6035  16.6087  16.6116  16.6186  16.7655  16.8051
    16.8195  16.8383  16.8624  16.8697  17.0480  17.0487  17.0518  17.0661
    17.2783  17.3021  17.4251  17.4295  17.4392  17.4507  17.4548  17.6188
    17.6209  17.6537  17.6560  17.6620  17.6663  17.6778  17.6842  17.6963
    17.7154  17.7179  17.7990  17.8017  17.8326  17.8403  17.8433  17.8455
    17.8464  17.8536  17.8594  17.8724  17.8756  17.9561  17.9965  18.0716
    18.0732  18.1304  18.2059  18.2316  18.3111  18.3126  18.3443  18.3839
    18.4644  18.4669  18.4691  18.5263  18.5340  18.5347  18.5555  18.5567
    18.7070  18.7071  18.7230  18.8107  18.8190  18.8276  18.8486  18.8521
    18.8591  18.8607  18.9000  18.9601  18.9625  18.9737  18.9743  19.0359
    19.1528  19.1606  19.3053  19.3304  19.3324  19.3399  19.3414  19.5496
    19.5611  19.9548  19.9746  20.3654  20.6521  20.7904  20.9134  20.9151
    21.1877  21.1897  21.3820  21.7220  23.2442  23.2849  23.7855  23.7886
    23.8334  23.8712  24.8680  24.9085  25.1464  25.2311  25.4140  25.4579
    26.7124  27.1273  27.1311  27.6102  27.9233  28.0293  28.0815  28.4506
    28.4549  28.6859  28.7362  28.9413  29.0033  29.0044  29.3237  29.3858
    29.4343  29.5499  29.5505  29.6116  29.9792  30.0278  30.0770  30.0866
    30.2099  30.3057

          k = 0.0553 0.0556-0.5000 ( 33172 PWs)   bands (ev):

   -64.9757 -64.9750 -64.9517 -64.9513 -64.9509 -64.9505 -64.9471 -64.9466
   -64.9463 -64.9459 -64.9401 -64.9393 -64.9382 -64.9376 -64.9373 -64.9367
   -64.9361 -64.9353 -64.9312 -64.9305 -64.9274 -64.9270 -64.9267 -64.9266
   -64.9263 -64.9263 -64.9259 -64.9255 -64.9231 -64.9224 -64.9220 -64.9213
   -30.8314 -30.8310 -30.8267 -30.8263 -30.8258 -30.8255 -30.8193 -30.8189
   -30.8163 -30.8156 -30.8151 -30.8143 -30.7988 -30.7981 -30.7714 -30.7711
   -30.7706 -30.7703 -30.7636 -30.7634 -30.7631 -30.7629 -30.7301 -30.7297
   -30.7269 -30.7265 -30.7246 -30.7239 -30.7221 -30.7215 -30.7095 -30.7091
   -30.7088 -30.7081 -30.7063 -30.7060 -30.7059 -30.7053 -30.6683 -30.6678
   -30.6676 -30.6671 -30.6399 -30.6392 -30.6359 -30.6353 -30.6205 -30.6197
   -30.6161 -30.6154 -30.6007 -30.6005 -30.5993 -30.5992 -30.5992 -30.5988
   -30.5986 -30.5986 -30.5986 -30.5984 -30.5983 -30.5982 -30.5972 -30.5969
   -30.5926 -30.5923 -30.5918 -30.5915 -30.5865 -30.5862 -30.5857 -30.5854
   -30.5827 -30.5823 -30.5577 -30.5569 -30.5561 -30.5559 -30.5557 -30.5555
   -30.5550 -30.5547 -30.5543 -30.5540 -30.5538 -30.5531 -30.5491 -30.5483
   -30.5433 -30.5431 -30.5430 -30.5428 -30.5196 -30.5189 -30.5184 -30.5177
    12.9061  12.9071  14.2638  14.2646  14.3837  14.3838  14.3862  14.3869
    14.3871  14.3878  14.4461  14.4461  14.4470  14.4470  14.4929  14.4930
    14.5050  14.5058  14.6478  14.6486  14.6521  14.6529  14.6758  14.6766
    14.6865  14.6873  14.8774  14.8781  14.8883  14.8890  15.2349  15.2352
    15.2357  15.2360  15.3454  15.3462  15.3537  15.3545  15.3679  15.3685
    15.3732  15.3738  15.5004  15.5010  15.5069  15.5075  15.6563  15.6565
    15.6602  15.6604  15.6612  15.6614  15.6753  15.6755  15.8765  15.8765
    15.8778  15.8779  16.0265  16.0273  16.0554  16.0560  16.0711  16.0717
    16.0956  16.0961  16.1558  16.1564  16.1681  16.1687  16.2569  16.2575
    16.4020  16.4022  16.4067  16.4068  16.4626  16.4627  16.4658  16.4659
    16.6218  16.6221  16.6680  16.6682  16.6817  16.6819  16.6841  16.6849
    16.7069  16.7071  16.7192  16.7200  17.4406  17.4408  17.4435  17.4437
    17.4454  17.4457  17.4458  17.4460  17.4463  17.4466  17.4894  17.4897
    17.5681  17.5688  17.6613  17.6619  17.6636  17.6643  17.7388  17.7392
    17.7421  17.7428  17.7443  17.7450  17.7603  17.7609  17.7610  17.7616
    17.7641  17.7645  17.7970  17.7976  17.7994  17.8001  17.9714  17.9716
    17.9721  17.9723  18.0567  18.0575  18.5178  18.5184  18.5188  18.5194
    18.5444  18.5446  18.6543  18.6544  18.6605  18.6608  18.6609  18.6611
    18.6891  18.6894  18.7021  18.7023  18.7534  18.7540  18.7607  18.7612
    18.7628  18.7634  18.7681  18.7686  18.9129  18.9132  19.1850  19.1851
    19.1904  19.1906  19.3309  19.3316  19.3403  19.3411  19.5406  19.5407
    19.5549  19.5550  20.0285  20.0291  20.5261  20.5268  21.0719  21.0727
    21.0740  21.0747  21.5885  21.5892  24.0243  24.0247  24.0652  24.0656
    24.4476  24.4482  24.5324  24.5331  24.5683  24.5686  24.6131  24.6134
    27.2418  27.2420  27.7299  27.7301  27.7341  27.7343  28.2604  28.2606
    28.4569  28.4577  28.5139  28.5147  29.0925  29.0933  29.1481  29.1488
    29.3882  29.3888  29.4869  29.4875  30.1515  30.1524  30.2577  30.2586
    30.4398  30.4406

          k = 0.0553 0.1667 0.1667 ( 33184 PWs)   bands (ev):

   -64.9826 -64.9607 -64.9606 -64.9553 -64.9501 -64.9467 -64.9446 -64.9446
   -64.9434 -64.9433 -64.9401 -64.9400 -64.9393 -64.9379 -64.9366 -64.9366
   -64.9364 -64.9363 -64.9345 -64.9344 -64.9326 -64.9325 -64.9307 -64.9235
   -64.9229 -64.9229 -64.9227 -64.9226 -64.9226 -64.9225 -64.9224 -64.9219
   -30.8604 -30.8604 -30.8555 -30.8509 -30.8383 -30.8383 -30.8381 -30.7825
   -30.7824 -30.7800 -30.7800 -30.7716 -30.7711 -30.7711 -30.7689 -30.7689
   -30.7667 -30.7666 -30.7660 -30.7659 -30.7605 -30.7605 -30.7558 -30.7558
   -30.7363 -30.7294 -30.7293 -30.7265 -30.7265 -30.7204 -30.7204 -30.7117
   -30.7117 -30.7019 -30.6985 -30.6747 -30.6715 -30.6715 -30.6581 -30.6581
   -30.6522 -30.6522 -30.6456 -30.6415 -30.6415 -30.6401 -30.6401 -30.6353
   -30.6352 -30.6347 -30.6347 -30.6316 -30.6316 -30.6310 -30.6298 -30.6298
   -30.6274 -30.6273 -30.6162 -30.6162 -30.6098 -30.5879 -30.5879 -30.5854
   -30.5853 -30.5736 -30.5716 -30.5695 -30.5661 -30.5661 -30.5643 -30.5642
   -30.5629 -30.5628 -30.5605 -30.5605 -30.5601 -30.5600 -30.5583 -30.5572
   -30.5571 -30.5535 -30.5520 -30.5519 -30.5518 -30.5513 -30.5513 -30.5504
   -30.5471 -30.5471 -30.5428 -30.5428 -30.5344 -30.5158 -30.5031 -30.5004
    12.3479  13.9842  13.9843  14.0428  14.0429  14.0497  14.0677  14.1087
    14.1488  14.1489  14.3041  14.3041  14.3070  14.3223  14.5013  14.5487
    14.5488  14.9100  14.9100  14.9302  14.9303  14.9496  14.9496  14.9774
    14.9774  14.9940  15.0340  15.0341  15.0632  15.0633  15.1741  15.1909
    15.1910  15.1987  15.1988  15.2455  15.3470  15.3816  15.3817  15.3999
    15.3999  15.4221  15.4221  15.5186  15.5186  15.6559  15.6559  15.7304
    15.7304  15.7402  15.8467  15.8467  15.8648  15.8649  15.9200  15.9200
    15.9310  15.9901  15.9902  16.0014  16.0014  16.0535  16.0535  16.1421
    16.1939  16.1940  16.2448  16.2448  16.2588  16.2588  16.2747  16.3302
    16.3342  16.3514  16.3515  16.3569  16.3569  16.3844  16.3845  16.4144
    16.4144  16.4157  16.4213  16.4289  16.4318  16.4318  16.4473  16.4528
    16.8831  16.9509  16.9509  16.9908  17.1083  17.1083  17.2275  17.2371
    17.2371  17.2416  17.2417  17.2944  17.2945  17.3169  17.3170  17.3844
    17.3845  17.3893  17.4655  17.5435  17.5450  17.5451  17.5681  17.5682
    17.5994  17.8364  17.8364  17.8520  17.8521  17.8828  17.8958  17.9306
    17.9307  17.9423  17.9424  17.9447  17.9581  17.9582  18.0325  18.0326
    18.0690  18.0690  18.2411  18.2411  18.2890  18.2919  18.2920  18.2927
    18.3318  18.3318  18.3346  18.3347  18.4030  18.4031  18.4417  18.4834
    18.6031  18.7117  18.7549  18.7549  18.8775  18.8917  18.8917  18.9066
    18.9922  19.0392  19.0392  19.0504  19.0572  19.0572  19.2305  19.2305
    19.2665  19.2665  19.2677  19.2677  19.2747  19.2748  19.3069  19.7312
    19.9571  20.3369  20.3370  20.3921  20.8238  20.8239  21.0190  21.0191
    21.4275  21.4275  21.8899  21.8899  22.4226  22.4226  22.4278  22.4278
    22.9592  23.0661  26.0525  26.0526  26.1823  26.1823  26.6497  26.7222
    26.7223  26.7265  26.7266  27.0480  27.3570  27.3570  27.8356  27.8358
    28.7576  28.7576  29.1023  29.1024  29.4261  29.4777  29.6361  29.6361
    29.6374  29.6374  29.9113  29.9114  30.0821  30.0821  30.4580  30.4580
    30.6496  30.7371

          k = 0.0553 0.1667 0.2778 ( 33134 PWs)   bands (ev):

   -64.9807 -64.9657 -64.9595 -64.9543 -64.9499 -64.9492 -64.9461 -64.9440
   -64.9430 -64.9423 -64.9402 -64.9399 -64.9395 -64.9384 -64.9383 -64.9361
   -64.9356 -64.9346 -64.9333 -64.9329 -64.9318 -64.9303 -64.9288 -64.9246
   -64.9238 -64.9236 -64.9235 -64.9234 -64.9233 -64.9228 -64.9225 -64.9219
   -30.8551 -30.8537 -30.8460 -30.8399 -30.8326 -30.8321 -30.8289 -30.7998
   -30.7963 -30.7867 -30.7829 -30.7829 -30.7826 -30.7823 -30.7747 -30.7740
   -30.7719 -30.7685 -30.7680 -30.7659 -30.7637 -30.7615 -30.7570 -30.7528
   -30.7432 -30.7327 -30.7286 -30.7242 -30.7212 -30.7194 -30.7128 -30.7107
   -30.7063 -30.7046 -30.6948 -30.6857 -30.6846 -30.6718 -30.6656 -30.6543
   -30.6538 -30.6518 -30.6452 -30.6406 -30.6374 -30.6364 -30.6355 -30.6353
   -30.6311 -30.6305 -30.6294 -30.6258 -30.6211 -30.6196 -30.6191 -30.6166
   -30.6153 -30.6139 -30.6031 -30.6025 -30.5996 -30.5972 -30.5964 -30.5933
   -30.5808 -30.5776 -30.5769 -30.5761 -30.5750 -30.5734 -30.5733 -30.5730
   -30.5673 -30.5653 -30.5648 -30.5629 -30.5623 -30.5618 -30.5593 -30.5589
   -30.5567 -30.5552 -30.5546 -30.5539 -30.5516 -30.5510 -30.5491 -30.5435
   -30.5411 -30.5409 -30.5405 -30.5351 -30.5308 -30.5282 -30.5071 -30.5026
    12.4911  13.6374  14.0858  14.1095  14.1206  14.1310  14.1334  14.1749
    14.2405  14.2528  14.3583  14.3848  14.3862  14.4121  14.5164  14.5739
    14.6501  14.7201  14.7505  14.7810  14.8049  14.8153  14.8196  14.8493
    14.9477  14.9552  14.9783  14.9863  15.0132  15.0357  15.0989  15.1090
    15.1147  15.1453  15.1669  15.2221  15.2513  15.2819  15.3115  15.4039
    15.4119  15.4417  15.4731  15.5499  15.5805  15.5975  15.6074  15.7003
    15.7041  15.7147  15.7212  15.7426  15.7848  15.8632  15.8683  15.9099
    15.9145  15.9208  16.0036  16.0587  16.0983  16.1061  16.1485  16.1798
    16.1812  16.1980  16.1987  16.2081  16.2555  16.2663  16.2847  16.3102
    16.3317  16.3376  16.3999  16.4591  16.4695  16.4772  16.4870  16.5067
    16.5070  16.5127  16.5214  16.5472  16.5595  16.6626  16.7325  16.7851
    16.7934  16.7936  16.8188  16.9080  16.9382  17.0440  17.0498  17.0618
    17.1293  17.1452  17.1637  17.2398  17.2507  17.3166  17.3361  17.4242
    17.4468  17.4663  17.4709  17.5330  17.5675  17.6511  17.7023  17.7077
    17.7247  17.8057  17.8107  17.8211  17.8509  17.9025  17.9290  17.9318
    17.9725  18.0091  18.0115  18.0620  18.0627  18.0741  18.0765  18.0883
    18.1043  18.1293  18.1931  18.2285  18.2558  18.2942  18.3297  18.3854
    18.3951  18.4284  18.4291  18.4306  18.4323  18.4568  18.4622  18.5441
    18.5609  18.5838  18.6671  18.7609  18.7825  18.8054  18.8822  18.8907
    18.9666  18.9983  19.0145  19.0203  19.1074  19.1202  19.1212  19.1234
    19.1375  19.1383  19.1724  19.2663  19.2685  19.2704  19.2862  19.5650
    19.7597  19.9120  20.2743  20.3668  20.4161  20.7767  20.9383  21.3053
    21.5029  21.8151  21.8608  22.0513  22.3947  22.5378  22.8980  23.0776
    23.4122  23.7058  25.2189  25.4061  25.8247  26.0092  26.1860  26.3306
    26.3559  26.8706  27.0225  27.0399  27.0810  27.5551  27.5694  28.2119
    28.3610  28.6053  28.7393  28.8629  28.9876  29.1392  29.3170  29.4419
    29.6323  29.7258  29.8513  30.0587  30.0821  30.2544  30.3448  30.4171
    30.5956  30.7734

          k = 0.0553 0.1667 0.3889 ( 33164 PWs)   bands (ev):

   -64.9780 -64.9704 -64.9578 -64.9529 -64.9528 -64.9486 -64.9480 -64.9444
   -64.9430 -64.9426 -64.9410 -64.9401 -64.9397 -64.9387 -64.9357 -64.9349
   -64.9348 -64.9347 -64.9333 -64.9304 -64.9292 -64.9282 -64.9272 -64.9271
   -64.9255 -64.9250 -64.9246 -64.9243 -64.9234 -64.9228 -64.9225 -64.9219
   -30.8458 -30.8434 -30.8331 -30.8257 -30.8244 -30.8232 -30.8172 -30.8156
   -30.8136 -30.8010 -30.8001 -30.7981 -30.7904 -30.7829 -30.7811 -30.7777
   -30.7768 -30.7768 -30.7754 -30.7718 -30.7628 -30.7570 -30.7566 -30.7460
   -30.7405 -30.7357 -30.7292 -30.7255 -30.7219 -30.7168 -30.7086 -30.7046
   -30.6994 -30.6987 -30.6968 -30.6895 -30.6848 -30.6793 -30.6780 -30.6703
   -30.6639 -30.6540 -30.6367 -30.6358 -30.6306 -30.6295 -30.6290 -30.6288
   -30.6251 -30.6237 -30.6214 -30.6141 -30.6107 -30.6093 -30.6091 -30.6085
   -30.6079 -30.6044 -30.6013 -30.5995 -30.5917 -30.5912 -30.5881 -30.5878
   -30.5868 -30.5866 -30.5864 -30.5855 -30.5852 -30.5846 -30.5840 -30.5752
   -30.5719 -30.5717 -30.5651 -30.5643 -30.5638 -30.5630 -30.5619 -30.5618
   -30.5611 -30.5600 -30.5534 -30.5529 -30.5520 -30.5490 -30.5475 -30.5446
   -30.5445 -30.5414 -30.5355 -30.5301 -30.5298 -30.5242 -30.5131 -30.5075
    12.7009  13.2892  14.2026  14.2135  14.2302  14.2488  14.2631  14.2804
    14.3695  14.3922  14.4257  14.4383  14.4905  14.5089  14.5157  14.5442
    14.5703  14.6026  14.6046  14.6047  14.6692  14.6711  14.7304  14.7351
    14.7620  14.7939  14.8719  14.8895  14.9166  14.9945  15.1015  15.1237
    15.1335  15.1486  15.1794  15.2312  15.2470  15.3687  15.3692  15.3980
    15.4299  15.4356  15.5092  15.5132  15.5384  15.5429  15.5438  15.5501
    15.5922  15.6278  15.6857  15.7163  15.7409  15.7832  15.8727  15.8864
    15.9271  15.9774  16.0733  16.0928  16.1264  16.1341  16.1475  16.1577
    16.1610  16.1627  16.2014  16.2274  16.2463  16.2621  16.2701  16.2790
    16.3312  16.3676  16.3747  16.5144  16.5273  16.5742  16.5812  16.5860
    16.5918  16.5976  16.6244  16.6392  16.6650  16.7352  16.7451  16.7609
    16.8079  16.8313  16.8693  16.9179  16.9592  16.9807  17.0271  17.0417
    17.2149  17.2187  17.2416  17.2467  17.2641  17.2981  17.3867  17.4840
    17.4867  17.5011  17.5547  17.6029  17.6584  17.6627  17.6744  17.6809
    17.7075  17.7089  17.7507  17.7825  17.8253  17.8500  17.8537  17.8612
    17.9111  17.9171  17.9691  17.9818  18.0260  18.0735  18.1007  18.1232
    18.1304  18.1332  18.1404  18.2821  18.2992  18.2998  18.3329  18.3370
    18.4376  18.4802  18.5252  18.5673  18.5971  18.6197  18.6210  18.6230
    18.6324  18.6374  18.6603  18.7174  18.7256  18.8182  18.8278  18.8439
    18.8689  18.9249  18.9286  18.9608  18.9693  18.9743  18.9750  19.0528
    19.1290  19.2087  19.2664  19.2680  19.2699  19.2769  19.5179  19.5523
    19.6769  19.9051  19.9332  20.1797  20.4640  20.5073  20.7054  21.0967
    21.5377  21.8033  21.8925  22.3169  22.7517  23.2616  23.4734  23.7980
    23.9824  24.3555  24.4081  24.7504  24.9196  25.3043  25.4434  26.0107
    26.3906  26.7141  27.3267  27.3577  27.4337  27.6287  27.8719  27.9331
    28.1357  28.1534  28.3155  28.6721  28.8371  29.0271  29.3071  29.3690
    29.5938  29.6920  29.7241  29.8195  30.0156  30.1147  30.1318  30.2867
    30.3203  30.5248

          k = 0.0553 0.1667-0.5000 ( 33178 PWs)   bands (ev):

   -64.9749 -64.9742 -64.9559 -64.9552 -64.9513 -64.9505 -64.9467 -64.9460
   -64.9422 -64.9420 -64.9415 -64.9413 -64.9396 -64.9389 -64.9356 -64.9348
   -64.9344 -64.9336 -64.9311 -64.9303 -64.9281 -64.9273 -64.9273 -64.9266
   -64.9266 -64.9260 -64.9259 -64.9252 -64.9235 -64.9228 -64.9225 -64.9219
   -30.8331 -30.8328 -30.8299 -30.8295 -30.8177 -30.8173 -30.8141 -30.8134
   -30.8121 -30.8113 -30.8089 -30.8086 -30.7984 -30.7976 -30.7804 -30.7803
   -30.7785 -30.7781 -30.7773 -30.7772 -30.7574 -30.7573 -30.7490 -30.7486
   -30.7351 -30.7346 -30.7341 -30.7337 -30.7145 -30.7142 -30.7079 -30.7074
   -30.6974 -30.6969 -30.6895 -30.6887 -30.6876 -30.6873 -30.6760 -30.6756
   -30.6659 -30.6652 -30.6367 -30.6361 -30.6290 -30.6286 -30.6210 -30.6203
   -30.6177 -30.6169 -30.6119 -30.6112 -30.6103 -30.6100 -30.6032 -30.6029
   -30.6009 -30.6005 -30.5977 -30.5974 -30.5973 -30.5972 -30.5971 -30.5967
   -30.5940 -30.5932 -30.5847 -30.5843 -30.5809 -30.5802 -30.5743 -30.5739
   -30.5734 -30.5727 -30.5699 -30.5695 -30.5649 -30.5645 -30.5632 -30.5625
   -30.5614 -30.5607 -30.5569 -30.5565 -30.5531 -30.5524 -30.5462 -30.5455
   -30.5445 -30.5442 -30.5316 -30.5314 -30.5212 -30.5204 -30.5151 -30.5146
    12.9703  12.9712  14.3126  14.3134  14.3457  14.3458  14.3976  14.3983
    14.4073  14.4081  14.4232  14.4241  14.4241  14.4242  14.5337  14.5337
    14.5422  14.5431  14.5635  14.5636  14.6115  14.6121  14.6709  14.6717
    14.7140  14.7146  14.7804  14.7809  14.9669  14.9676  15.0455  15.0456
    15.2402  15.2404  15.2430  15.2436  15.2829  15.2837  15.3769  15.3777
    15.4562  15.4563  15.4755  15.4762  15.5267  15.5270  15.5507  15.5510
    15.6160  15.6161  15.6362  15.6367  15.6397  15.6403  16.0053  16.0059
    16.0193  16.0198  16.0288  16.0294  16.0499  16.0505  16.0985  16.0986
    16.1900  16.1906  16.2129  16.2133  16.3082  16.3087  16.3349  16.3355
    16.3983  16.3984  16.4500  16.4501  16.4549  16.4551  16.5721  16.5722
    16.6277  16.6279  16.6849  16.6857  16.7006  16.7008  16.7192  16.7199
    16.7573  16.7576  16.7808  16.7811  17.2505  17.2511  17.2613  17.2619
    17.3024  17.3026  17.3101  17.3103  17.3369  17.3372  17.3884  17.3887
    17.4411  17.4417  17.5892  17.5900  17.5905  17.5911  17.6653  17.6657
    17.6664  17.6669  17.6887  17.6891  17.7104  17.7110  17.7793  17.7800
    17.8888  17.8895  17.9313  17.9319  17.9987  17.9993  18.0500  18.0508
    18.1913  18.1920  18.2404  18.2411  18.3191  18.3196  18.4802  18.4808
    18.5170  18.5171  18.5384  18.5391  18.6614  18.6617  18.6895  18.6895
    18.7514  18.7520  18.7821  18.7825  18.7915  18.7917  18.7959  18.7961
    18.8055  18.8060  18.8076  18.8081  18.8892  18.8894  18.9373  18.9375
    19.1530  19.1531  19.2665  19.2672  19.2720  19.2727  19.5196  19.5197
    20.0017  20.0018  20.0540  20.0547  20.3613  20.3619  20.6121  20.6128
    21.7008  21.7016  22.1602  22.1609  23.5239  23.5243  24.0586  24.0589
    24.0997  24.1003  24.5890  24.5893  24.6222  24.6229  25.1771  25.1773
    26.8125  26.8126  27.2478  27.2479  27.7035  27.7043  27.8057  27.8065
    28.2448  28.2455  28.2815  28.2817  28.8356  28.8358  29.1950  29.1953
    29.6955  29.6963  29.8879  29.8885  29.9282  29.9286  29.9437  29.9446
    30.8197  30.8208

          k = 0.0553 0.2778 0.2778 ( 33150 PWs)   bands (ev):

   -64.9789 -64.9644 -64.9644 -64.9536 -64.9533 -64.9484 -64.9456 -64.9456
   -64.9420 -64.9420 -64.9415 -64.9393 -64.9390 -64.9390 -64.9349 -64.9348
   -64.9346 -64.9345 -64.9321 -64.9320 -64.9308 -64.9307 -64.9274 -64.9248
   -64.9246 -64.9244 -64.9243 -64.9239 -64.9239 -64.9233 -64.9231 -64.9224
   -30.8500 -30.8500 -30.8356 -30.8278 -30.8260 -30.8244 -30.8244 -30.8001
   -30.8001 -30.7986 -30.7985 -30.7869 -30.7869 -30.7775 -30.7774 -30.7774
   -30.7774 -30.7730 -30.7730 -30.7719 -30.7718 -30.7628 -30.7588 -30.7588
   -30.7565 -30.7564 -30.7268 -30.7206 -30.7150 -30.7150 -30.7097 -30.7097
   -30.7032 -30.6975 -30.6897 -30.6897 -30.6641 -30.6641 -30.6638 -30.6540
   -30.6540 -30.6504 -30.6503 -30.6407 -30.6406 -30.6317 -30.6317 -30.6283
   -30.6283 -30.6275 -30.6274 -30.6253 -30.6203 -30.6202 -30.6131 -30.6130
   -30.6050 -30.6050 -30.6042 -30.6041 -30.5938 -30.5938 -30.5912 -30.5911
   -30.5858 -30.5858 -30.5834 -30.5824 -30.5754 -30.5754 -30.5741 -30.5738
   -30.5734 -30.5725 -30.5724 -30.5694 -30.5632 -30.5632 -30.5620 -30.5586
   -30.5585 -30.5562 -30.5520 -30.5518 -30.5518 -30.5511 -30.5451 -30.5451
   -30.5422 -30.5420 -30.5420 -30.5294 -30.5294 -30.5250 -30.5113 -30.5025
    12.6304  13.7461  13.7462  14.1542  14.1970  14.2010  14.2010  14.2221
    14.3501  14.3501  14.4202  14.4386  14.4386  14.5109  14.5651  14.5951
    14.6163  14.6164  14.6523  14.6523  14.7690  14.7691  14.7714  14.7715
    14.8600  14.8600  14.8804  14.8805  15.0403  15.0442  15.0443  15.0500
    15.0501  15.1421  15.1421  15.1743  15.1744  15.2300  15.2300  15.3013
    15.3013  15.3722  15.4986  15.4987  15.5031  15.5031  15.5170  15.7211
    15.7212  15.7466  15.7467  15.7558  15.7600  15.7600  15.7797  16.0089
    16.0090  16.0993  16.0994  16.1659  16.1660  16.1725  16.1725  16.2194
    16.2194  16.2266  16.2443  16.2479  16.2480  16.3367  16.3679  16.3848
    16.3849  16.4781  16.4781  16.5168  16.5360  16.5396  16.5708  16.5769
    16.5836  16.5837  16.6160  16.6160  16.6439  16.6557  16.6558  16.6789
    16.7814  16.7814  16.8054  16.8054  16.9868  16.9868  17.0449  17.0450
    17.1221  17.1221  17.1843  17.2281  17.2587  17.2588  17.2888  17.2889
    17.3139  17.3140  17.3890  17.4002  17.5333  17.5333  17.6584  17.7374
    17.7374  17.7562  17.7562  17.7871  17.7980  17.8791  17.8791  17.9272
    17.9955  18.0450  18.0451  18.0965  18.0966  18.1488  18.1489  18.1802
    18.1803  18.2858  18.2859  18.2954  18.2954  18.3067  18.3143  18.3144
    18.3152  18.3815  18.3815  18.5294  18.5724  18.5968  18.5968  18.5975
    18.5976  18.6054  18.6055  18.7060  18.7103  18.7407  18.8653  18.8653
    18.9320  19.0242  19.0248  19.0248  19.0570  19.0570  19.1391  19.1392
    19.1419  19.1419  19.1606  19.1606  19.2148  19.2257  19.5309  19.5724
    19.5724  19.8490  19.8491  20.2343  20.3230  20.3231  21.5414  21.5415
    21.8911  21.8911  22.2819  22.2819  22.5311  22.5312  23.0557  23.0557
    23.8173  24.3350  24.6273  24.6274  25.8462  25.8462  26.1851  26.1851
    26.2838  26.2839  26.7936  26.7937  27.4634  27.4636  27.5950  27.7303
    27.7303  28.1189  28.2425  28.2425  28.2675  29.3545  29.5626  29.5626
    29.6620  29.6621  30.1021  30.1904  30.4659  30.4660  30.5636  30.5637
    30.8465  30.8465

          k = 0.0553 0.2778 0.3889 ( 33177 PWs)   bands (ev):

   -64.9763 -64.9689 -64.9625 -64.9569 -64.9520 -64.9480 -64.9473 -64.9449
   -64.9439 -64.9428 -64.9416 -64.9400 -64.9383 -64.9360 -64.9345 -64.9339
   -64.9335 -64.9324 -64.9314 -64.9314 -64.9297 -64.9288 -64.9271 -64.9261
   -64.9259 -64.9257 -64.9255 -64.9247 -64.9240 -64.9239 -64.9232 -64.9225
   -30.8425 -30.8415 -30.8221 -30.8178 -30.8173 -30.8168 -30.8147 -30.8128
   -30.8125 -30.7987 -30.7977 -30.7977 -30.7925 -30.7890 -30.7868 -30.7863
   -30.7858 -30.7798 -30.7781 -30.7771 -30.7702 -30.7699 -30.7611 -30.7596
   -30.7587 -30.7440 -30.7363 -30.7330 -30.7258 -30.7123 -30.7010 -30.6989
   -30.6953 -30.6843 -30.6824 -30.6760 -30.6751 -30.6743 -30.6675 -30.6624
   -30.6493 -30.6459 -30.6423 -30.6363 -30.6346 -30.6340 -30.6313 -30.6288
   -30.6250 -30.6224 -30.6200 -30.6165 -30.6160 -30.6132 -30.6092 -30.6058
   -30.6046 -30.6042 -30.6035 -30.6020 -30.5993 -30.5940 -30.5905 -30.5899
   -30.5896 -30.5889 -30.5836 -30.5834 -30.5808 -30.5792 -30.5783 -30.5778
   -30.5721 -30.5715 -30.5711 -30.5676 -30.5667 -30.5665 -30.5645 -30.5643
   -30.5597 -30.5575 -30.5559 -30.5543 -30.5529 -30.5521 -30.5520 -30.5485
   -30.5437 -30.5431 -30.5346 -30.5247 -30.5222 -30.5192 -30.5173 -30.5054
    12.8347  13.4070  13.9029  14.2253  14.2956  14.2968  14.3059  14.3249
    14.3322  14.4684  14.4767  14.4809  14.4907  14.5161  14.5231  14.5587
    14.5808  14.5872  14.5909  14.6275  14.6514  14.6772  14.7181  14.7397
    14.7584  14.8079  14.8343  14.8469  14.9127  14.9396  14.9721  14.9794
    15.0221  15.1162  15.1193  15.1530  15.1919  15.2254  15.2261  15.2735
    15.2906  15.3482  15.3669  15.4046  15.4394  15.5436  15.5967  15.6127
    15.6422  15.6704  15.7452  15.7700  15.8055  15.8301  15.8822  15.9931
    15.9944  16.0081  16.0757  16.1409  16.1442  16.1882  16.2296  16.2457
    16.2713  16.2853  16.2877  16.3179  16.3383  16.3667  16.3985  16.4920
    16.4922  16.5133  16.5358  16.5384  16.5870  16.5999  16.6061  16.6147
    16.6268  16.6553  16.6569  16.7205  16.7231  16.7409  16.7467  16.7679
    16.7722  16.8628  16.8673  16.8731  16.9440  16.9665  17.0387  17.0538
    17.0631  17.0860  17.1172  17.1256  17.1511  17.1801  17.1815  17.3092
    17.3992  17.4170  17.4306  17.4332  17.4412  17.4535  17.5315  17.5475
    17.5745  17.6078  17.6598  17.6763  17.7075  17.7740  17.9432  17.9702
    17.9774  17.9778  18.0166  18.0209  18.1471  18.1567  18.1588  18.1631
    18.1751  18.2237  18.3264  18.3455  18.3513  18.3592  18.4124  18.4207
    18.4218  18.5021  18.5293  18.5604  18.5716  18.6307  18.6600  18.7267
    18.7433  18.7440  18.7549  18.7564  18.7598  18.7638  18.7880  18.8079
    18.9042  18.9500  18.9641  18.9705  18.9720  18.9764  18.9820  18.9826
    19.0257  19.0988  19.1416  19.1489  19.1514  19.1853  19.4564  19.5371
    19.7574  19.8951  20.0536  20.1549  20.1768  20.2641  21.0399  21.5631
    22.1984  22.2256  22.4017  22.4948  22.8328  22.9727  23.2789  23.7848
    23.7949  24.0252  24.3439  24.9705  25.0207  25.3612  25.6024  26.2026
    26.3928  26.5273  26.6353  26.7391  26.9935  27.0270  27.2885  27.4560
    27.6925  27.7837  28.0186  28.1977  28.7535  29.0783  29.6407  29.6418
    29.7162  29.7968  29.8814  29.9256  30.0663  30.2202  30.6940  30.7465
    30.8924  30.9249

          k = 0.0553 0.2778-0.5000 ( 33180 PWs)   bands (ev):

   -64.9733 -64.9726 -64.9603 -64.9596 -64.9505 -64.9498 -64.9461 -64.9454
   -64.9443 -64.9435 -64.9413 -64.9405 -64.9376 -64.9369 -64.9335 -64.9328
   -64.9327 -64.9320 -64.9308 -64.9301 -64.9288 -64.9280 -64.9279 -64.9274
   -64.9272 -64.9266 -64.9253 -64.9247 -64.9245 -64.9240 -64.9232 -64.9225
   -30.8313 -30.8310 -30.8296 -30.8293 -30.8094 -30.8087 -30.8064 -30.8064
   -30.8060 -30.8056 -30.7972 -30.7966 -30.7957 -30.7953 -30.7937 -30.7937
   -30.7929 -30.7928 -30.7844 -30.7839 -30.7660 -30.7655 -30.7625 -30.7619
   -30.7466 -30.7462 -30.7349 -30.7349 -30.7284 -30.7281 -30.6878 -30.6877
   -30.6875 -30.6875 -30.6815 -30.6811 -30.6736 -30.6728 -30.6649 -30.6648
   -30.6611 -30.6603 -30.6305 -30.6299 -30.6261 -30.6253 -30.6241 -30.6234
   -30.6212 -30.6210 -30.6208 -30.6206 -30.6166 -30.6159 -30.6159 -30.6157
   -30.6038 -30.6033 -30.5990 -30.5988 -30.5947 -30.5943 -30.5942 -30.5938
   -30.5855 -30.5847 -30.5841 -30.5836 -30.5806 -30.5804 -30.5779 -30.5777
   -30.5722 -30.5715 -30.5700 -30.5694 -30.5693 -30.5687 -30.5669 -30.5666
   -30.5613 -30.5606 -30.5589 -30.5585 -30.5547 -30.5540 -30.5468 -30.5465
   -30.5462 -30.5455 -30.5256 -30.5248 -30.5222 -30.5220 -30.5112 -30.5109
    13.0967  13.0977  14.0991  14.0999  14.3332  14.3333  14.4077  14.4084
    14.4258  14.4258  14.4292  14.4296  14.4945  14.4953  14.5250  14.5254
    14.6167  14.6176  14.6432  14.6432  14.6583  14.6584  14.6695  14.6698
    14.7170  14.7177  14.8251  14.8255  14.8629  14.8630  14.9305  14.9311
    15.1042  15.1049  15.1147  15.1151  15.1948  15.1950  15.2574  15.2576
    15.2615  15.2623  15.4450  15.4457  15.4904  15.4904  15.4908  15.4915
    15.7554  15.7554  15.7641  15.7646  15.8632  15.8634  15.8926  15.8932
    15.9152  15.9158  16.0257  16.0262  16.2103  16.2109  16.3138  16.3144
    16.3212  16.3213  16.3343  16.3347  16.3921  16.3924  16.3934  16.3935
    16.4397  16.4399  16.6006  16.6007  16.6316  16.6321  16.6663  16.6663
    16.6743  16.6745  16.6895  16.6902  16.7278  16.7283  16.7474  16.7477
    16.8736  16.8739  16.8970  16.8973  17.0620  17.0621  17.0788  17.0792
    17.0913  17.0918  17.1428  17.1429  17.1528  17.1529  17.1689  17.1691
    17.2409  17.2415  17.4933  17.4939  17.4963  17.4966  17.5370  17.5375
    17.5660  17.5665  17.5831  17.5833  17.6081  17.6088  17.8849  17.8856
    17.8950  17.8955  18.0592  18.0599  18.1059  18.1065  18.1138  18.1145
    18.2744  18.2751  18.3999  18.4006  18.4063  18.4070  18.5240  18.5248
    18.5505  18.5511  18.5889  18.5889  18.6337  18.6338  18.6353  18.6355
    18.7556  18.7562  18.7822  18.7822  18.8152  18.8155  18.8655  18.8658
    18.8680  18.8684  18.8830  18.8833  18.8893  18.8895  18.8941  18.8941
    19.0915  19.0917  19.1450  19.1458  19.1618  19.1623  19.4873  19.4874
    19.6443  19.6450  20.2042  20.2049  20.5437  20.5440  20.8336  20.8342
    22.3952  22.3959  22.7687  22.7694  22.9826  22.9831  23.4217  23.4223
    24.0973  24.0976  24.5708  24.5709  24.9483  24.9489  25.7670  25.7672
    26.4674  26.4675  26.8243  26.8244  26.9039  26.9045  27.1597  27.1604
    27.3724  27.3732  28.5769  28.5770  28.8824  28.8825  29.4555  29.4556
    29.6663  29.6671  29.8005  29.8014  30.2637  30.2645  30.4832  30.4832
    31.1519  31.1526

          k = 0.0553 0.3889 0.3889 ( 33190 PWs)   bands (ev):

   -64.9738 -64.9668 -64.9667 -64.9607 -64.9507 -64.9471 -64.9470 -64.9463
   -64.9444 -64.9434 -64.9432 -64.9412 -64.9340 -64.9339 -64.9325 -64.9324
   -64.9322 -64.9321 -64.9304 -64.9303 -64.9297 -64.9296 -64.9271 -64.9270
   -64.9267 -64.9267 -64.9262 -64.9261 -64.9252 -64.9238 -64.9235 -64.9228
   -30.8356 -30.8356 -30.8132 -30.8132 -30.8125 -30.8124 -30.8087 -30.8083
   -30.8080 -30.8079 -30.7976 -30.7976 -30.7972 -30.7949 -30.7949 -30.7846
   -30.7846 -30.7807 -30.7806 -30.7793 -30.7793 -30.7759 -30.7759 -30.7641
   -30.7617 -30.7617 -30.7469 -30.7347 -30.7282 -30.7133 -30.7133 -30.6875
   -30.6812 -30.6812 -30.6674 -30.6673 -30.6634 -30.6546 -30.6546 -30.6489
   -30.6488 -30.6480 -30.6479 -30.6427 -30.6426 -30.6243 -30.6243 -30.6235
   -30.6235 -30.6220 -30.6220 -30.6191 -30.6190 -30.6170 -30.6151 -30.6151
   -30.6106 -30.6106 -30.6019 -30.6019 -30.5979 -30.5979 -30.5950 -30.5934
   -30.5934 -30.5826 -30.5826 -30.5809 -30.5808 -30.5806 -30.5806 -30.5783
   -30.5724 -30.5722 -30.5722 -30.5699 -30.5698 -30.5666 -30.5660 -30.5600
   -30.5595 -30.5568 -30.5564 -30.5562 -30.5562 -30.5530 -30.5526 -30.5456
   -30.5455 -30.5412 -30.5412 -30.5236 -30.5173 -30.5159 -30.5159 -30.5059
    13.0306  13.5781  13.5782  14.0491  14.2697  14.3630  14.3765  14.4290
    14.4290  14.4512  14.4534  14.4535  14.5703  14.5703  14.5934  14.6180
    14.6181  14.6323  14.6323  14.6349  14.6350  14.6620  14.6621  14.7817
    14.7818  14.7978  14.8080  14.8460  14.8460  14.9491  14.9492  14.9519
    14.9520  14.9739  14.9740  15.0237  15.0237  15.1617  15.1618  15.1672
    15.1672  15.1962  15.1962  15.4292  15.4293  15.4912  15.6721  15.6722
    15.6777  15.6778  15.7637  15.8338  15.8855  15.8856  15.8856  15.8856
    15.8884  16.0931  16.1845  16.1845  16.2279  16.3458  16.3628  16.3629
    16.4150  16.4150  16.4154  16.4154  16.4201  16.4202  16.4598  16.4598
    16.4678  16.4810  16.6510  16.6630  16.6649  16.6649  16.6661  16.6856
    16.7303  16.7303  16.7338  16.7346  16.7346  16.7414  16.8726  16.8727
    16.8841  16.8841  16.8899  16.8900  16.8912  16.8913  17.0070  17.0071
    17.0140  17.0369  17.0736  17.0737  17.0947  17.1737  17.1998  17.1999
    17.2029  17.2080  17.2080  17.2233  17.2234  17.2477  17.2478  17.4259
    17.5337  17.5337  17.5365  17.5365  17.6644  17.7184  17.7185  17.7252
    17.8987  18.0229  18.1368  18.1369  18.1816  18.1816  18.2557  18.2558
    18.3428  18.3429  18.3862  18.3863  18.4452  18.4453  18.4492  18.5493
    18.5493  18.6408  18.6704  18.6705  18.6709  18.6749  18.6750  18.6757
    18.6824  18.6824  18.7498  18.8148  18.8516  18.8516  18.8560  18.8570
    18.8571  18.9560  18.9560  18.9700  18.9701  18.9752  18.9825  18.9825
    18.9978  18.9978  19.0059  19.0060  19.1033  19.1778  19.2977  19.3712
    19.3712  19.8552  19.8553  19.9478  20.6620  20.6620  21.7021  21.7021
    22.0967  22.0967  22.8383  22.8384  23.2273  23.2273  23.2558  23.2559
    23.6728  23.6729  24.8264  24.8473  24.8474  25.6799  26.0109  26.0110
    26.2114  26.2115  26.4642  26.4642  26.6238  26.6238  27.0295  27.0295
    27.0935  27.1977  27.1980  28.4810  28.8346  29.4097  29.6575  29.6577
    29.6587  29.7944  30.3011  30.3011  30.4162  30.4162  30.8857  30.8858
    31.2608  31.2611

          k = 0.0553 0.3889-0.5000 ( 33182 PWs)   bands (ev):

   -64.9710 -64.9702 -64.9644 -64.9636 -64.9494 -64.9486 -64.9462 -64.9455
   -64.9453 -64.9445 -64.9428 -64.9420 -64.9336 -64.9328 -64.9316 -64.9312
   -64.9309 -64.9305 -64.9305 -64.9297 -64.9294 -64.9288 -64.9286 -64.9285
   -64.9280 -64.9277 -64.9270 -64.9262 -64.9247 -64.9239 -64.9236 -64.9229
   -30.8261 -30.8259 -30.8255 -30.8252 -30.8067 -30.8067 -30.8066 -30.8065
   -30.8024 -30.8017 -30.7980 -30.7973 -30.7954 -30.7947 -30.7928 -30.7924
   -30.7891 -30.7886 -30.7806 -30.7801 -30.7800 -30.7797 -30.7750 -30.7743
   -30.7618 -30.7614 -30.7453 -30.7449 -30.7252 -30.7252 -30.7003 -30.7002
   -30.6676 -30.6674 -30.6645 -30.6643 -30.6587 -30.6580 -30.6543 -30.6535
   -30.6423 -30.6421 -30.6355 -30.6347 -30.6345 -30.6339 -30.6338 -30.6338
   -30.6311 -30.6310 -30.6216 -30.6210 -30.6139 -30.6132 -30.6131 -30.6130
   -30.6072 -30.6067 -30.6021 -30.6020 -30.5993 -30.5992 -30.5978 -30.5973
   -30.5901 -30.5899 -30.5896 -30.5895 -30.5774 -30.5772 -30.5767 -30.5766
   -30.5763 -30.5755 -30.5724 -30.5722 -30.5630 -30.5623 -30.5616 -30.5613
   -30.5604 -30.5601 -30.5588 -30.5582 -30.5503 -30.5502 -30.5500 -30.5494
   -30.5492 -30.5485 -30.5320 -30.5312 -30.5152 -30.5151 -30.5097 -30.5096
    13.2814  13.2823  13.7951  13.7960  14.3462  14.3463  14.4451  14.4455
    14.4514  14.4514  14.4895  14.4897  14.5437  14.5445  14.5741  14.5742
    14.5944  14.5952  14.7066  14.7068  14.7284  14.7293  14.7725  14.7726
    14.7766  14.7767  14.7856  14.7863  14.8326  14.8332  14.9040  14.9048
    14.9723  14.9726  14.9888  14.9893  15.0573  15.0582  15.0676  15.0677
    15.0784  15.0785  15.3232  15.3233  15.5356  15.5362  15.5408  15.5416
    15.7691  15.7697  15.7765  15.7772  15.8718  15.8721  16.0042  16.0044
    16.0045  16.0048  16.1452  16.1453  16.2198  16.2205  16.3550  16.3555
    16.4023  16.4023  16.4200  16.4202  16.5429  16.5430  16.5778  16.5780
    16.6645  16.6651  16.7003  16.7008  16.7113  16.7115  16.7268  16.7269
    16.7329  16.7332  16.7595  16.7598  16.8150  16.8152  16.8356  16.8356
    16.8716  16.8717  16.9183  16.9185  16.9238  16.9242  16.9354  16.9357
    16.9514  16.9518  16.9699  16.9701  17.0475  17.0478  17.0758  17.0762
    17.0782  17.0785  17.2850  17.2852  17.3797  17.3801  17.3939  17.3943
    17.4165  17.4168  17.4652  17.4658  17.4845  17.4852  17.5904  17.5911
    18.0252  18.0258  18.1202  18.1208  18.2893  18.2899  18.3005  18.3011
    18.3114  18.3121  18.4203  18.4207  18.5282  18.5289  18.5616  18.5624
    18.5704  18.5705  18.5958  18.5965  18.7021  18.7022  18.7671  18.7677
    18.7755  18.7761  18.8341  18.8343  18.8672  18.8674  18.8774  18.8776
    18.9180  18.9183  18.9212  18.9215  18.9358  18.9360  18.9406  18.9407
    18.9799  18.9807  19.0115  19.0116  19.0441  19.0444  19.2842  19.2849
    19.4791  19.4793  19.8507  19.8513  21.1798  21.1802  21.3548  21.3553
    22.4388  22.4393  22.6575  22.6580  23.1275  23.1281  23.3618  23.3623
    24.0632  24.0633  24.3575  24.3576  25.3919  25.3925  26.2580  26.2580
    26.3401  26.3402  26.3868  26.3872  26.4844  26.4845  26.5908  26.5912
    26.6759  26.6764  27.8264  27.8265  29.5370  29.5371  29.6360  29.6369
    29.7078  29.7087  30.1213  30.1214  30.8150  30.8159  30.9294  30.9295
    31.0066  31.0067

          k = 0.0553-0.5000-0.5000 ( 33144 PWs)   bands (ev):

   -64.9681 -64.9678 -64.9674 -64.9671 -64.9481 -64.9478 -64.9473 -64.9470
   -64.9443 -64.9440 -64.9435 -64.9432 -64.9303 -64.9302 -64.9300 -64.9299
   -64.9299 -64.9299 -64.9298 -64.9296 -64.9295 -64.9295 -64.9292 -64.9292
   -64.9292 -64.9291 -64.9290 -64.9289 -64.9243 -64.9240 -64.9235 -64.9232
   -30.8178 -30.8178 -30.8178 -30.8177 -30.8176 -30.8176 -30.8175 -30.8175
   -30.7929 -30.7929 -30.7926 -30.7926 -30.7923 -30.7923 -30.7920 -30.7920
   -30.7876 -30.7872 -30.7868 -30.7865 -30.7777 -30.7775 -30.7773 -30.7771
   -30.7631 -30.7629 -30.7627 -30.7625 -30.7130 -30.7130 -30.7130 -30.7129
   -30.6484 -30.6484 -30.6484 -30.6484 -30.6484 -30.6484 -30.6484 -30.6483
   -30.6458 -30.6457 -30.6455 -30.6454 -30.6450 -30.6450 -30.6447 -30.6447
   -30.6201 -30.6201 -30.6201 -30.6201 -30.6107 -30.6107 -30.6105 -30.6104
   -30.6101 -30.6101 -30.6099 -30.6098 -30.6068 -30.6067 -30.6067 -30.6067
   -30.5843 -30.5843 -30.5841 -30.5841 -30.5838 -30.5837 -30.5836 -30.5835
   -30.5699 -30.5697 -30.5695 -30.5694 -30.5631 -30.5630 -30.5630 -30.5630
   -30.5550 -30.5550 -30.5549 -30.5547 -30.5546 -30.5543 -30.5542 -30.5542
   -30.5404 -30.5401 -30.5396 -30.5393 -30.5108 -30.5108 -30.5108 -30.5108
    13.5172  13.5179  13.5182  13.5188  14.3839  14.3841  14.3842  14.3843
    14.5008  14.5009  14.5009  14.5010  14.5816  14.5818  14.5818  14.5819
    14.7124  14.7124  14.7129  14.7130  14.7131  14.7132  14.7136  14.7137
    14.8763  14.8763  14.8767  14.8769  14.8770  14.8771  14.8775  14.8776
    14.9171  14.9171  14.9172  14.9172  14.9173  14.9173  14.9173  14.9174
    15.1434  15.1434  15.1435  15.1436  15.6463  15.6464  15.6468  15.6468
    15.6470  15.6471  15.6475  15.6475  15.9538  15.9541  15.9541  15.9542
    16.1827  16.1831  16.1833  16.1837  16.3675  16.3678  16.3681  16.3684
    16.4909  16.4910  16.4912  16.4913  16.5000  16.5001  16.5002  16.5004
    16.7133  16.7135  16.7137  16.7139  16.7606  16.7606  16.7608  16.7608
    16.7608  16.7608  16.7610  16.7610  16.8274  16.8275  16.8275  16.8278
    16.8415  16.8416  16.8418  16.8419  16.9473  16.9474  16.9477  16.9478
    17.0515  17.0515  17.0516  17.0518  17.0519  17.0520  17.0520  17.0521
    17.1919  17.1922  17.1922  17.1925  17.2154  17.2154  17.2156  17.2156
    17.2158  17.2158  17.2160  17.2160  17.5351  17.5353  17.5359  17.5360
    18.1697  18.1700  18.1704  18.1707  18.2450  18.2452  18.2455  18.2457
    18.4524  18.4525  18.4526  18.4527  18.4529  18.4531  18.4532  18.4533
    18.7672  18.7673  18.7676  18.7677  18.7902  18.7903  18.7903  18.7905
    18.7908  18.7910  18.7910  18.7911  18.9045  18.9046  18.9049  18.9050
    18.9429  18.9431  18.9431  18.9432  18.9472  18.9473  18.9473  18.9473
    18.9474  18.9475  18.9475  18.9475  19.0084  19.0086  19.0088  19.0090
    19.5861  19.5863  19.5865  19.5868  21.8940  21.8942  21.8943  21.8944
    21.8945  21.8946  21.8947  21.8949  23.8310  23.8311  23.8311  23.8313
    23.8313  23.8315  23.8315  23.8316  25.9177  25.9182  25.9184  25.9188
    26.2902  26.2902  26.2903  26.2904  26.2904  26.2905  26.2905  26.2905
    27.1029  27.1031  27.1032  27.1033  29.6545  29.6548  29.6554  29.6557
    30.2456  30.2457  30.2457  30.2458  30.8339  30.8340  30.8340  30.8341
    31.3711  31.3714

          k = 0.1658 0.0556 0.0556 ( 33159 PWs)   bands (ev):

   -64.9835 -64.9617 -64.9554 -64.9553 -64.9500 -64.9499 -64.9457 -64.9434
   -64.9434 -64.9403 -64.9400 -64.9399 -64.9383 -64.9376 -64.9376 -64.9374
   -64.9373 -64.9370 -64.9351 -64.9346 -64.9345 -64.9325 -64.9325 -64.9240
   -64.9228 -64.9227 -64.9226 -64.9225 -64.9218 -64.9217 -64.9216 -64.9214
   -30.8631 -30.8613 -30.8613 -30.8582 -30.8430 -30.8430 -30.8395 -30.7822
   -30.7772 -30.7772 -30.7712 -30.7712 -30.7698 -30.7698 -30.7694 -30.7685
   -30.7685 -30.7572 -30.7572 -30.7544 -30.7543 -30.7501 -30.7500 -30.7461
   -30.7460 -30.7352 -30.7352 -30.7294 -30.7294 -30.7216 -30.7182 -30.7182
   -30.6982 -30.6982 -30.6845 -30.6845 -30.6695 -30.6694 -30.6686 -30.6686
   -30.6569 -30.6445 -30.6445 -30.6430 -30.6430 -30.6400 -30.6400 -30.6368
   -30.6368 -30.6353 -30.6353 -30.6341 -30.6336 -30.6335 -30.6335 -30.6333
   -30.6330 -30.6321 -30.6292 -30.6254 -30.6254 -30.5848 -30.5844 -30.5785
   -30.5785 -30.5704 -30.5704 -30.5666 -30.5665 -30.5660 -30.5660 -30.5632
   -30.5631 -30.5614 -30.5588 -30.5587 -30.5579 -30.5578 -30.5567 -30.5550
   -30.5527 -30.5522 -30.5521 -30.5519 -30.5519 -30.5512 -30.5511 -30.5495
   -30.5492 -30.5489 -30.5453 -30.5425 -30.5424 -30.5076 -30.5011 -30.5004
    12.2748  13.9163  13.9955  14.0076  14.0077  14.0551  14.0823  14.0823
    14.0955  14.2622  14.2772  14.2772  14.2817  14.2818  14.4778  14.4779
    14.4819  14.8731  14.8731  14.9347  15.0080  15.0080  15.0151  15.0152
    15.0353  15.1154  15.1154  15.1524  15.1525  15.1542  15.1612  15.1612
    15.3074  15.3075  15.3346  15.3347  15.3411  15.3412  15.3786  15.3786
    15.4230  15.4231  15.4779  15.6725  15.6725  15.7011  15.7011  15.7469
    15.7470  15.7561  15.7562  15.8127  15.8128  15.9004  15.9005  15.9018
    15.9458  15.9458  15.9911  16.0071  16.0071  16.0087  16.0088  16.0575
    16.0576  16.0959  16.0959  16.1287  16.1287  16.2656  16.2925  16.2925
    16.3093  16.3094  16.3137  16.3265  16.3297  16.3297  16.3752  16.3844
    16.3907  16.4048  16.4049  16.4216  16.4338  16.4338  16.4346  16.4408
    17.0072  17.0073  17.1032  17.1169  17.1417  17.1418  17.1950  17.1951
    17.2118  17.2614  17.2649  17.2650  17.3857  17.3962  17.3962  17.4088
    17.4089  17.4460  17.4460  17.4480  17.4481  17.6649  17.6650  17.6746
    17.6880  17.6881  17.7624  17.7625  17.8435  17.8436  17.8473  17.8473
    17.8481  17.8519  17.8520  17.9365  17.9385  17.9386  17.9511  17.9784
    18.0590  18.0590  18.0724  18.0724  18.0993  18.0994  18.1627  18.1708
    18.1708  18.2013  18.3304  18.4525  18.4525  18.5812  18.5813  18.5913
    18.6247  18.6369  18.6369  18.8532  18.9531  18.9531  18.9679  18.9952
    19.0265  19.0328  19.0328  19.0545  19.0545  19.2197  19.2657  19.2657
    19.2677  19.2677  19.2858  19.3593  19.3593  19.3618  19.3618  20.0181
    20.3688  20.3689  20.4999  20.5000  20.7290  20.8278  20.8497  20.8497
    21.3457  21.3457  21.8799  21.8969  21.8970  22.0449  22.4359  22.4360
    22.7825  22.7825  26.1829  26.3418  26.3419  26.5937  26.5938  26.6338
    26.6338  26.6365  27.1866  27.1866  27.5186  27.5186  28.2032  28.2034
    28.6717  28.6717  29.5173  29.5173  29.5584  29.6235  29.6235  29.7685
    29.7686  29.8320  29.8320  29.9576  30.0613  30.0613  30.1027  30.1027
    30.6104  30.6107

          k = 0.1658 0.0556 0.1667 ( 33156 PWs)   bands (ev):

   -64.9826 -64.9611 -64.9606 -64.9548 -64.9495 -64.9468 -64.9453 -64.9446
   -64.9433 -64.9431 -64.9399 -64.9398 -64.9393 -64.9378 -64.9368 -64.9367
   -64.9364 -64.9362 -64.9347 -64.9346 -64.9328 -64.9326 -64.9305 -64.9240
   -64.9232 -64.9231 -64.9229 -64.9226 -64.9225 -64.9222 -64.9220 -64.9214
   -30.8603 -30.8603 -30.8558 -30.8510 -30.8399 -30.8383 -30.8366 -30.7846
   -30.7823 -30.7822 -30.7794 -30.7728 -30.7702 -30.7699 -30.7690 -30.7687
   -30.7672 -30.7668 -30.7660 -30.7652 -30.7592 -30.7583 -30.7580 -30.7561
   -30.7327 -30.7269 -30.7265 -30.7261 -30.7247 -30.7229 -30.7199 -30.7153
   -30.7120 -30.7035 -30.6999 -30.6761 -30.6711 -30.6705 -30.6573 -30.6568
   -30.6544 -30.6529 -30.6488 -30.6422 -30.6409 -30.6401 -30.6374 -30.6341
   -30.6335 -30.6333 -30.6331 -30.6323 -30.6317 -30.6310 -30.6306 -30.6293
   -30.6289 -30.6284 -30.6166 -30.6156 -30.6111 -30.5909 -30.5875 -30.5826
   -30.5823 -30.5753 -30.5726 -30.5719 -30.5662 -30.5662 -30.5655 -30.5639
   -30.5629 -30.5622 -30.5619 -30.5618 -30.5609 -30.5601 -30.5570 -30.5556
   -30.5550 -30.5548 -30.5536 -30.5527 -30.5517 -30.5513 -30.5497 -30.5496
   -30.5457 -30.5455 -30.5428 -30.5411 -30.5361 -30.5155 -30.5031 -30.5003
    12.3472  13.9692  13.9837  14.0421  14.0422  14.0493  14.0678  14.1089
    14.1485  14.1486  14.3039  14.3045  14.3218  14.3222  14.5161  14.5345
    14.5480  14.8967  14.9090  14.9157  14.9305  14.9493  14.9497  14.9650
    14.9781  14.9910  15.0486  15.0488  15.0617  15.0631  15.1864  15.1893
    15.1907  15.1952  15.1991  15.2512  15.3656  15.3892  15.3905  15.3928
    15.3949  15.4223  15.4246  15.4961  15.5194  15.6488  15.6589  15.7395
    15.7413  15.7518  15.8362  15.8450  15.8509  15.8578  15.9142  15.9210
    15.9273  15.9774  15.9870  15.9977  16.0046  16.0442  16.0565  16.1524
    16.1963  16.2008  16.2256  16.2378  16.2503  16.2515  16.3034  16.3097
    16.3552  16.3556  16.3572  16.3603  16.3611  16.3675  16.3785  16.3949
    16.4183  16.4282  16.4288  16.4341  16.4342  16.4537  16.4663  16.4689
    16.9034  16.9466  16.9658  17.0123  17.1028  17.1219  17.2131  17.2244
    17.2321  17.2484  17.2514  17.2921  17.3045  17.3151  17.3282  17.3675
    17.3688  17.3895  17.4595  17.5279  17.5410  17.5436  17.5584  17.5615
    17.5785  17.8388  17.8395  17.8444  17.8517  17.8611  17.9265  17.9310
    17.9338  17.9396  17.9471  17.9527  17.9550  17.9554  18.0337  18.0403
    18.0602  18.0615  18.2381  18.2457  18.2782  18.2901  18.2978  18.2990
    18.3368  18.3392  18.3444  18.3565  18.3983  18.4031  18.4301  18.4677
    18.5908  18.6990  18.7509  18.7561  18.8813  18.8873  18.8907  18.9041
    19.0054  19.0279  19.0293  19.0411  19.0475  19.0643  19.2090  19.2101
    19.2640  19.2698  19.2844  19.2886  19.2913  19.2985  19.3093  19.7346
    19.9409  20.3378  20.3593  20.3966  20.8265  20.8530  21.0201  21.0216
    21.3900  21.3957  21.8849  21.9249  22.3364  22.4175  22.4247  22.4676
    23.0188  23.0438  25.9698  26.0156  26.1812  26.1834  26.6431  26.6842
    26.7614  26.7704  26.8067  27.0437  27.3159  27.3939  27.7522  27.7923
    28.7991  28.8433  29.0390  29.1066  29.4984  29.5782  29.6041  29.6458
    29.7358  29.7406  29.9227  29.9495  29.9628  30.0827  30.3899  30.4244
    30.6753  30.7526

          k = 0.1658 0.0556 0.2778 ( 33158 PWs)   bands (ev):

   -64.9807 -64.9657 -64.9599 -64.9539 -64.9501 -64.9487 -64.9458 -64.9446
   -64.9429 -64.9420 -64.9402 -64.9398 -64.9395 -64.9387 -64.9382 -64.9361
   -64.9356 -64.9347 -64.9331 -64.9329 -64.9320 -64.9305 -64.9285 -64.9246
   -64.9241 -64.9239 -64.9238 -64.9234 -64.9230 -64.9227 -64.9223 -64.9215
   -30.8549 -30.8535 -30.8464 -30.8401 -30.8337 -30.8309 -30.8289 -30.7994
   -30.7957 -30.7855 -30.7845 -30.7843 -30.7837 -30.7830 -30.7749 -30.7723
   -30.7722 -30.7673 -30.7661 -30.7642 -30.7640 -30.7603 -30.7600 -30.7526
   -30.7465 -30.7304 -30.7302 -30.7220 -30.7176 -30.7166 -30.7145 -30.7128
   -30.7098 -30.7044 -30.6949 -30.6876 -30.6835 -30.6702 -30.6682 -30.6560
   -30.6525 -30.6515 -30.6439 -30.6400 -30.6379 -30.6378 -30.6336 -30.6331
   -30.6328 -30.6317 -30.6289 -30.6240 -30.6215 -30.6205 -30.6193 -30.6163
   -30.6158 -30.6134 -30.6028 -30.6028 -30.6027 -30.5973 -30.5944 -30.5930
   -30.5796 -30.5783 -30.5777 -30.5767 -30.5746 -30.5740 -30.5730 -30.5719
   -30.5692 -30.5654 -30.5650 -30.5627 -30.5625 -30.5614 -30.5585 -30.5573
   -30.5568 -30.5559 -30.5554 -30.5549 -30.5517 -30.5499 -30.5495 -30.5435
   -30.5419 -30.5404 -30.5396 -30.5341 -30.5321 -30.5278 -30.5074 -30.5025
    12.4904  13.6370  14.0719  14.1088  14.1207  14.1308  14.1329  14.1752
    14.2401  14.2526  14.3587  14.3870  14.3986  14.4103  14.5157  14.5875
    14.6368  14.7205  14.7496  14.7814  14.8001  14.8159  14.8200  14.8517
    14.9388  14.9553  14.9783  14.9877  14.9993  15.0254  15.1107  15.1175
    15.1279  15.1365  15.1725  15.2173  15.2643  15.2782  15.3101  15.4134
    15.4277  15.4324  15.4760  15.5309  15.5820  15.6013  15.6014  15.6985
    15.7010  15.7100  15.7276  15.7409  15.7945  15.8473  15.8650  15.9054
    15.9059  15.9148  16.0015  16.0598  16.0969  16.1133  16.1527  16.1654
    16.1711  16.1819  16.2067  16.2283  16.2596  16.2796  16.2901  16.3084
    16.3345  16.3740  16.4155  16.4225  16.4632  16.4713  16.4745  16.4832
    16.5269  16.5368  16.5420  16.5472  16.5696  16.6689  16.7473  16.7660
    16.7917  16.8100  16.8411  16.9306  16.9308  17.0209  17.0388  17.0541
    17.1277  17.1456  17.1721  17.2384  17.2453  17.3190  17.3228  17.4320
    17.4433  17.4588  17.4746  17.5155  17.5636  17.6472  17.7010  17.7030
    17.7205  17.7959  17.8080  17.8240  17.8578  17.8989  17.9426  17.9432
    17.9679  18.0149  18.0219  18.0576  18.0684  18.0756  18.0799  18.0892
    18.0936  18.1258  18.1956  18.2310  18.2602  18.2908  18.3199  18.3875
    18.3966  18.4212  18.4247  18.4332  18.4450  18.4590  18.4594  18.5421
    18.5671  18.5735  18.6717  18.7454  18.7820  18.8035  18.8796  18.9042
    18.9693  19.0059  19.0068  19.0137  19.0978  19.1035  19.1038  19.1107
    19.1543  19.1583  19.1893  19.2628  19.2719  19.2802  19.2814  19.5548
    19.7603  19.9290  20.2752  20.3913  20.4198  20.7796  20.9050  21.3033
    21.5032  21.8094  21.8555  22.0164  22.3915  22.5749  22.8150  23.1188
    23.4956  23.6569  25.1824  25.3244  25.8607  26.0929  26.1866  26.3600
    26.3609  26.8404  27.0015  27.0580  27.0730  27.5240  27.5506  28.2162
    28.2832  28.5439  28.7477  28.9310  29.0326  29.0812  29.3880  29.5577
    29.7371  29.8396  29.8427  29.9329  30.0550  30.3300  30.4128  30.4531
    30.6597  30.6728

          k = 0.1658 0.0556 0.3889 ( 33169 PWs)   bands (ev):

   -64.9780 -64.9704 -64.9581 -64.9531 -64.9524 -64.9483 -64.9475 -64.9441
   -64.9435 -64.9425 -64.9409 -64.9405 -64.9396 -64.9386 -64.9358 -64.9349
   -64.9349 -64.9348 -64.9334 -64.9301 -64.9295 -64.9285 -64.9272 -64.9267
   -64.9254 -64.9252 -64.9251 -64.9239 -64.9237 -64.9231 -64.9223 -64.9215
   -30.8457 -30.8430 -30.8337 -30.8260 -30.8247 -30.8227 -30.8170 -30.8155
   -30.8130 -30.8008 -30.7996 -30.7993 -30.7907 -30.7839 -30.7817 -30.7768
   -30.7767 -30.7759 -30.7749 -30.7708 -30.7618 -30.7590 -30.7533 -30.7492
   -30.7378 -30.7365 -30.7323 -30.7273 -30.7244 -30.7151 -30.7062 -30.7020
   -30.7019 -30.7012 -30.6955 -30.6897 -30.6830 -30.6809 -30.6791 -30.6677
   -30.6653 -30.6532 -30.6333 -30.6327 -30.6324 -30.6319 -30.6315 -30.6303
   -30.6240 -30.6227 -30.6211 -30.6137 -30.6131 -30.6103 -30.6094 -30.6080
   -30.6052 -30.6042 -30.6012 -30.5998 -30.5920 -30.5909 -30.5886 -30.5879
   -30.5876 -30.5873 -30.5870 -30.5846 -30.5846 -30.5840 -30.5838 -30.5736
   -30.5718 -30.5713 -30.5652 -30.5642 -30.5640 -30.5628 -30.5628 -30.5617
   -30.5607 -30.5592 -30.5542 -30.5524 -30.5523 -30.5495 -30.5478 -30.5446
   -30.5441 -30.5407 -30.5354 -30.5311 -30.5308 -30.5236 -30.5136 -30.5074
    12.7003  13.2887  14.2019  14.2138  14.2182  14.2487  14.2628  14.2808
    14.3690  14.3919  14.4250  14.4388  14.5023  14.5111  14.5162  14.5407
    14.5698  14.5974  14.6029  14.6053  14.6698  14.6828  14.7303  14.7408
    14.7619  14.7819  14.8780  14.8946  14.9095  14.9911  15.1059  15.1163
    15.1205  15.1423  15.1857  15.2422  15.2426  15.3647  15.3791  15.3968
    15.4248  15.4459  15.4989  15.5212  15.5335  15.5466  15.5484  15.5563
    15.5784  15.6341  15.6854  15.7187  15.7217  15.7848  15.8731  15.8880
    15.9222  15.9654  16.0724  16.0827  16.1051  16.1321  16.1517  16.1538
    16.1608  16.1665  16.1984  16.2509  16.2558  16.2577  16.2837  16.3006
    16.3587  16.3713  16.3925  16.4995  16.5178  16.5602  16.5624  16.5914
    16.5976  16.6121  16.6479  16.6505  16.6650  16.7274  16.7299  16.7400
    16.8335  16.8444  16.8535  16.9366  16.9601  16.9801  17.0162  17.0359
    17.1941  17.2205  17.2425  17.2550  17.2712  17.2867  17.3864  17.4742
    17.4793  17.4946  17.5602  17.6086  17.6559  17.6704  17.6781  17.6787
    17.7002  17.7014  17.7534  17.7856  17.8236  17.8471  17.8507  17.8559
[...]
    23.4103  23.4103  24.1512  24.1514  24.2970  24.2972  24.9257  24.9259
    26.4743  26.4745  26.6110  26.6111  26.8054  26.8055  27.3335  27.3336
    27.6538  27.6540  28.1156  28.1157  28.4111  28.4112  29.0605  29.0607
    29.2365  29.2366  29.8487  29.8488  30.1342  30.1342  30.3775  30.3778
    31.2670  31.2672

          k =-0.4975 0.2778-0.5000 ( 33176 PWs)   bands (ev):

   -64.9662 -64.9660 -64.9654 -64.9652 -64.9553 -64.9551 -64.9546 -64.9544
   -64.9364 -64.9362 -64.9357 -64.9355 -64.9308 -64.9306 -64.9304 -64.9303
   -64.9302 -64.9301 -64.9300 -64.9299 -64.9298 -64.9297 -64.9297 -64.9295
   -64.9294 -64.9292 -64.9291 -64.9289 -64.9256 -64.9254 -64.9248 -64.9246
   -30.8136 -30.8136 -30.8135 -30.8135 -30.8124 -30.8124 -30.8120 -30.8120
   -30.7996 -30.7995 -30.7994 -30.7992 -30.7992 -30.7990 -30.7987 -30.7986
   -30.7972 -30.7970 -30.7967 -30.7965 -30.7952 -30.7951 -30.7946 -30.7945
   -30.7274 -30.7273 -30.7271 -30.7270 -30.6880 -30.6880 -30.6879 -30.6878
   -30.6488 -30.6487 -30.6485 -30.6485 -30.6484 -30.6484 -30.6483 -30.6481
   -30.6475 -30.6475 -30.6474 -30.6474 -30.6471 -30.6470 -30.6466 -30.6465
   -30.6437 -30.6437 -30.6436 -30.6435 -30.6058 -30.6057 -30.6055 -30.6054
   -30.6053 -30.6053 -30.6053 -30.6053 -30.6039 -30.6038 -30.6031 -30.6031
   -30.6021 -30.6019 -30.6018 -30.6016 -30.5882 -30.5881 -30.5874 -30.5874
   -30.5859 -30.5858 -30.5857 -30.5855 -30.5814 -30.5814 -30.5814 -30.5814
   -30.5399 -30.5399 -30.5398 -30.5398 -30.5326 -30.5324 -30.5322 -30.5321
   -30.5311 -30.5310 -30.5305 -30.5304 -30.5160 -30.5160 -30.5160 -30.5160
    13.6160  13.6164  13.6169  13.6172  14.1100  14.1102  14.1105  14.1106
    14.6305  14.6306  14.6306  14.6306  14.6467  14.6468  14.6470  14.6471
    14.6496  14.6497  14.6504  14.6504  14.6555  14.6555  14.6556  14.6556
    14.8005  14.8008  14.8008  14.8010  14.8010  14.8010  14.8015  14.8016
    15.1128  15.1128  15.1136  15.1136  15.1157  15.1157  15.1161  15.1161
    15.2159  15.2159  15.2160  15.2160  15.6516  15.6519  15.6523  15.6526
    15.6554  15.6556  15.6560  15.6562  15.7824  15.7826  15.7830  15.7832
    16.0883  16.0885  16.0885  16.0886  16.5002  16.5003  16.5005  16.5007
    16.6347  16.6348  16.6349  16.6349  16.6349  16.6350  16.6350  16.6351
    16.6818  16.6818  16.6823  16.6823  16.6953  16.6954  16.6956  16.6957
    16.6996  16.6997  16.6998  16.6999  16.7074  16.7075  16.7077  16.7078
    16.7328  16.7329  16.7329  16.7331  16.9902  16.9903  16.9903  16.9905
    17.0057  17.0057  17.0062  17.0063  17.0898  17.0899  17.0900  17.0902
    17.2024  17.2025  17.2028  17.2028  17.3512  17.3513  17.3515  17.3516
    17.3596  17.3597  17.3599  17.3600  17.7183  17.7184  17.7189  17.7190
    17.9199  17.9200  17.9205  17.9206  17.9590  17.9591  17.9592  17.9594
    17.9682  17.9683  17.9689  17.9690  18.1799  18.1800  18.1804  18.1805
    18.2316  18.2316  18.2319  18.2320  18.4320  18.4321  18.4325  18.4326
    19.0367  19.0368  19.0368  19.0369  19.0416  19.0417  19.0418  19.0419
    19.0622  19.0623  19.0624  19.0625  19.0801  19.0801  19.0806  19.0806
    19.0883  19.0885  19.0885  19.0887  19.1005  19.1006  19.1009  19.1009
    21.0295  21.0297  21.0301  21.0302  22.1170  22.1172  22.1175  22.1177
    22.1529  22.1531  22.1534  22.1536  23.3506  23.3506  23.3512  23.3513
    23.3895  23.3897  23.3898  23.3899  24.5451  24.5453  24.5458  24.5460
    26.9296  26.9297  26.9302  26.9304  26.9713  26.9714  26.9715  26.9716
    27.4040  27.4042  27.4043  27.4043  29.0965  29.0966  29.0967  29.0967
    29.6533  29.6533  29.6541  29.6541  29.6974  29.6975  29.6976  29.6977
    31.3680  31.3687

          k =-0.4975 0.3889 0.3889 ( 33140 PWs)   bands (ev):

   -64.9666 -64.9664 -64.9606 -64.9606 -64.9604 -64.9604 -64.9556 -64.9554
   -64.9331 -64.9330 -64.9329 -64.9327 -64.9324 -64.9323 -64.9322 -64.9320
   -64.9308 -64.9306 -64.9305 -64.9303 -64.9299 -64.9297 -64.9296 -64.9294
   -64.9276 -64.9275 -64.9274 -64.9273 -64.9269 -64.9268 -64.9266 -64.9265
   -30.8148 -30.8148 -30.8119 -30.8119 -30.8117 -30.8117 -30.8046 -30.8045
   -30.8044 -30.8044 -30.8031 -30.8031 -30.8029 -30.8029 -30.8012 -30.8011
   -30.8011 -30.8011 -30.7969 -30.7968 -30.7963 -30.7963 -30.7962 -30.7961
   -30.7272 -30.7271 -30.6852 -30.6852 -30.6851 -30.6851 -30.6699 -30.6699
   -30.6698 -30.6698 -30.6663 -30.6663 -30.6663 -30.6662 -30.6519 -30.6519
   -30.6518 -30.6518 -30.6448 -30.6448 -30.6435 -30.6433 -30.6420 -30.6419
   -30.6290 -30.6290 -30.6289 -30.6289 -30.6257 -30.6257 -30.6257 -30.6256
   -30.6061 -30.6060 -30.6059 -30.6059 -30.6011 -30.6009 -30.5967 -30.5967
   -30.5967 -30.5967 -30.5943 -30.5943 -30.5941 -30.5941 -30.5922 -30.5921
   -30.5921 -30.5921 -30.5849 -30.5849 -30.5848 -30.5848 -30.5838 -30.5836
   -30.5369 -30.5368 -30.5340 -30.5340 -30.5339 -30.5339 -30.5285 -30.5284
   -30.5236 -30.5235 -30.5235 -30.5235 -30.5221 -30.5220 -30.5186 -30.5186
    13.5487  13.5491  13.8992  13.8993  13.8995  13.8995  14.0487  14.0489
    14.5801  14.5804  14.6055  14.6055  14.6055  14.6056  14.6874  14.6874
    14.6875  14.6875  14.6978  14.6978  14.6980  14.6980  14.7344  14.7347
    14.7456  14.7456  14.7457  14.7457  14.7479  14.7480  14.7482  14.7482
    15.0989  15.0992  15.1432  15.1432  15.1432  15.1433  15.4318  15.4318
    15.4319  15.4319  15.4411  15.4412  15.4415  15.4415  15.4581  15.4581
    15.4582  15.4583  15.6777  15.6780  15.7211  15.7212  15.7214  15.7214
    16.1516  16.1517  16.2505  16.2506  16.2506  16.2507  16.5713  16.5714
    16.6483  16.6484  16.6715  16.6717  16.6887  16.6887  16.6888  16.6888
    16.7001  16.7001  16.7002  16.7002  16.7086  16.7086  16.7087  16.7087
    16.7113  16.7114  16.7115  16.7115  16.7116  16.7116  16.7121  16.7122
    16.7736  16.7737  16.7737  16.7738  16.7844  16.7845  16.8142  16.8143
    16.8143  16.8144  17.1184  17.1184  17.1185  17.1185  17.1472  17.1473
    17.2641  17.2641  17.2643  17.2643  17.2995  17.2996  17.5427  17.5428
    17.5428  17.5429  17.6149  17.6150  17.6150  17.6151  17.6488  17.6489
    17.6489  17.6489  17.8352  17.8354  17.8717  17.8718  17.9133  17.9134
    17.9134  17.9135  17.9136  17.9137  17.9137  17.9138  18.0422  18.0424
    18.1406  18.1406  18.2793  18.2793  18.2793  18.2794  18.3832  18.3833
    19.0636  19.0636  19.0637  19.0637  19.0756  19.0757  19.0807  19.0807
    19.0808  19.0808  19.1140  19.1141  19.1141  19.1142  19.1144  19.1144
    19.1145  19.1145  19.1477  19.1478  19.1479  19.1479  19.1646  19.1646
    21.5771  21.5772  21.5773  21.5774  21.9891  21.9892  22.1671  22.1672
    22.1673  22.1673  22.7932  22.7933  22.7933  22.7934  23.2411  23.2411
    23.2840  23.2841  23.2842  23.2843  23.9901  23.9902  23.9903  23.9904
    26.9185  26.9186  27.1001  27.1001  27.1002  27.1003  27.9177  27.9178
    27.9180  27.9181  28.2442  28.2444  28.2444  28.2446  28.4431  28.4432
    28.4433  28.4434  29.3267  29.3267  29.3267  29.3267  29.6110  29.6113
    32.0037  32.0038

          k =-0.4975 0.3889-0.5000 ( 33184 PWs)   bands (ev):

   -64.9642 -64.9640 -64.9634 -64.9633 -64.9587 -64.9585 -64.9579 -64.9577
   -64.9331 -64.9329 -64.9323 -64.9321 -64.9308 -64.9306 -64.9305 -64.9303
   -64.9301 -64.9300 -64.9300 -64.9299 -64.9298 -64.9297 -64.9297 -64.9295
   -64.9294 -64.9292 -64.9291 -64.9289 -64.9275 -64.9273 -64.9267 -64.9265
   -30.8101 -30.8100 -30.8100 -30.8098 -30.8085 -30.8084 -30.8080 -30.8080
   -30.8046 -30.8044 -30.8041 -30.8041 -30.8040 -30.8040 -30.8035 -30.8034
   -30.8013 -30.8011 -30.8009 -30.8008 -30.7993 -30.7992 -30.7988 -30.7987
   -30.7063 -30.7062 -30.7060 -30.7060 -30.6688 -30.6688 -30.6686 -30.6686
   -30.6633 -30.6633 -30.6631 -30.6631 -30.6486 -30.6486 -30.6485 -30.6484
   -30.6483 -30.6482 -30.6479 -30.6479 -30.6478 -30.6478 -30.6476 -30.6476
   -30.6475 -30.6475 -30.6474 -30.6474 -30.6267 -30.6266 -30.6264 -30.6263
   -30.6010 -30.6010 -30.6010 -30.6010 -30.6001 -30.6001 -30.5994 -30.5993
   -30.5976 -30.5975 -30.5974 -30.5973 -30.5917 -30.5917 -30.5910 -30.5909
   -30.5891 -30.5890 -30.5890 -30.5889 -30.5888 -30.5887 -30.5887 -30.5886
   -30.5325 -30.5324 -30.5323 -30.5323 -30.5271 -30.5270 -30.5270 -30.5269
   -30.5267 -30.5266 -30.5264 -30.5263 -30.5202 -30.5202 -30.5202 -30.5202
    13.7128  13.7131  13.7136  13.7139  13.9670  13.9672  13.9676  13.9678
    14.6503  14.6503  14.6506  14.6506  14.6536  14.6536  14.6543  14.6543
    14.6621  14.6621  14.6621  14.6621  14.6835  14.6836  14.6837  14.6837
    14.7327  14.7329  14.7329  14.7331  14.7344  14.7345  14.7351  14.7351
    15.2705  15.2706  15.2713  15.2714  15.2747  15.2749  15.2751  15.2753
    15.3062  15.3063  15.3064  15.3065  15.5726  15.5729  15.5734  15.5736
    15.5737  15.5740  15.5742  15.5745  15.5937  15.5939  15.5942  15.5943
    16.2166  16.2168  16.2168  16.2168  16.4652  16.4653  16.4655  16.4655
    16.6394  16.6395  16.6396  16.6397  16.6704  16.6705  16.6706  16.6707
    16.6738  16.6739  16.6744  16.6745  16.7052  16.7053  16.7053  16.7055
    16.7366  16.7367  16.7367  16.7367  16.7405  16.7406  16.7407  16.7408
    16.7559  16.7560  16.7563  16.7564  16.9260  16.9261  16.9261  16.9263
    16.9472  16.9472  16.9477  16.9478  16.9790  16.9791  16.9792  16.9794
    17.3730  17.3731  17.3734  17.3735  17.4368  17.4369  17.4371  17.4372
    17.4524  17.4525  17.4527  17.4528  17.7296  17.7298  17.7299  17.7300
    17.7414  17.7415  17.7419  17.7420  17.7461  17.7462  17.7467  17.7468
    17.8804  17.8805  17.8809  17.8811  18.0827  18.0828  18.0831  18.0832
    18.1159  18.1160  18.1163  18.1164  18.2467  18.2468  18.2471  18.2473
    19.1004  19.1005  19.1006  19.1006  19.1067  19.1068  19.1069  19.1070
    19.1195  19.1196  19.1198  19.1199  19.1399  19.1399  19.1403  19.1403
    19.1433  19.1434  19.1436  19.1437  19.1478  19.1479  19.1480  19.1481
    21.8508  21.8510  21.8514  21.8516  22.3743  22.3745  22.3749  22.3750
    22.4133  22.4135  22.4137  22.4139  23.0187  23.0188  23.0193  23.0194
    23.0605  23.0607  23.0608  23.0610  23.6331  23.6333  23.6337  23.6339
    27.4759  27.4760  27.4766  27.4767  27.5215  27.5217  27.5217  27.5218
    27.7241  27.7242  27.7244  27.7244  28.5848  28.5850  28.5851  28.5851
    28.8522  28.8523  28.8530  28.8531  28.8978  28.8979  28.8980  28.8981
    32.4392  32.4395

          k =-0.4975-0.5000-0.5000 ( 33152 PWs)   bands (ev):

   -64.9619 -64.9616 -64.9615 -64.9614 -64.9611 -64.9609 -64.9608 -64.9606
   -64.9310 -64.9308 -64.9307 -64.9305 -64.9303 -64.9302 -64.9301 -64.9300
   -64.9299 -64.9299 -64.9299 -64.9298 -64.9297 -64.9296 -64.9296 -64.9295
   -64.9294 -64.9293 -64.9291 -64.9291 -64.9291 -64.9290 -64.9289 -64.9287
   -30.8060 -30.8059 -30.8059 -30.8059 -30.8058 -30.8057 -30.8057 -30.8056
   -30.8056 -30.8055 -30.8054 -30.8054 -30.8053 -30.8053 -30.8053 -30.8052
   -30.8040 -30.8039 -30.8037 -30.8037 -30.8034 -30.8034 -30.8032 -30.8032
   -30.6847 -30.6847 -30.6846 -30.6846 -30.6845 -30.6844 -30.6844 -30.6843
   -30.6485 -30.6485 -30.6484 -30.6483 -30.6482 -30.6482 -30.6482 -30.6481
   -30.6480 -30.6480 -30.6479 -30.6479 -30.6479 -30.6479 -30.6478 -30.6478
   -30.6478 -30.6478 -30.6477 -30.6477 -30.6476 -30.6476 -30.6476 -30.6475
   -30.5959 -30.5958 -30.5958 -30.5958 -30.5956 -30.5956 -30.5956 -30.5956
   -30.5953 -30.5953 -30.5953 -30.5953 -30.5951 -30.5951 -30.5950 -30.5950
   -30.5930 -30.5930 -30.5930 -30.5929 -30.5928 -30.5928 -30.5928 -30.5927
   -30.5265 -30.5264 -30.5263 -30.5263 -30.5260 -30.5260 -30.5258 -30.5257
   -30.5249 -30.5248 -30.5248 -30.5248 -30.5247 -30.5247 -30.5246 -30.5246
    13.8318  13.8321  13.8324  13.8325  13.8326  13.8328  13.8331  13.8333
    14.6801  14.6802  14.6802  14.6803  14.6804  14.6804  14.6805  14.6806
    14.6829  14.6830  14.6830  14.6830  14.6831  14.6831  14.6832  14.6832
    14.6835  14.6835  14.6836  14.6836  14.6836  14.6837  14.6837  14.6837
    15.4324  15.4324  15.4326  15.4327  15.4327  15.4328  15.4328  15.4330
    15.4331  15.4332  15.4332  15.4334  15.4334  15.4335  15.4335  15.4336
    15.4363  15.4366  15.4367  15.4367  15.4369  15.4369  15.4371  15.4373
    16.3579  16.3581  16.3581  16.3581  16.3581  16.3582  16.3582  16.3582
    16.6444  16.6445  16.6445  16.6446  16.6447  16.6447  16.6447  16.6449
    16.6840  16.6840  16.6841  16.6842  16.6842  16.6843  16.6843  16.6845
    16.8336  16.8337  16.8337  16.8338  16.8339  16.8339  16.8339  16.8341
    16.8558  16.8559  16.8559  16.8560  16.8560  16.8561  16.8561  16.8562
    16.8562  16.8562  16.8563  16.8563  16.8564  16.8564  16.8565  16.8566
    17.5552  17.5553  17.5553  17.5554  17.5554  17.5554  17.5555  17.5556
    17.5556  17.5556  17.5557  17.5557  17.5558  17.5558  17.5558  17.5560
    17.5746  17.5746  17.5747  17.5748  17.5750  17.5751  17.5752  17.5753
    18.0567  18.0568  18.0569  18.0570  18.0571  18.0572  18.0572  18.0574
    18.0698  18.0699  18.0699  18.0700  18.0703  18.0704  18.0705  18.0706
    19.1416  19.1417  19.1418  19.1418  19.1419  19.1420  19.1421  19.1421
    19.1489  19.1489  19.1489  19.1490  19.1490  19.1490  19.1490  19.1491
    19.1491  19.1492  19.1492  19.1492  19.1492  19.1493  19.1493  19.1493
    22.6832  22.6834  22.6836  22.6837  22.6839  22.6840  22.6843  22.6843
    22.7245  22.7246  22.7246  22.7247  22.7248  22.7249  22.7249  22.7249
    22.7251  22.7252  22.7252  22.7253  22.7254  22.7254  22.7255  22.7255
    28.1221  28.1222  28.1223  28.1223  28.1224  28.1225  28.1226  28.1227
    28.1227  28.1228  28.1229  28.1230  28.1231  28.1231  28.1232  28.1232
    28.1685  28.1687  28.1687  28.1688  28.1688  28.1689  28.1690  28.1690
    33.3974  33.3976

     the Fermi energy is    19.1689 ev

!    total energy              =  -16384.95933363 Ry
     Harris-Foulkes estimate   =  -16384.95932268 Ry
     estimated scf accuracy    <       0.00000051 Ry

     total all-electron energy =   -322945.813041 Ry

     The total energy is the sum of the following terms:

     one-electron contribution =   -2501.09770320 Ry
     hartree contribution      =    1665.99015034 Ry
     xc contribution           =    -986.41095777 Ry
     ewald contribution        =   -6396.05433136 Ry
     one-center paw contrib.   =   -8167.42108362 Ry
     smearing contrib. (-TS)   =       0.03459198 Ry

     convergence has been achieved in  11 iterations

     Forces acting on atoms (cartesian axes, Ry/au):

     atom    1 type  1   force =     0.00000000    0.00000000    0.00000000
     atom    2 type  1   force =     0.00000573    0.00007352   -0.00000000
     atom    3 type  1   force =     0.00000573   -0.00000000    0.00007352
     atom    4 type  1   force =     0.00000000    0.00005351    0.00005351
     atom    5 type  1   force =     0.00000000    0.00000000    0.00000000
     atom    6 type  1   force =     0.00006147    0.00010190    0.00000000
     atom    7 type  1   force =     0.00000573    0.00000000   -0.00007352
     atom    8 type  1   force =     0.00000000    0.00005351   -0.00005351
     atom    9 type  1   force =     0.00000000    0.00000000   -0.00000000
     atom   10 type  1   force =     0.00000573   -0.00007352   -0.00000000
     atom   11 type  1   force =     0.00006147    0.00000000    0.00010190
     atom   12 type  1   force =     0.00000000   -0.00005351    0.00005351
     atom   13 type  1   force =     0.00000000    0.00000000    0.00000000
     atom   14 type  1   force =     0.00006147   -0.00010190    0.00000000
     atom   15 type  1   force =     0.00006147    0.00000000   -0.00010190
     atom   16 type  1   force =     0.00000000   -0.00005351   -0.00005351
     atom   17 type  1   force =     0.00000000    0.00000000   -0.00000000
     atom   18 type  1   force =    -0.00000573    0.00007352   -0.00000000
     atom   19 type  1   force =    -0.00000573   -0.00000000    0.00007352
     atom   20 type  1   force =     0.00000000    0.00013725    0.00013725
     atom   21 type  1   force =     0.00000000    0.00000000    0.00000000
     atom   22 type  1   force =    -0.00006147    0.00010190    0.00000000
     atom   23 type  1   force =    -0.00000573    0.00000000   -0.00007352
     atom   24 type  1   force =     0.00000000    0.00013725   -0.00013725
     atom   25 type  1   force =     0.00000000    0.00000000   -0.00000000
     atom   26 type  1   force =    -0.00000573   -0.00007352    0.00000000
     atom   27 type  1   force =    -0.00006147    0.00000000    0.00010190
     atom   28 type  1   force =     0.00000000   -0.00013725    0.00013725
     atom   29 type  1   force =     0.00000000    0.00000000    0.00000000
     atom   30 type  1   force =    -0.00006147   -0.00010190    0.00000000
     atom   31 type  1   force =    -0.00006147    0.00000000   -0.00010190
     atom   32 type  1   force =     0.00000000   -0.00013725   -0.00013725

     Total force =     0.000575     Total SCF correction =     0.004956
     SCF correction compared to forces is large: reduce conv_thr to get better values


     Computing stress (Cartesian axis) and pressure

          total   stress  (Ry/bohr**3)                   (kbar)     P=   -7.59
  -0.00006861   0.00000000   0.00000000        -10.09      0.00      0.00
   0.00000000  -0.00004305   0.00000000          0.00     -6.33      0.00
   0.00000000   0.00000000  -0.00004305          0.00      0.00     -6.33


     Writing output data file ICFbmUwcffOexnex.save/
 
     init_run     :     43.75s CPU     47.13s WALL (       1 calls)
     electrons    :   2025.08s CPU   2126.89s WALL (       1 calls)
     forces       :     18.38s CPU     19.03s WALL (       1 calls)
     stress       :    175.91s CPU    176.64s WALL (       1 calls)

     Called by init_run:
     wfcinit      :     42.90s CPU     46.20s WALL (       1 calls)
     potinit      :      0.35s CPU      0.37s WALL (       1 calls)
     hinit0       :      0.27s CPU      0.29s WALL (       1 calls)

     Called by electrons:
     c_bands      :   1829.16s CPU   1911.97s WALL (      12 calls)
     sum_band     :    191.87s CPU    210.53s WALL (      12 calls)
     v_of_rho     :      0.34s CPU      0.36s WALL (      12 calls)
     newd         :      0.86s CPU      1.08s WALL (      12 calls)
     PAW_pot      :      3.04s CPU      3.08s WALL (      12 calls)
     mix_rho      :      0.08s CPU      0.10s WALL (      12 calls)

     Called by c_bands:
     init_us_2    :     10.32s CPU     10.36s WALL (    2025 calls)
     cegterg      :   1771.16s CPU   1853.63s WALL (     900 calls)

     Called by sum_band:
     sum_band:bec :      1.34s CPU      1.36s WALL (     900 calls)
     addusdens    :      0.84s CPU      1.13s WALL (      12 calls)

     Called by *egterg:
     h_psi        :    781.09s CPU    856.19s WALL (    2591 calls)
     s_psi        :     83.94s CPU     84.19s WALL (    2591 calls)
     g_psi        :      2.23s CPU      2.25s WALL (    1616 calls)
     cdiaghg      :    641.17s CPU    642.96s WALL (    2441 calls)

     Called by h_psi:
     h_psi:pot    :    774.53s CPU    849.39s WALL (    2591 calls)
     h_psi:calbec :     88.34s CPU     92.50s WALL (    2591 calls)
     vloc_psi     :    602.53s CPU    672.76s WALL (    2591 calls)
     add_vuspsi   :     83.64s CPU     84.12s WALL (    2591 calls)

     General routines
     calbec       :    149.20s CPU    155.98s WALL (    3866 calls)
     fft          :      0.32s CPU      0.36s WALL (     181 calls)
     ffts         :      0.03s CPU      0.03s WALL (      24 calls)
     fftw         :    704.60s CPU    786.57s WALL ( 1709400 calls)
     interpolate  :      0.04s CPU      0.04s WALL (      12 calls)
 
     Parallel routines
     fft_scatt_xy :     53.20s CPU     59.25s WALL ( 1709605 calls)
     fft_scatt_yz :    402.53s CPU    450.63s WALL ( 1709605 calls)
 
     PWSCF        : 37m49.75s CPU    41m 8.32s WALL

 
   This run was terminated on:  13:59:10  11Nov2020            

=------------------------------------------------------------------------------=
   JOB DONE.
=------------------------------------------------------------------------------=
