--------------------------------------------------------------------------
WARNING: No preset parameters were found for the device that Open MPI
detected:

  Local host:            bear-pg0206u14b
  Device name:           mlx5_0
  Device vendor ID:      0x02c9
  Device vendor part ID: 4123

Default device parameters will be used, which may result in lower
performance.  You can edit any of the files specified by the
btl_openib_device_param_files MCA parameter to set values for your
device.

NOTE: You can turn off this warning by setting the MCA parameter
      btl_openib_warn_no_device_params_found to 0.
--------------------------------------------------------------------------
--------------------------------------------------------------------------
WARNING: There was an error initializing an OpenFabrics device.

  Local host:   bear-pg0206u14b
  Local device: mlx5_0
--------------------------------------------------------------------------

     Program PWSCF v.6.3 starts on 11Nov2020 at  9:59:15 

     This program is part of the open-source Quantum ESPRESSO suite
     for quantum simulation of materials; please cite
         "P. Giannozzi et al., J. Phys.:Condens. Matter 21 395502 (2009);
         "P. Giannozzi et al., J. Phys.:Condens. Matter 29 465901 (2017);
          URL http://www.quantum-espresso.org", 
     in publications or presentations arising from this work. More details at
     http://www.quantum-espresso.org/quote

     Parallel version (MPI & OpenMP), running on      20 processor cores
     Number of MPI processes:                20
     Threads/MPI process:                     1

     MPI processes distributed on     1 nodes
     R & G space division:  proc/nbgrp/npool/nimage =      20
     Reading input from wd/ec/ec_1_002.in
Warning: card &IONS ignored
Warning: card ION_DYNAMICS = 'BFGS', ignored
Warning: card / ignored
Warning: card &CELL ignored
Warning: card CELL_DYNAMICS = 'BFGS', ignored
Warning: card CELL_FACTOR = 2.0, ignored
Warning: card PRESS = 0.0, ignored
Warning: card / ignored

     Current dimensions of program PWSCF are:
     Max number of different atomic species (ntypx) = 10
     Max number of k-points (npk) =  40000
     Max angular momentum in pseudopotentials (lmaxx) =  3
               file Pd.pbe-spn-kjpaw_psl.1.0.0.UPF: wavefunction(s)  4S 5S 4D renormalized

     Subspace diagonalization in iterative solution of the eigenvalue problem:
     a serial algorithm will be used

 
     Parallelization info
     --------------------
     sticks:   dense  smooth     PW     G-vecs:    dense   smooth      PW
     Min         376     248     67                24608    13202    1873
     Max         377     249     68                24613    13205    1878
     Sum        7527    4969   1353               492195   264059   37529
 


     bravais-lattice index     =            0
     lattice parameter (alat)  =      14.8394  a.u.
     unit-cell volume          =    3270.4877 (a.u.)^3
     number of atoms/cell      =           32
     number of atomic types    =            1
     number of electrons       =       576.00
     number of Kohn-Sham states=          346
     kinetic-energy cutoff     =      71.0000  Ry
     charge density cutoff     =     430.0000  Ry
     convergence threshold     =      1.0E-06
     mixing beta               =       0.1000
     number of iterations used =           10  plain     mixing
     Exchange-correlation      = SLA PW PBX PBC ( 1  4  3  4 0 0)

     celldm(1)=  14.839420  celldm(2)=   0.000000  celldm(3)=   0.000000
     celldm(4)=   0.000000  celldm(5)=   0.000000  celldm(6)=   0.000000

     crystal axes: (cart. coord. in units of alat)
               a(1) = (   1.000833   0.000000   0.000000 )  
               a(2) = (   0.000000   1.000000   0.000000 )  
               a(3) = (   0.000000   0.000000   1.000000 )  

     reciprocal axes: (cart. coord. in units 2 pi/alat)
               b(1) = (  0.999167  0.000000  0.000000 )  
               b(2) = (  0.000000  1.000000  0.000000 )  
               b(3) = (  0.000000  0.000000  1.000000 )  


     PseudoPot. # 1 for Pd read from file:
     /rds/homes/b/bxp912/pp/Pd.pbe-spn-kjpaw_psl.1.0.0.UPF
     MD5 check sum: 790f2ebce206edfd9790dcb9844eca51
     Pseudo is Projector augmented-wave + core cor, Zval = 18.0
     Generated using "atomic" code by A. Dal Corso v.6.3
     Shape of augmentation charge: PSQ
     Using radial grid of 1235 points,  6 beta functions with: 
                l(1) =   0
                l(2) =   0
                l(3) =   1
                l(4) =   1
                l(5) =   2
                l(6) =   2
     Q(r) pseudized with 0 coefficients 


     atomic species   valence    mass     pseudopotential
        Pd            18.00   106.42000     Pd( 1.00)

     16 Sym. Ops., with inversion, found



   Cartesian axes

     site n.     atom                  positions (alat units)
         1           Pd  tau(   1) = (   0.0000000   0.0000000   0.0000000  )
         2           Pd  tau(   2) = (   0.2502128   0.2500045   0.0000000  )
         3           Pd  tau(   3) = (   0.2502128   0.0000000   0.2500040  )
         4           Pd  tau(   4) = (   0.0000000   0.2500045   0.2500040  )
         5           Pd  tau(   5) = (   0.0000000   0.0000000   0.4999990  )
         6           Pd  tau(   6) = (   0.2502199   0.2500116   0.4999990  )
         7           Pd  tau(   7) = (   0.2502128   0.0000000   0.7499950  )
         8           Pd  tau(   8) = (   0.0000000   0.2500045   0.7499950  )
         9           Pd  tau(   9) = (   0.0000000   0.4999998   0.0000000  )
        10           Pd  tau(  10) = (   0.2502128   0.7499952   0.0000000  )
        11           Pd  tau(  11) = (   0.2502199   0.4999998   0.2500109  )
        12           Pd  tau(  12) = (   0.0000000   0.7499952   0.2500040  )
        13           Pd  tau(  13) = (   0.0000000   0.4999998   0.4999990  )
        14           Pd  tau(  14) = (   0.2502199   0.7499881   0.4999990  )
        15           Pd  tau(  15) = (   0.2502199   0.4999998   0.7499881  )
        16           Pd  tau(  16) = (   0.0000000   0.7499952   0.7499950  )
        17           Pd  tau(  17) = (   0.5004165   0.0000000   0.0000000  )
        18           Pd  tau(  18) = (   0.7506202   0.2500045   0.0000000  )
        19           Pd  tau(  19) = (   0.7506202   0.0000000   0.2500040  )
        20           Pd  tau(  20) = (   0.5004165   0.2500116   0.2500109  )
        21           Pd  tau(  21) = (   0.5004165   0.0000000   0.4999990  )
        22           Pd  tau(  22) = (   0.7506131   0.2500116   0.4999990  )
        23           Pd  tau(  23) = (   0.7506202   0.0000000   0.7499950  )
        24           Pd  tau(  24) = (   0.5004165   0.2500116   0.7499881  )
        25           Pd  tau(  25) = (   0.5004165   0.4999998   0.0000000  )
        26           Pd  tau(  26) = (   0.7506202   0.7499952   0.0000000  )
        27           Pd  tau(  27) = (   0.7506131   0.4999998   0.2500109  )
        28           Pd  tau(  28) = (   0.5004165   0.7499881   0.2500109  )
        29           Pd  tau(  29) = (   0.5004165   0.4999998   0.4999990  )
        30           Pd  tau(  30) = (   0.7506131   0.7499881   0.4999990  )
        31           Pd  tau(  31) = (   0.7506131   0.4999998   0.7499881  )
        32           Pd  tau(  32) = (   0.5004165   0.7499881   0.7499881  )

     number of k points=    75  Marzari-Vanderbilt smearing, width (Ry)=  0.0400
                       cart. coord. in units 2pi/alat
        k(    1) = (   0.0555093   0.0555556   0.0555556), wk =   0.0219479
        k(    2) = (   0.0555093   0.0555556   0.1666667), wk =   0.0438957
        k(    3) = (   0.0555093   0.0555556   0.2777778), wk =   0.0438957
        k(    4) = (   0.0555093   0.0555556   0.3888889), wk =   0.0438957
        k(    5) = (   0.0555093   0.0555556  -0.5000000), wk =   0.0219479
        k(    6) = (   0.0555093   0.1666667   0.1666667), wk =   0.0219479
        k(    7) = (   0.0555093   0.1666667   0.2777778), wk =   0.0438957
        k(    8) = (   0.0555093   0.1666667   0.3888889), wk =   0.0438957
        k(    9) = (   0.0555093   0.1666667  -0.5000000), wk =   0.0219479
        k(   10) = (   0.0555093   0.2777778   0.2777778), wk =   0.0219479
        k(   11) = (   0.0555093   0.2777778   0.3888889), wk =   0.0438957
        k(   12) = (   0.0555093   0.2777778  -0.5000000), wk =   0.0219479
        k(   13) = (   0.0555093   0.3888889   0.3888889), wk =   0.0219479
        k(   14) = (   0.0555093   0.3888889  -0.5000000), wk =   0.0219479
        k(   15) = (   0.0555093  -0.5000000  -0.5000000), wk =   0.0054870
        k(   16) = (   0.1665279   0.0555556   0.0555556), wk =   0.0219479
        k(   17) = (   0.1665279   0.0555556   0.1666667), wk =   0.0438957
        k(   18) = (   0.1665279   0.0555556   0.2777778), wk =   0.0438957
        k(   19) = (   0.1665279   0.0555556   0.3888889), wk =   0.0438957
        k(   20) = (   0.1665279   0.0555556  -0.5000000), wk =   0.0219479
        k(   21) = (   0.1665279   0.1666667   0.1666667), wk =   0.0219479
        k(   22) = (   0.1665279   0.1666667   0.2777778), wk =   0.0438957
        k(   23) = (   0.1665279   0.1666667   0.3888889), wk =   0.0438957
        k(   24) = (   0.1665279   0.1666667  -0.5000000), wk =   0.0219479
        k(   25) = (   0.1665279   0.2777778   0.2777778), wk =   0.0219479
        k(   26) = (   0.1665279   0.2777778   0.3888889), wk =   0.0438957
        k(   27) = (   0.1665279   0.2777778  -0.5000000), wk =   0.0219479
        k(   28) = (   0.1665279   0.3888889   0.3888889), wk =   0.0219479
        k(   29) = (   0.1665279   0.3888889  -0.5000000), wk =   0.0219479
        k(   30) = (   0.1665279  -0.5000000  -0.5000000), wk =   0.0054870
        k(   31) = (   0.2775465   0.0555556   0.0555556), wk =   0.0219479
        k(   32) = (   0.2775465   0.0555556   0.1666667), wk =   0.0438957
        k(   33) = (   0.2775465   0.0555556   0.2777778), wk =   0.0438957
        k(   34) = (   0.2775465   0.0555556   0.3888889), wk =   0.0438957
        k(   35) = (   0.2775465   0.0555556  -0.5000000), wk =   0.0219479
        k(   36) = (   0.2775465   0.1666667   0.1666667), wk =   0.0219479
        k(   37) = (   0.2775465   0.1666667   0.2777778), wk =   0.0438957
        k(   38) = (   0.2775465   0.1666667   0.3888889), wk =   0.0438957
        k(   39) = (   0.2775465   0.1666667  -0.5000000), wk =   0.0219479
        k(   40) = (   0.2775465   0.2777778   0.2777778), wk =   0.0219479
        k(   41) = (   0.2775465   0.2777778   0.3888889), wk =   0.0438957
        k(   42) = (   0.2775465   0.2777778  -0.5000000), wk =   0.0219479
        k(   43) = (   0.2775465   0.3888889   0.3888889), wk =   0.0219479
        k(   44) = (   0.2775465   0.3888889  -0.5000000), wk =   0.0219479
        k(   45) = (   0.2775465  -0.5000000  -0.5000000), wk =   0.0054870
        k(   46) = (   0.3885651   0.0555556   0.0555556), wk =   0.0219479
        k(   47) = (   0.3885651   0.0555556   0.1666667), wk =   0.0438957
        k(   48) = (   0.3885651   0.0555556   0.2777778), wk =   0.0438957
        k(   49) = (   0.3885651   0.0555556   0.3888889), wk =   0.0438957
        k(   50) = (   0.3885651   0.0555556  -0.5000000), wk =   0.0219479
        k(   51) = (   0.3885651   0.1666667   0.1666667), wk =   0.0219479
        k(   52) = (   0.3885651   0.1666667   0.2777778), wk =   0.0438957
        k(   53) = (   0.3885651   0.1666667   0.3888889), wk =   0.0438957
        k(   54) = (   0.3885651   0.1666667  -0.5000000), wk =   0.0219479
        k(   55) = (   0.3885651   0.2777778   0.2777778), wk =   0.0219479
        k(   56) = (   0.3885651   0.2777778   0.3888889), wk =   0.0438957
        k(   57) = (   0.3885651   0.2777778  -0.5000000), wk =   0.0219479
        k(   58) = (   0.3885651   0.3888889   0.3888889), wk =   0.0219479
        k(   59) = (   0.3885651   0.3888889  -0.5000000), wk =   0.0219479
        k(   60) = (   0.3885651  -0.5000000  -0.5000000), wk =   0.0054870
        k(   61) = (  -0.4995837   0.0555556   0.0555556), wk =   0.0109739
        k(   62) = (  -0.4995837   0.0555556   0.1666667), wk =   0.0219479
        k(   63) = (  -0.4995837   0.0555556   0.2777778), wk =   0.0219479
        k(   64) = (  -0.4995837   0.0555556   0.3888889), wk =   0.0219479
        k(   65) = (  -0.4995837   0.0555556  -0.5000000), wk =   0.0109739
        k(   66) = (  -0.4995837   0.1666667   0.1666667), wk =   0.0109739
        k(   67) = (  -0.4995837   0.1666667   0.2777778), wk =   0.0219479
        k(   68) = (  -0.4995837   0.1666667   0.3888889), wk =   0.0219479
        k(   69) = (  -0.4995837   0.1666667  -0.5000000), wk =   0.0109739
        k(   70) = (  -0.4995837   0.2777778   0.2777778), wk =   0.0109739
        k(   71) = (  -0.4995837   0.2777778   0.3888889), wk =   0.0219479
        k(   72) = (  -0.4995837   0.2777778  -0.5000000), wk =   0.0109739
        k(   73) = (  -0.4995837   0.3888889   0.3888889), wk =   0.0109739
        k(   74) = (  -0.4995837   0.3888889  -0.5000000), wk =   0.0109739
        k(   75) = (  -0.4995837  -0.5000000  -0.5000000), wk =   0.0027435

     Dense  grid:   492195 G-vectors     FFT dimensions: ( 100, 100, 100)

     Smooth grid:   264059 G-vectors     FFT dimensions: (  80,  80,  80)

     Estimated max dynamical RAM per process >     891.77 MB

     Estimated total dynamical RAM >      17.42 GB

     Check: negative/imaginary core charge=   -0.000002    0.000000

     Initial potential from superposition of free atoms

     starting charge  575.98776, renormalised to  576.00000
     Starting wfcs are  320 randomized atomic wfcs +   26 random wfcs
     Checking if some PAW data can be deallocated... 

     total cpu time spent up to now is       44.1 secs

     Self-consistent Calculation

     iteration #  1     ecut=    71.00 Ry     beta= 0.10
     Davidson diagonalization with overlap
     ethr =  1.00E-02,  avg # of iterations =  3.1

     Threshold (ethr) on eigenvalues was too large:
     Diagonalizing with lowered threshold

     Davidson diagonalization with overlap
     ethr =  8.35E-05,  avg # of iterations =  3.1

     total cpu time spent up to now is      484.6 secs

     total energy              =  -16385.02072541 Ry
     Harris-Foulkes estimate   =  -16385.08841122 Ry
     estimated scf accuracy    <       0.47517930 Ry

     iteration #  2     ecut=    71.00 Ry     beta= 0.10
     Davidson diagonalization with overlap
     ethr =  8.25E-05,  avg # of iterations =  1.1

     total cpu time spent up to now is      619.6 secs

     total energy              =  -16384.92816307 Ry
     Harris-Foulkes estimate   =  -16385.02845725 Ry
     estimated scf accuracy    <       0.25849369 Ry

     iteration #  3     ecut=    71.00 Ry     beta= 0.10
     Davidson diagonalization with overlap
     ethr =  4.49E-05,  avg # of iterations =  2.2

     total cpu time spent up to now is      809.2 secs

     total energy              =  -16384.96229031 Ry
     Harris-Foulkes estimate   =  -16384.96665106 Ry
     estimated scf accuracy    <       0.06068445 Ry

     iteration #  4     ecut=    71.00 Ry     beta= 0.10
     Davidson diagonalization with overlap
     ethr =  1.05E-05,  avg # of iterations =  1.4

     total cpu time spent up to now is      952.9 secs

     total energy              =  -16384.96208807 Ry
     Harris-Foulkes estimate   =  -16384.96445251 Ry
     estimated scf accuracy    <       0.02177119 Ry

     iteration #  5     ecut=    71.00 Ry     beta= 0.10
     Davidson diagonalization with overlap
     ethr =  3.78E-06,  avg # of iterations =  1.2

     total cpu time spent up to now is     1090.8 secs

     total energy              =  -16384.95732638 Ry
     Harris-Foulkes estimate   =  -16384.96228636 Ry
     estimated scf accuracy    <       0.01428789 Ry

     iteration #  6     ecut=    71.00 Ry     beta= 0.10
     Davidson diagonalization with overlap
     ethr =  2.48E-06,  avg # of iterations =  1.0

     total cpu time spent up to now is     1224.4 secs

     total energy              =  -16384.95832975 Ry
     Harris-Foulkes estimate   =  -16384.95836312 Ry
     estimated scf accuracy    <       0.00028121 Ry

     iteration #  7     ecut=    71.00 Ry     beta= 0.10
     Davidson diagonalization with overlap
     ethr =  4.88E-08,  avg # of iterations =  3.0

     total cpu time spent up to now is     1461.4 secs

     total energy              =  -16384.95840947 Ry
     Harris-Foulkes estimate   =  -16384.95842944 Ry
     estimated scf accuracy    <       0.00024302 Ry

     iteration #  8     ecut=    71.00 Ry     beta= 0.10
     Davidson diagonalization with overlap
     ethr =  4.22E-08,  avg # of iterations =  1.4

     total cpu time spent up to now is     1603.6 secs

     total energy              =  -16384.95841401 Ry
     Harris-Foulkes estimate   =  -16384.95841703 Ry
     estimated scf accuracy    <       0.00005152 Ry

     iteration #  9     ecut=    71.00 Ry     beta= 0.10
     Davidson diagonalization with overlap
     ethr =  8.94E-09,  avg # of iterations =  1.0

     total cpu time spent up to now is     1735.9 secs

     total energy              =  -16384.95841494 Ry
     Harris-Foulkes estimate   =  -16384.95841527 Ry
     estimated scf accuracy    <       0.00003258 Ry

     iteration # 10     ecut=    71.00 Ry     beta= 0.10
     Davidson diagonalization with overlap
     ethr =  5.66E-09,  avg # of iterations =  2.0

     total cpu time spent up to now is     1922.7 secs

     total energy              =  -16384.95842152 Ry
     Harris-Foulkes estimate   =  -16384.95841873 Ry
     estimated scf accuracy    <       0.00000342 Ry

     iteration # 11     ecut=    71.00 Ry     beta= 0.10
     Davidson diagonalization with overlap
     ethr =  5.93E-10,  avg # of iterations =  1.1

     total cpu time spent up to now is     2059.0 secs

     End of self-consistent calculation

          k = 0.0555 0.0556 0.0556 ( 33024 PWs)   bands (ev):

   -64.8890 -64.8601 -64.8600 -64.8600 -64.8546 -64.8544 -64.8544 -64.8443
   -64.8442 -64.8441 -64.8419 -64.8415 -64.8414 -64.8413 -64.8412 -64.8411
   -64.8411 -64.8409 -64.8408 -64.8403 -64.8386 -64.8385 -64.8385 -64.8262
   -64.8256 -64.8256 -64.8254 -64.8253 -64.8253 -64.8252 -64.8251 -64.8247
   -30.7730 -30.7730 -30.7730 -30.7712 -30.7526 -30.7526 -30.7524 -30.6753
   -30.6748 -30.6747 -30.6710 -30.6710 -30.6704 -30.6704 -30.6704 -30.6703
   -30.6632 -30.6626 -30.6626 -30.6578 -30.6578 -30.6574 -30.6574 -30.6573
   -30.6573 -30.6393 -30.6393 -30.6388 -30.6387 -30.6387 -30.6387 -30.5980
   -30.5980 -30.5978 -30.5736 -30.5736 -30.5734 -30.5676 -30.5676 -30.5674
   -30.5582 -30.5582 -30.5582 -30.5581 -30.5580 -30.5579 -30.5432 -30.5432
   -30.5430 -30.5428 -30.5424 -30.5423 -30.5423 -30.5420 -30.5420 -30.5419
   -30.5418 -30.5412 -30.5402 -30.5402 -30.5397 -30.4771 -30.4771 -30.4767
   -30.4766 -30.4766 -30.4765 -30.4647 -30.4647 -30.4643 -30.4643 -30.4643
   -30.4642 -30.4610 -30.4610 -30.4606 -30.4570 -30.4565 -30.4564 -30.4559
   -30.4559 -30.4558 -30.4557 -30.4556 -30.4555 -30.4554 -30.4553 -30.4550
   -30.4545 -30.4541 -30.4488 -30.4487 -30.4485 -30.4031 -30.4008 -30.4007
    12.2789  14.0361  14.0361  14.0362  14.1043  14.1180  14.1180  14.1180
    14.3055  14.3083  14.3084  14.3110  14.3110  14.3110  14.5007  14.5034
    14.5035  15.0465  15.0465  15.0492  15.0493  15.0493  15.0494  15.2002
    15.2029  15.2030  15.3515  15.3517  15.3517  15.3861  15.3895  15.3896
    15.4339  15.4339  15.4343  15.4344  15.4344  15.4345  15.4357  15.4365
    15.4365  15.7766  15.7766  15.7783  15.7783  15.7789  15.7790  15.8832
    15.8860  15.8861  15.9051  15.9051  15.9079  15.9080  15.9083  15.9083
    15.9618  15.9649  15.9650  16.1318  16.1318  16.1338  16.1338  16.1346
    16.1347  16.2383  16.2384  16.2401  16.2428  16.2429  16.2429  16.2430
    16.2441  16.2441  16.3507  16.3508  16.3511  16.4117  16.4167  16.4167
    16.4326  16.4397  16.4453  16.4453  16.4503  16.4640  16.4824  16.4866
    17.2776  17.2818  17.2819  17.3404  17.3405  17.3423  17.4130  17.4131
    17.4132  17.4133  17.4147  17.4148  17.4192  17.4193  17.4206  17.4648
    17.4694  17.4694  17.5700  17.5700  17.5731  17.6892  17.6893  17.6901
    17.8137  17.8138  17.8166  17.8713  17.8714  17.8738  17.9449  17.9449
    17.9456  17.9457  17.9458  17.9458  17.9643  17.9644  17.9647  18.0084
    18.0163  18.0192  18.0192  18.0193  18.0194  18.0214  18.0215  18.1283
    18.1284  18.1305  18.5149  18.5149  18.5184  18.6167  18.6167  18.6197
    18.9996  18.9996  19.0019  19.1243  19.1243  19.1247  19.1497  19.1529
    19.1698  19.1723  19.1723  19.4009  19.4015  19.4016  19.4541  19.4541
    19.4542  19.4543  19.4584  19.4584  19.4584  19.4589  19.4590  20.1247
    20.4305  20.4306  20.4306  20.9521  20.9522  20.9569  21.4616  21.4617
    21.4619  21.4620  21.4675  21.4675  21.9906  21.9906  21.9971  22.5645
    22.5803  22.5803  26.3255  26.3256  26.3257  26.4824  27.4690  27.4690
    27.4762  27.4762  27.4834  27.4835  28.1612  28.1612  28.1680  28.1680
    28.1757  28.1759  29.5755  29.5755  29.5785  29.5785  29.5854  29.5855
    29.7290  29.7510  29.7510  30.6940  30.7353  30.7354  30.7378  30.7379
    30.7434  30.7435

          k = 0.0555 0.0556 0.1667 ( 33010 PWs)   bands (ev):

   -64.8881 -64.8655 -64.8596 -64.8595 -64.8541 -64.8540 -64.8489 -64.8472
   -64.8471 -64.8442 -64.8437 -64.8436 -64.8420 -64.8419 -64.8412 -64.8410
   -64.8406 -64.8403 -64.8385 -64.8382 -64.8381 -64.8361 -64.8360 -64.8264
   -64.8262 -64.8259 -64.8258 -64.8258 -64.8257 -64.8255 -64.8253 -64.8247
   -30.7703 -30.7686 -30.7685 -30.7654 -30.7494 -30.7491 -30.7474 -30.6863
   -30.6811 -30.6811 -30.6772 -30.6767 -30.6761 -30.6757 -30.6753 -30.6752
   -30.6730 -30.6642 -30.6636 -30.6614 -30.6611 -30.6565 -30.6561 -30.6530
   -30.6524 -30.6420 -30.6416 -30.6358 -30.6353 -30.6278 -30.6207 -30.6207
   -30.6028 -30.6026 -30.5888 -30.5886 -30.5737 -30.5734 -30.5731 -30.5727
   -30.5616 -30.5476 -30.5475 -30.5454 -30.5451 -30.5429 -30.5427 -30.5423
   -30.5420 -30.5399 -30.5398 -30.5392 -30.5380 -30.5373 -30.5370 -30.5367
   -30.5363 -30.5361 -30.5334 -30.5283 -30.5281 -30.4893 -30.4887 -30.4794
   -30.4794 -30.4741 -30.4737 -30.4685 -30.4682 -30.4670 -30.4669 -30.4653
   -30.4649 -30.4626 -30.4612 -30.4609 -30.4609 -30.4603 -30.4601 -30.4566
   -30.4565 -30.4562 -30.4560 -30.4557 -30.4551 -30.4534 -30.4531 -30.4529
   -30.4525 -30.4521 -30.4489 -30.4442 -30.4439 -30.4096 -30.4029 -30.4021
    12.3524  14.0094  14.0706  14.0825  14.0825  14.1322  14.1596  14.1596
    14.1730  14.3388  14.3531  14.3532  14.3569  14.3597  14.5527  14.5554
    14.5726  14.9633  14.9635  15.0246  15.0814  15.0841  15.0881  15.0909
    15.1199  15.2009  15.2010  15.2264  15.2290  15.2404  15.2467  15.2469
    15.3933  15.3934  15.4081  15.4113  15.4229  15.4240  15.4589  15.4608
    15.5060  15.5067  15.5790  15.7646  15.7654  15.7795  15.7813  15.8251
    15.8270  15.8346  15.8366  15.8935  15.8965  15.9818  15.9838  15.9992
    16.0449  16.0457  16.0928  16.0954  16.0972  16.1027  16.1035  16.1365
    16.1386  16.1826  16.1837  16.2116  16.2124  16.3762  16.3909  16.3932
    16.3933  16.3963  16.4132  16.4137  16.4302  16.4378  16.4579  16.4595
    16.4693  16.4793  16.4849  16.4890  16.5106  16.5176  16.5197  16.5230
    17.0876  17.0899  17.1998  17.2076  17.2235  17.2262  17.2797  17.2797
    17.2975  17.3428  17.3653  17.3670  17.4842  17.4954  17.4970  17.5090
    17.5099  17.5475  17.5485  17.5569  17.5588  17.7687  17.7709  17.7894
    17.7954  17.7976  17.8619  17.8620  17.9413  17.9420  17.9505  17.9513
    17.9516  17.9534  17.9735  18.0268  18.0298  18.0419  18.0422  18.0680
    18.1595  18.1600  18.1674  18.1676  18.2034  18.2052  18.2585  18.2761
    18.2779  18.3092  18.4165  18.5605  18.5635  18.6861  18.6896  18.6917
    18.7193  18.7368  18.7390  18.9514  19.0629  19.0630  19.0851  19.1009
    19.1434  19.1448  19.1460  19.1690  19.1724  19.3318  19.3829  19.3836
    19.3866  19.3875  19.3973  19.4528  19.4538  19.4543  19.4551  20.1157
    20.4886  20.4924  20.6007  20.6007  20.8313  20.9234  20.9719  20.9769
    21.4390  21.4393  21.9717  22.0297  22.0358  22.2180  22.5703  22.5773
    22.8563  22.8716  26.3243  26.4842  26.4845  26.7523  26.7664  26.7666
    26.7731  26.7791  27.3591  27.3661  27.6017  27.6090  28.2856  28.2927
    28.8004  28.8143  29.6213  29.6293  29.7152  29.7369  29.7455  29.8776
    29.8931  29.9573  29.9697  30.1675  30.1795  30.2052  30.2883  30.2890
    30.7161  30.8212

          k = 0.0555 0.0556 0.2778 ( 33006 PWs)   bands (ev):

   -64.8862 -64.8707 -64.8585 -64.8584 -64.8532 -64.8531 -64.8500 -64.8500
   -64.8461 -64.8460 -64.8440 -64.8437 -64.8424 -64.8419 -64.8412 -64.8410
   -64.8403 -64.8402 -64.8387 -64.8353 -64.8353 -64.8337 -64.8337 -64.8283
   -64.8269 -64.8268 -64.8267 -64.8266 -64.8262 -64.8255 -64.8253 -64.8247
   -30.7633 -30.7602 -30.7602 -30.7556 -30.7431 -30.7429 -30.7376 -30.7034
   -30.6977 -30.6976 -30.6926 -30.6924 -30.6895 -30.6786 -30.6783 -30.6765
   -30.6761 -30.6666 -30.6664 -30.6573 -30.6570 -30.6560 -30.6554 -30.6548
   -30.6428 -30.6424 -30.6409 -30.6402 -30.6299 -30.6294 -30.6113 -30.6109
   -30.6034 -30.6033 -30.6033 -30.6030 -30.5872 -30.5868 -30.5845 -30.5842
   -30.5519 -30.5518 -30.5433 -30.5420 -30.5416 -30.5401 -30.5394 -30.5356
   -30.5339 -30.5309 -30.5309 -30.5282 -30.5282 -30.5275 -30.5274 -30.5262
   -30.5262 -30.5181 -30.5142 -30.5141 -30.5083 -30.5011 -30.5002 -30.4848
   -30.4848 -30.4780 -30.4776 -30.4763 -30.4760 -30.4730 -30.4722 -30.4721
   -30.4691 -30.4688 -30.4684 -30.4683 -30.4624 -30.4605 -30.4576 -30.4566
   -30.4559 -30.4558 -30.4557 -30.4556 -30.4551 -30.4527 -30.4525 -30.4524
   -30.4493 -30.4422 -30.4420 -30.4410 -30.4404 -30.4209 -30.4071 -30.4061
    12.4975  13.6594  14.1368  14.1728  14.1728  14.2017  14.2421  14.2421
    14.2682  14.3939  14.4372  14.4374  14.4563  14.4588  14.5406  14.6535
    14.6560  14.8158  14.8160  14.8590  14.8728  14.9504  14.9504  15.0020
    15.1093  15.1100  15.1470  15.1492  15.1697  15.1721  15.1780  15.1795
    15.2784  15.2805  15.2934  15.2940  15.4051  15.4062  15.4512  15.4539
    15.5699  15.5710  15.7104  15.7112  15.7448  15.7460  15.7623  15.7633
    15.7656  15.7819  15.7837  15.8104  15.8108  15.9220  15.9234  15.9940
    15.9943  16.0465  16.0503  16.0511  16.1214  16.1226  16.1435  16.1458
    16.1500  16.1516  16.2184  16.2314  16.2319  16.3191  16.3536  16.3539
    16.3575  16.4131  16.4132  16.4195  16.5138  16.5471  16.5511  16.5652
    16.5747  16.5817  16.7283  16.7295  16.7463  16.7960  16.8828  16.8841
    16.9387  16.9424  16.9571  16.9589  17.0279  17.1077  17.1134  17.1135
    17.1308  17.1368  17.4357  17.4527  17.4540  17.5500  17.5514  17.6172
    17.6183  17.6331  17.6337  17.6913  17.6919  17.7225  17.7241  17.7859
    17.7876  17.8954  17.9285  17.9291  17.9299  17.9311  17.9530  17.9537
    17.9596  17.9597  18.0586  18.1570  18.2092  18.2095  18.2246  18.2247
    18.2356  18.3187  18.3241  18.3249  18.3655  18.3658  18.3662  18.3671
    18.4135  18.4144  18.4407  18.4563  18.4574  18.5286  18.7055  18.7073
    18.7664  18.7704  18.7762  18.8206  18.9190  18.9191  18.9688  18.9688
    18.9747  19.0505  19.0579  19.0598  19.0713  19.1971  19.2501  19.2511
    19.2531  19.2543  19.2836  19.4522  19.4534  19.4541  19.4548  20.0610
    20.0639  20.2887  20.5111  20.5153  20.8243  20.8245  20.8643  21.2018
    21.3907  21.3910  21.6079  21.9278  22.6652  22.6718  23.2114  23.2187
    23.3450  23.3597  25.8836  25.8903  26.0277  26.0419  26.4429  26.4501
    26.4949  26.7990  26.7995  27.2035  27.8498  27.8578  28.5239  28.5316
    28.8518  29.2995  29.3051  29.3968  29.3975  29.6378  29.6490  29.6881
    29.7089  29.7865  29.7908  29.9560  30.0400  30.0576  30.2057  30.2172
    30.2212  30.2283

          k = 0.0555 0.0556 0.3889 ( 33022 PWs)   bands (ev):

   -64.8834 -64.8755 -64.8570 -64.8569 -64.8527 -64.8526 -64.8520 -64.8519
   -64.8483 -64.8482 -64.8438 -64.8428 -64.8419 -64.8412 -64.8410 -64.8403
   -64.8399 -64.8389 -64.8388 -64.8327 -64.8327 -64.8316 -64.8315 -64.8310
   -64.8284 -64.8283 -64.8279 -64.8278 -64.8262 -64.8255 -64.8253 -64.8247
   -30.7524 -30.7483 -30.7482 -30.7423 -30.7340 -30.7338 -30.7232 -30.7214
   -30.7158 -30.7158 -30.7083 -30.7082 -30.7081 -30.6817 -30.6786 -30.6783
   -30.6735 -30.6733 -30.6719 -30.6718 -30.6623 -30.6622 -30.6450 -30.6445
   -30.6374 -30.6370 -30.6271 -30.6266 -30.6220 -30.6219 -30.6216 -30.6214
   -30.6166 -30.6162 -30.6003 -30.5999 -30.5980 -30.5976 -30.5874 -30.5873
   -30.5613 -30.5611 -30.5417 -30.5412 -30.5405 -30.5397 -30.5294 -30.5279
   -30.5232 -30.5155 -30.5154 -30.5148 -30.5147 -30.5141 -30.5140 -30.5128
   -30.5128 -30.5118 -30.5107 -30.5015 -30.5011 -30.5010 -30.4926 -30.4926
   -30.4891 -30.4889 -30.4888 -30.4886 -30.4870 -30.4813 -30.4803 -30.4803
   -30.4798 -30.4798 -30.4725 -30.4635 -30.4633 -30.4600 -30.4585 -30.4566
   -30.4559 -30.4557 -30.4551 -30.4547 -30.4545 -30.4515 -30.4502 -30.4501
   -30.4498 -30.4427 -30.4425 -30.4367 -30.4305 -30.4296 -30.4132 -30.4122
    12.7103  13.3067  14.2293  14.3019  14.3020  14.3121  14.3645  14.3646
    14.4019  14.4508  14.4752  14.5627  14.5632  14.5962  14.5984  14.6394
    14.6395  14.6506  14.7102  14.7221  14.7221  14.7740  14.7955  14.7978
    14.9345  14.9356  14.9427  14.9440  15.1415  15.1428  15.2325  15.2338
    15.2870  15.2891  15.3553  15.3569  15.3750  15.3758  15.5131  15.5150
    15.5699  15.5704  15.5781  15.5781  15.6767  15.6768  15.7161  15.7168
    15.7333  15.7351  15.7745  15.7761  15.8208  15.8235  15.9430  15.9635
    15.9642  15.9961  15.9965  16.1075  16.1496  16.1503  16.1521  16.1529
    16.1829  16.1845  16.2435  16.2506  16.2861  16.3028  16.3056  16.3333
    16.3339  16.3853  16.4626  16.4630  16.6019  16.6455  16.6484  16.6707
    16.6717  16.6772  16.7025  16.7034  16.7109  16.7121  16.8637  16.9079
    16.9103  16.9488  16.9560  16.9611  17.1421  17.1451  17.1456  17.1600
    17.3838  17.3878  17.5189  17.5197  17.5268  17.5441  17.5448  17.7139
    17.7143  17.7501  17.7505  17.7587  17.7594  17.7748  17.7759  17.7862
    17.8119  17.8123  17.8977  17.8982  17.9320  17.9389  17.9394  17.9418
    17.9420  17.9549  17.9559  17.9711  17.9717  18.0553  18.1057  18.1708
    18.1710  18.2401  18.3167  18.3210  18.4126  18.4129  18.4472  18.4864
    18.5699  18.5707  18.5734  18.6301  18.6372  18.6373  18.6587  18.6589
    18.8116  18.8116  18.8265  18.9199  18.9270  18.9284  18.9562  18.9581
    18.9656  18.9659  19.0062  19.0712  19.0725  19.0735  19.0745  19.1443
    19.2629  19.2642  19.3946  19.4522  19.4531  19.4540  19.4547  19.6631
    19.6650  20.0728  20.0761  20.4796  20.7721  20.8766  21.0295  21.0298
    21.3109  21.3113  21.4980  21.8464  23.3736  23.3804  23.9209  23.9284
    23.9454  23.9598  24.9969  25.0037  25.3087  25.3229  25.5455  25.5529
    26.8466  27.2631  27.2637  27.7453  28.0510  28.2008  28.2096  28.5814
    28.5821  28.8590  28.8674  29.1184  29.1288  29.1351  29.5102  29.5201
    29.6479  29.6673  29.7293  29.7396  30.1821  30.1822  30.1900  30.2002
    30.4069  30.4229

          k = 0.0555 0.0556-0.5000 ( 33044 PWs)   bands (ev):

   -64.8802 -64.8794 -64.8554 -64.8553 -64.8546 -64.8545 -64.8507 -64.8506
   -64.8499 -64.8498 -64.8437 -64.8430 -64.8419 -64.8412 -64.8410 -64.8403
   -64.8397 -64.8389 -64.8350 -64.8342 -64.8308 -64.8307 -64.8300 -64.8300
   -64.8299 -64.8299 -64.8292 -64.8291 -64.8262 -64.8255 -64.8253 -64.8247
   -30.7384 -30.7380 -30.7337 -30.7333 -30.7329 -30.7326 -30.7263 -30.7259
   -30.7227 -30.7225 -30.7219 -30.7217 -30.7047 -30.7040 -30.6764 -30.6762
   -30.6761 -30.6759 -30.6686 -30.6685 -30.6684 -30.6683 -30.6338 -30.6334
   -30.6333 -30.6329 -30.6285 -30.6282 -30.6278 -30.6275 -30.6128 -30.6125
   -30.6123 -30.6123 -30.6120 -30.6119 -30.6116 -30.6111 -30.5736 -30.5735
   -30.5729 -30.5728 -30.5417 -30.5410 -30.5407 -30.5400 -30.5217 -30.5210
   -30.5204 -30.5196 -30.5043 -30.5040 -30.5031 -30.5031 -30.5024 -30.5024
   -30.5023 -30.5023 -30.5020 -30.5019 -30.5015 -30.5013 -30.5012 -30.5009
   -30.4959 -30.4956 -30.4952 -30.4949 -30.4899 -30.4899 -30.4891 -30.4891
   -30.4859 -30.4856 -30.4596 -30.4588 -30.4586 -30.4585 -30.4582 -30.4581
   -30.4574 -30.4568 -30.4566 -30.4559 -30.4557 -30.4551 -30.4510 -30.4503
   -30.4456 -30.4456 -30.4453 -30.4453 -30.4214 -30.4207 -30.4204 -30.4198
    12.9834  12.9844  14.3387  14.3394  14.4611  14.4616  14.4619  14.4624
    14.4624  14.4625  14.5249  14.5250  14.5258  14.5258  14.5718  14.5718
    14.5809  14.5818  14.7285  14.7293  14.7293  14.7301  14.7640  14.7648
    14.7658  14.7666  14.9651  14.9659  14.9670  14.9677  15.3168  15.3170
    15.3171  15.3173  15.4314  15.4321  15.4327  15.4335  15.4557  15.4563
    15.4565  15.4572  15.5898  15.5905  15.5909  15.5915  15.7448  15.7450
    15.7456  15.7458  15.7521  15.7522  15.7546  15.7547  15.9643  15.9644
    15.9646  15.9646  16.1041  16.1048  16.1521  16.1527  16.1547  16.1554
    16.1774  16.1779  16.2437  16.2443  16.2459  16.2464  16.3395  16.3400
    16.4989  16.4990  16.4997  16.4998  16.5597  16.5599  16.5602  16.5604
    16.7196  16.7198  16.7708  16.7711  16.7732  16.7735  16.7963  16.7971
    16.8023  16.8031  16.8052  16.8054  17.5376  17.5377  17.5382  17.5383
    17.5383  17.5385  17.5387  17.5390  17.5421  17.5424  17.5858  17.5861
    17.6566  17.6574  17.7566  17.7570  17.7572  17.7576  17.8395  17.8399
    17.8402  17.8406  17.8472  17.8476  17.8515  17.8519  17.8558  17.8559
    17.8564  17.8566  17.8943  17.8948  17.8950  17.8954  18.0694  18.0694
    18.0700  18.0701  18.1663  18.1671  18.6207  18.6211  18.6214  18.6218
    18.6476  18.6478  18.7608  18.7609  18.7621  18.7622  18.7674  18.7681
    18.7951  18.7953  18.8060  18.8062  18.8607  18.8613  18.8620  18.8625
    18.8690  18.8695  18.8699  18.8704  19.0218  19.0222  19.2946  19.2947
    19.2955  19.2957  19.4522  19.4530  19.4540  19.4547  19.6549  19.6550
    19.6573  19.6575  20.1159  20.1165  20.6435  20.6443  21.1921  21.1924
    21.1928  21.1932  21.7091  21.7098  24.1536  24.1539  24.1604  24.1608
    24.6085  24.6091  24.6228  24.6234  24.7004  24.7007  24.7079  24.7082
    27.3726  27.3728  27.8631  27.8633  27.8641  27.8643  28.3933  28.3934
    28.6311  28.6319  28.6407  28.6414  29.2684  29.2692  29.2777  29.2785
    29.5930  29.5936  29.6093  29.6100  30.3538  30.3546  30.3715  30.3724
    30.6367  30.6377

          k = 0.0555 0.1667 0.1667 ( 33017 PWs)   bands (ev):

   -64.8871 -64.8649 -64.8648 -64.8590 -64.8537 -64.8506 -64.8486 -64.8486
   -64.8471 -64.8470 -64.8437 -64.8436 -64.8430 -64.8415 -64.8403 -64.8403
   -64.8401 -64.8400 -64.8382 -64.8381 -64.8362 -64.8362 -64.8341 -64.8268
   -64.8265 -64.8263 -64.8262 -64.8260 -64.8259 -64.8258 -64.8257 -64.8250
   -30.7675 -30.7675 -30.7628 -30.7581 -30.7460 -30.7446 -30.7446 -30.6890
   -30.6890 -30.6865 -30.6865 -30.6771 -30.6770 -30.6760 -30.6735 -30.6735
   -30.6729 -30.6729 -30.6727 -30.6727 -30.6649 -30.6649 -30.6625 -30.6624
   -30.6396 -30.6330 -30.6330 -30.6311 -30.6311 -30.6260 -30.6260 -30.6178
   -30.6177 -30.6076 -30.6040 -30.5799 -30.5754 -30.5754 -30.5616 -30.5616
   -30.5571 -30.5570 -30.5511 -30.5448 -30.5448 -30.5432 -30.5431 -30.5381
   -30.5379 -30.5375 -30.5374 -30.5365 -30.5355 -30.5355 -30.5336 -30.5336
   -30.5317 -30.5317 -30.5196 -30.5196 -30.5139 -30.4917 -30.4917 -30.4868
   -30.4867 -30.4770 -30.4754 -30.4736 -30.4682 -30.4681 -30.4678 -30.4677
   -30.4650 -30.4650 -30.4638 -30.4638 -30.4635 -30.4630 -30.4598 -30.4588
   -30.4587 -30.4571 -30.4548 -30.4547 -30.4540 -30.4534 -30.4533 -30.4533
   -30.4487 -30.4487 -30.4447 -30.4446 -30.4375 -30.4176 -30.4048 -30.4020
    12.4249  14.0618  14.0619  14.1171  14.1172  14.1241  14.1450  14.1861
    14.2262  14.2262  14.3805  14.3805  14.3976  14.3985  14.5910  14.6249
    14.6250  14.9855  14.9856  15.0058  15.0059  15.0325  15.0325  15.0544
    15.0545  15.0768  15.1224  15.1225  15.1458  15.1459  15.2642  15.2726
    15.2727  15.2811  15.2812  15.3315  15.4401  15.4705  15.4706  15.4789
    15.4790  15.5077  15.5077  15.5963  15.5964  15.7399  15.7399  15.8218
    15.8218  15.8322  15.9290  15.9291  15.9448  15.9449  16.0044  16.0044
    16.0157  16.0760  16.0761  16.0857  16.0858  16.1393  16.1393  16.2354
    16.2842  16.2843  16.3331  16.3331  16.3366  16.3366  16.3810  16.4104
    16.4414  16.4430  16.4431  16.4481  16.4481  16.4677  16.4678  16.4876
    16.5135  16.5136  16.5149  16.5197  16.5310  16.5366  16.5367  16.5409
    16.9875  17.0475  17.0475  17.0965  17.2047  17.2047  17.3144  17.3338
    17.3338  17.3349  17.3350  17.3919  17.3920  17.4150  17.4151  17.4735
    17.4775  17.4776  17.5586  17.6321  17.6405  17.6406  17.6607  17.6607
    17.6855  17.9369  17.9369  17.9539  17.9540  17.9641  18.0148  18.0292
    18.0293  18.0453  18.0454  18.0456  18.0555  18.0556  18.1357  18.1358
    18.1655  18.1655  18.3438  18.3438  18.3857  18.3957  18.3958  18.3977
    18.4383  18.4383  18.4446  18.4447  18.5040  18.5041  18.5369  18.5789
    18.7014  18.8085  18.8596  18.8596  18.9914  18.9947  18.9948  19.0123
    19.1074  19.1410  19.1411  19.1583  19.1583  19.1665  19.3284  19.3284
    19.3825  19.3825  19.3843  19.3843  19.3939  19.3939  19.4182  19.8356
    20.0602  20.4570  20.4570  20.4999  20.9480  20.9481  21.1270  21.1270
    21.5257  21.5257  22.0169  22.0169  22.5080  22.5080  22.5581  22.5581
    23.1186  23.1617  26.1474  26.1474  26.3220  26.3220  26.7858  26.8545
    26.8545  26.8881  26.8882  27.1856  27.4882  27.4882  27.9329  27.9331
    28.9275  28.9275  29.2257  29.2257  29.6063  29.6972  29.7639  29.7639
    29.8362  29.8362  30.0727  30.0728  30.1950  30.1950  30.5747  30.5747
    30.8483  30.8597

          k = 0.0555 0.1667 0.2778 ( 33003 PWs)   bands (ev):

   -64.8852 -64.8700 -64.8637 -64.8580 -64.8539 -64.8528 -64.8498 -64.8479
   -64.8467 -64.8459 -64.8439 -64.8435 -64.8434 -64.8421 -64.8419 -64.8397
   -64.8392 -64.8382 -64.8369 -64.8365 -64.8354 -64.8339 -64.8322 -64.8282
   -64.8273 -64.8272 -64.8271 -64.8268 -64.8264 -64.8260 -64.8257 -64.8251
   -30.7621 -30.7607 -30.7533 -30.7471 -30.7398 -30.7390 -30.7352 -30.7064
   -30.7029 -30.6927 -30.6897 -30.6893 -30.6892 -30.6891 -30.6799 -30.6788
   -30.6786 -30.6734 -30.6726 -30.6706 -30.6683 -30.6676 -30.6639 -30.6579
   -30.6498 -30.6371 -30.6340 -30.6280 -30.6243 -30.6230 -30.6186 -30.6167
   -30.6123 -30.6101 -30.6007 -30.5912 -30.5886 -30.5753 -30.5708 -30.5592
   -30.5575 -30.5557 -30.5496 -30.5441 -30.5420 -30.5387 -30.5382 -30.5376
   -30.5351 -30.5347 -30.5337 -30.5288 -30.5253 -30.5237 -30.5229 -30.5203
   -30.5189 -30.5169 -30.5065 -30.5058 -30.5034 -30.5002 -30.4987 -30.4972
   -30.4825 -30.4811 -30.4811 -30.4796 -30.4773 -30.4768 -30.4764 -30.4758
   -30.4706 -30.4680 -30.4673 -30.4651 -30.4649 -30.4645 -30.4611 -30.4605
   -30.4598 -30.4579 -30.4575 -30.4568 -30.4537 -30.4532 -30.4514 -30.4453
   -30.4432 -30.4430 -30.4428 -30.4368 -30.4337 -30.4301 -30.4091 -30.4043
    12.5681  13.7151  14.1638  14.1839  14.1982  14.2057  14.2079  14.2527
    14.3182  14.3306  14.4347  14.4636  14.4745  14.4884  14.5922  14.6629
    14.7267  14.8015  14.8261  14.8566  14.8865  14.8922  14.9009  14.9332
    15.0247  15.0364  15.0593  15.0697  15.0893  15.1141  15.1859  15.1948
    15.2026  15.2232  15.2516  15.3033  15.3412  15.3645  15.3944  15.4931
    15.5044  15.5200  15.5597  15.6292  15.6665  15.6827  15.6909  15.7783
    15.7861  15.7969  15.8113  15.8276  15.8747  15.9416  15.9495  15.9940
    15.9964  16.0076  16.0934  16.1452  16.1883  16.1919  16.2420  16.2559
    16.2715  16.2725  16.2844  16.3079  16.3456  16.3591  16.3687  16.4000
    16.4256  16.4412  16.4996  16.5350  16.5571  16.5733  16.5819  16.5856
    16.6001  16.6185  16.6248  16.6389  16.6539  16.7566  16.8355  16.8697
    16.8909  16.8974  16.9214  17.0119  17.0335  17.1333  17.1431  17.1572
    17.2273  17.2443  17.2569  17.3311  17.3369  17.4107  17.4200  17.5215
    17.5373  17.5597  17.5640  17.6187  17.6617  17.7453  17.7969  17.8018
    17.8187  17.8974  17.9053  17.9206  17.9516  18.0006  18.0338  18.0420
    18.0695  18.1125  18.1156  18.1598  18.1653  18.1770  18.1773  18.1881
    18.1987  18.2278  18.2994  18.3388  18.3607  18.3945  18.4259  18.4886
    18.4978  18.5278  18.5322  18.5348  18.5382  18.5602  18.5652  18.6545
    18.6574  18.6834  18.7746  18.8601  18.8873  18.9105  18.9877  19.0022
    19.0745  19.1126  19.1162  19.1209  19.2032  19.2193  19.2202  19.2244
    19.2505  19.2530  19.2883  19.3823  19.3851  19.3911  19.3974  19.6696
    19.8686  20.0288  20.3934  20.4879  20.5277  20.8997  21.0371  21.4162
    21.6140  21.9019  21.9859  22.1481  22.5228  22.6657  22.9857  23.2085
    23.5719  23.8006  25.3141  25.5001  25.9522  26.1737  26.3245  26.4596
    26.4947  26.9785  27.1688  27.1776  27.2147  27.6911  27.6997  28.3374
    28.4617  28.7292  28.8678  29.0406  29.1595  29.2661  29.4852  29.6553
    29.8347  29.9322  29.9762  30.1732  30.2251  30.4384  30.5455  30.5469
    30.7772  30.8891

          k = 0.0555 0.1667 0.3889 ( 33035 PWs)   bands (ev):

   -64.8825 -64.8747 -64.8619 -64.8569 -64.8566 -64.8523 -64.8516 -64.8480
   -64.8469 -64.8463 -64.8447 -64.8439 -64.8433 -64.8423 -64.8394 -64.8387
   -64.8385 -64.8384 -64.8369 -64.8339 -64.8329 -64.8318 -64.8309 -64.8304
   -64.8289 -64.8287 -64.8283 -64.8274 -64.8268 -64.8260 -64.8257 -64.8251
   -30.7528 -30.7503 -30.7404 -30.7327 -30.7308 -30.7307 -30.7239 -30.7216
   -30.7202 -30.7072 -30.7072 -30.7053 -30.6972 -30.6888 -30.6870 -30.6825
   -30.6822 -30.6819 -30.6806 -30.6769 -30.6677 -30.6633 -30.6608 -30.6527
   -30.6448 -30.6410 -30.6355 -30.6314 -30.6281 -30.6207 -30.6122 -30.6077
   -30.6052 -30.6044 -30.6008 -30.5950 -30.5884 -30.5848 -30.5834 -30.5734
   -30.5694 -30.5589 -30.5383 -30.5377 -30.5344 -30.5343 -30.5339 -30.5323
   -30.5282 -30.5275 -30.5250 -30.5172 -30.5144 -30.5134 -30.5129 -30.5119
   -30.5097 -30.5080 -30.5054 -30.5030 -30.4952 -30.4946 -30.4910 -30.4907
   -30.4907 -30.4902 -30.4900 -30.4883 -30.4880 -30.4879 -30.4876 -30.4773
   -30.4749 -30.4747 -30.4679 -30.4671 -30.4662 -30.4659 -30.4648 -30.4640
   -30.4630 -30.4619 -30.4559 -30.4553 -30.4542 -30.4516 -30.4496 -30.4467
   -30.4465 -30.4436 -30.4377 -30.4325 -30.4325 -30.4259 -30.4152 -30.4093
    12.7782  13.3668  14.2772  14.2917  14.3089  14.3237  14.3378  14.3588
    14.4477  14.4705  14.5010  14.5148  14.5790  14.5878  14.5958  14.6205
    14.6459  14.6781  14.6849  14.6851  14.7459  14.7590  14.8104  14.8203
    14.8421  14.8710  14.9550  14.9743  14.9936  15.0736  15.1847  15.2041
    15.2102  15.2286  15.2638  15.3183  15.3275  15.4513  15.4586  15.4824
    15.5120  15.5251  15.5906  15.6008  15.6215  15.6283  15.6293  15.6373
    15.6739  15.7158  15.7731  15.8041  15.8177  15.8721  15.9509  15.9738
    16.0073  16.0558  16.1605  16.1704  16.2016  16.2230  16.2399  16.2416
    16.2426  16.2471  16.2928  16.3266  16.3422  16.3501  16.3592  16.3802
    16.4281  16.4640  16.4751  16.6103  16.6115  16.6716  16.6779  16.6822
    16.6870  16.6871  16.7294  16.7416  16.7626  16.8281  16.8351  16.8442
    16.9173  16.9326  16.9549  17.0216  17.0542  17.0780  17.1187  17.1378
    17.3012  17.3088  17.3312  17.3508  17.3526  17.3833  17.4780  17.5715
    17.5736  17.5915  17.6520  17.7005  17.7516  17.7638  17.7746  17.7762
    17.7950  17.8030  17.8494  17.8811  17.9217  17.9452  17.9510  17.9568
    18.0107  18.0177  18.0657  18.0932  18.1219  18.1726  18.2000  18.2135
    18.2420  18.2424  18.2437  18.3832  18.4014  18.4040  18.4330  18.4385
    18.5471  18.5871  18.6297  18.6646  18.6988  18.7221  18.7250  18.7284
    18.7352  18.7400  18.7643  18.8253  18.8298  18.9274  18.9330  18.9559
    18.9805  19.0270  19.0291  19.0731  19.0749  19.0753  19.0782  19.1646
    19.2391  19.3147  19.3828  19.3859  19.3885  19.3888  19.6311  19.6524
    19.7685  20.0181  20.0510  20.2973  20.5633  20.6229  20.8268  21.1849
    21.6524  21.9256  22.0079  22.4416  22.8475  23.3898  23.5630  23.9290
    24.1429  24.4507  24.5025  24.8432  25.0472  25.4674  25.5733  26.1054
    26.5262  26.8506  27.4538  27.5274  27.5621  27.7600  28.0013  28.0641
    28.2605  28.2876  28.4906  28.7995  28.9504  29.1540  29.4816  29.5650
    29.7242  29.8768  29.8853  30.0270  30.1343  30.3115  30.3196  30.3993
    30.4619  30.7147

          k = 0.0555 0.1667-0.5000 ( 33038 PWs)   bands (ev):

   -64.8793 -64.8786 -64.8600 -64.8593 -64.8550 -64.8542 -64.8503 -64.8496
   -64.8459 -64.8459 -64.8451 -64.8451 -64.8432 -64.8425 -64.8392 -64.8385
   -64.8380 -64.8372 -64.8349 -64.8341 -64.8316 -64.8310 -64.8308 -64.8303
   -64.8302 -64.8295 -64.8292 -64.8284 -64.8268 -64.8260 -64.8257 -64.8251
   -30.7400 -30.7397 -30.7367 -30.7363 -30.7249 -30.7245 -30.7204 -30.7196
   -30.7195 -30.7188 -30.7159 -30.7155 -30.7042 -30.7034 -30.6860 -30.6859
   -30.6835 -30.6831 -30.6827 -30.6827 -30.6630 -30.6629 -30.6532 -30.6527
   -30.6408 -30.6406 -30.6403 -30.6402 -30.6206 -30.6203 -30.6118 -30.6114
   -30.6010 -30.6005 -30.5952 -30.5944 -30.5906 -30.5904 -30.5815 -30.5811
   -30.5711 -30.5704 -30.5384 -30.5378 -30.5340 -30.5336 -30.5245 -30.5237
   -30.5198 -30.5191 -30.5162 -30.5154 -30.5139 -30.5136 -30.5067 -30.5064
   -30.5042 -30.5037 -30.5018 -30.5015 -30.5008 -30.5004 -30.5001 -30.4997
   -30.4976 -30.4968 -30.4878 -30.4875 -30.4843 -30.4835 -30.4774 -30.4770
   -30.4768 -30.4761 -30.4723 -30.4719 -30.4672 -30.4668 -30.4651 -30.4644
   -30.4634 -30.4627 -30.4595 -30.4592 -30.4554 -30.4546 -30.4482 -30.4474
   -30.4468 -30.4465 -30.4341 -30.4339 -30.4234 -30.4226 -30.4168 -30.4164
    13.0477  13.0487  14.3876  14.3883  14.4248  14.4249  14.4729  14.4736
    14.4868  14.4876  14.4983  14.4991  14.5033  14.5034  14.6127  14.6127
    14.6188  14.6196  14.6426  14.6427  14.6984  14.6990  14.7518  14.7526
    14.7906  14.7912  14.8668  14.8672  15.0449  15.0456  15.1267  15.1269
    15.3215  15.3216  15.3256  15.3261  15.3608  15.3616  15.4628  15.4636
    15.5392  15.5393  15.5650  15.5658  15.6154  15.6157  15.6398  15.6401
    15.6927  15.6927  15.7241  15.7247  15.7266  15.7271  16.0843  16.0848
    16.1052  16.1058  16.1073  16.1080  16.1267  16.1273  16.1864  16.1865
    16.2853  16.2859  16.2997  16.3001  16.4004  16.4009  16.4360  16.4367
    16.4968  16.4969  16.5423  16.5423  16.5536  16.5538  16.6696  16.6697
    16.7157  16.7159  16.7840  16.7843  16.7964  16.7971  16.8021  16.8028
    16.8613  16.8616  16.8827  16.8830  17.3386  17.3391  17.3487  17.3493
    17.3967  17.3969  17.4078  17.4080  17.4340  17.4342  17.4832  17.4834
    17.5299  17.5305  17.6765  17.6772  17.6824  17.6830  17.7534  17.7538
    17.7642  17.7648  17.7977  17.7981  17.8083  17.8088  17.8757  17.8764
    17.9875  17.9882  18.0273  18.0279  18.0976  18.0983  18.1608  18.1616
    18.2920  18.2927  18.3419  18.3426  18.4157  18.4162  18.5828  18.5835
    18.6228  18.6229  18.6406  18.6412  18.7735  18.7738  18.7985  18.7986
    18.8599  18.8605  18.8873  18.8878  18.8922  18.8924  18.8982  18.8985
    18.9068  18.9073  18.9095  18.9099  18.9965  18.9967  19.0471  19.0473
    19.2625  19.2626  19.3841  19.3848  19.3869  19.3876  19.6338  19.6339
    20.1013  20.1015  20.1697  20.1704  20.4509  20.4515  20.7310  20.7317
    21.8195  21.8203  22.2805  22.2812  23.6193  23.6197  24.1866  24.1869
    24.1911  24.1917  24.7195  24.7198  24.7839  24.7845  25.2713  25.2716
    26.9445  26.9446  27.3816  27.3817  27.8294  27.8301  27.9781  27.9788
    28.3731  28.3739  28.4106  28.4107  28.9680  28.9681  29.3475  29.3477
    29.8727  29.8735  30.0436  30.0442  30.0581  30.0585  30.1505  30.1514
    30.8291  31.0107

          k = 0.0555 0.2778 0.2778 ( 33024 PWs)   bands (ev):

   -64.8834 -64.8687 -64.8686 -64.8576 -64.8571 -64.8520 -64.8493 -64.8493
   -64.8456 -64.8456 -64.8452 -64.8429 -64.8429 -64.8428 -64.8385 -64.8385
   -64.8383 -64.8382 -64.8358 -64.8357 -64.8344 -64.8343 -64.8307 -64.8284
   -64.8282 -64.8280 -64.8279 -64.8274 -64.8273 -64.8264 -64.8262 -64.8254
   -30.7570 -30.7570 -30.7429 -30.7350 -30.7338 -30.7306 -30.7306 -30.7065
   -30.7065 -30.7049 -30.7048 -30.6927 -30.6927 -30.6844 -30.6844 -30.6825
   -30.6824 -30.6788 -30.6787 -30.6773 -30.6773 -30.6677 -30.6654 -30.6654
   -30.6614 -30.6614 -30.6325 -30.6268 -30.6203 -30.6203 -30.6133 -30.6132
   -30.6061 -30.6033 -30.5955 -30.5954 -30.5692 -30.5680 -30.5680 -30.5575
   -30.5575 -30.5553 -30.5553 -30.5451 -30.5450 -30.5333 -30.5333 -30.5312
   -30.5312 -30.5309 -30.5300 -30.5298 -30.5248 -30.5247 -30.5167 -30.5167
   -30.5092 -30.5091 -30.5077 -30.5077 -30.4953 -30.4953 -30.4945 -30.4944
   -30.4894 -30.4893 -30.4870 -30.4868 -30.4785 -30.4785 -30.4767 -30.4761
   -30.4759 -30.4748 -30.4748 -30.4731 -30.4650 -30.4649 -30.4636 -30.4621
   -30.4611 -30.4599 -30.4547 -30.4540 -30.4540 -30.4536 -30.4480 -30.4480
   -30.4441 -30.4440 -30.4440 -30.4314 -30.4313 -30.4278 -30.4133 -30.4043
    12.7077  13.8242  13.8243  14.2323  14.2721  14.2756  14.2757  14.3004
    14.4282  14.4282  14.5087  14.5161  14.5161  14.5870  14.6460  14.6829
    14.6924  14.6924  14.7345  14.7345  14.8486  14.8487  14.8511  14.8512
    14.9359  14.9360  14.9586  14.9587  15.1238  15.1253  15.1254  15.1316
    15.1316  15.2282  15.2282  15.2607  15.2607  15.3069  15.3069  15.3847
    15.3847  15.4621  15.5815  15.5815  15.5874  15.5874  15.6094  15.8007
    15.8008  15.8288  15.8289  15.8409  15.8409  15.8449  15.8561  16.0986
    16.0987  16.1746  16.1747  16.2595  16.2595  16.2610  16.2611  16.3068
    16.3084  16.3084  16.3352  16.3352  16.3500  16.4439  16.4711  16.4794
    16.4795  16.5709  16.5710  16.5893  16.6183  16.6441  16.6487  16.6763
    16.6764  16.6765  16.7207  16.7207  16.7412  16.7413  16.7482  16.7837
    16.8847  16.8847  16.9083  16.9083  17.0774  17.0774  17.1325  17.1326
    17.2132  17.2132  17.2682  17.3088  17.3571  17.3572  17.3880  17.3881
    17.4074  17.4075  17.4766  17.4826  17.6234  17.6235  17.7536  17.8393
    17.8394  17.8553  17.8554  17.8691  17.8914  17.9750  17.9750  18.0443
    18.0900  18.1443  18.1444  18.1991  18.1992  18.2470  18.2471  18.2856
    18.2857  18.3965  18.3966  18.3971  18.3971  18.4193  18.4194  18.4195
    18.4203  18.4754  18.4754  18.6292  18.6724  18.6983  18.6983  18.7038
    18.7039  18.7080  18.7080  18.8100  18.8131  18.8494  18.9721  18.9721
    19.0456  19.1259  19.1259  19.1392  19.1571  19.1572  19.2531  19.2531
    19.2556  19.2557  19.2787  19.2787  19.3210  19.3357  19.6392  19.6688
    19.6688  19.9651  19.9651  20.3469  20.4433  20.4434  21.6386  21.6386
    22.0032  22.0033  22.3709  22.3709  22.6569  22.6569  23.1840  23.1841
    23.9777  24.4293  24.7219  24.7219  25.9710  25.9710  26.3236  26.3236
    26.4496  26.4497  26.9254  26.9254  27.5592  27.5594  27.7268  27.8563
    27.8563  28.2536  28.3713  28.3713  28.4428  29.5446  29.7346  29.7346
    29.8719  29.8719  30.3079  30.3093  30.5907  30.5908  30.7340  30.7341
    30.9620  30.9620

          k = 0.0555 0.2778 0.3889 ( 33053 PWs)   bands (ev):

   -64.8808 -64.8732 -64.8667 -64.8610 -64.8557 -64.8517 -64.8509 -64.8486
   -64.8475 -64.8464 -64.8452 -64.8436 -64.8421 -64.8397 -64.8383 -64.8376
   -64.8372 -64.8361 -64.8350 -64.8350 -64.8334 -64.8324 -64.8308 -64.8294
   -64.8293 -64.8293 -64.8291 -64.8283 -64.8274 -64.8270 -64.8262 -64.8254
   -30.7493 -30.7482 -30.7294 -30.7248 -30.7239 -30.7234 -30.7212 -30.7198
   -30.7185 -30.7046 -30.7038 -30.7037 -30.6998 -30.6960 -30.6921 -30.6918
   -30.6912 -30.6845 -30.6838 -30.6834 -30.6770 -30.6743 -30.6665 -30.6658
   -30.6643 -30.6505 -30.6417 -30.6395 -30.6309 -30.6183 -30.6063 -30.6026
   -30.5988 -30.5880 -30.5871 -30.5805 -30.5800 -30.5798 -30.5710 -30.5676
   -30.5542 -30.5487 -30.5461 -30.5410 -30.5385 -30.5382 -30.5329 -30.5309
   -30.5277 -30.5265 -30.5249 -30.5202 -30.5192 -30.5175 -30.5139 -30.5080
   -30.5075 -30.5072 -30.5060 -30.5056 -30.5029 -30.4975 -30.4944 -30.4938
   -30.4926 -30.4909 -30.4862 -30.4860 -30.4841 -30.4819 -30.4814 -30.4810
   -30.4748 -30.4743 -30.4733 -30.4701 -30.4687 -30.4684 -30.4677 -30.4674
   -30.4618 -30.4603 -30.4588 -30.4568 -30.4552 -30.4550 -30.4547 -30.4508
   -30.4457 -30.4453 -30.4371 -30.4269 -30.4248 -30.4212 -30.4195 -30.4073
    12.9122  13.4849  13.9815  14.3040  14.3705  14.3725  14.3849  14.4049
    14.4071  14.5553  14.5576  14.5596  14.5694  14.5937  14.5987  14.6377
    14.6616  14.6678  14.6707  14.7139  14.7273  14.7529  14.8014  14.8176
    14.8350  14.8867  14.9147  14.9272  14.9960  15.0216  15.0487  15.0593
    15.0983  15.1962  15.2004  15.2351  15.2781  15.3065  15.3092  15.3587
    15.3733  15.4243  15.4508  15.4883  15.5257  15.6334  15.6794  15.6970
    15.7179  15.7625  15.8272  15.8572  15.8859  15.9096  15.9622  16.0714
    16.0821  16.0845  16.1659  16.2245  16.2294  16.2857  16.3335  16.3339
    16.3692  16.3732  16.3783  16.4143  16.4434  16.4654  16.4897  16.5786
    16.5828  16.6178  16.6396  16.6421  16.6620  16.6855  16.6944  16.7182
    16.7282  16.7305  16.7441  16.8246  16.8255  16.8450  16.8501  16.8684
    16.8761  16.9575  16.9580  16.9593  17.0366  17.0564  17.1247  17.1399
    17.1502  17.1846  17.2095  17.2170  17.2316  17.2686  17.2868  17.3912
    17.4978  17.5045  17.5239  17.5322  17.5408  17.5528  17.6182  17.6369
    17.6686  17.7016  17.7585  17.7750  17.7913  17.8703  18.0342  18.0759
    18.0825  18.0922  18.1135  18.1194  18.2450  18.2506  18.2628  18.2746
    18.2774  18.3242  18.4291  18.4503  18.4512  18.4617  18.5175  18.5292
    18.5320  18.6069  18.6350  18.6681  18.6746  18.7354  18.7618  18.8313
    18.8456  18.8457  18.8570  18.8576  18.8680  18.8689  18.8970  18.9185
    19.0119  19.0632  19.0717  19.0730  19.0775  19.0779  19.0829  19.0906
    19.1396  19.2094  19.2590  19.2593  19.2699  19.2950  19.5691  19.6479
    19.8723  20.0123  20.1505  20.2483  20.2915  20.3831  21.1371  21.6534
    22.3131  22.3216  22.5166  22.6172  22.9237  23.0971  23.4047  23.8898
    23.9127  24.1188  24.5054  25.0955  25.1145  25.4865  25.7669  26.3395
    26.5300  26.6381  26.7658  26.8906  27.1229  27.1578  27.4154  27.5874
    27.8654  27.9130  28.1156  28.3277  28.8868  29.2102  29.7683  29.8513
    29.9273  29.9741  30.0561  30.1341  30.2342  30.3503  30.8728  30.8752
    31.0439  31.1071

          k = 0.0555 0.2778-0.5000 ( 33052 PWs)   bands (ev):

   -64.8777 -64.8769 -64.8645 -64.8637 -64.8542 -64.8535 -64.8497 -64.8490
   -64.8480 -64.8472 -64.8449 -64.8441 -64.8414 -64.8407 -64.8372 -64.8364
   -64.8364 -64.8356 -64.8346 -64.8338 -64.8323 -64.8316 -64.8315 -64.8310
   -64.8308 -64.8303 -64.8284 -64.8283 -64.8277 -64.8275 -64.8262 -64.8254
   -30.7380 -30.7377 -30.7362 -30.7359 -30.7155 -30.7147 -30.7138 -30.7136
   -30.7132 -30.7130 -30.7029 -30.7026 -30.7022 -30.7022 -30.6994 -30.6994
   -30.6987 -30.6985 -30.6895 -30.6890 -30.6705 -30.6700 -30.6691 -30.6684
   -30.6533 -30.6529 -30.6399 -30.6399 -30.6347 -30.6343 -30.5930 -30.5928
   -30.5916 -30.5914 -30.5850 -30.5847 -30.5790 -30.5782 -30.5677 -30.5675
   -30.5663 -30.5655 -30.5323 -30.5317 -30.5305 -30.5297 -30.5286 -30.5278
   -30.5259 -30.5257 -30.5249 -30.5247 -30.5195 -30.5193 -30.5181 -30.5174
   -30.5067 -30.5062 -30.5036 -30.5034 -30.4976 -30.4972 -30.4972 -30.4968
   -30.4888 -30.4880 -30.4864 -30.4859 -30.4828 -30.4826 -30.4810 -30.4807
   -30.4753 -30.4746 -30.4721 -30.4715 -30.4714 -30.4708 -30.4698 -30.4695
   -30.4644 -30.4636 -30.4617 -30.4613 -30.4573 -30.4566 -30.4492 -30.4489
   -30.4484 -30.4476 -30.4280 -30.4272 -30.4246 -30.4244 -30.4131 -30.4129
    13.1744  13.1754  14.1784  14.1792  14.4129  14.4130  14.4828  14.4836
    14.5055  14.5056  14.5057  14.5060  14.5698  14.5706  14.6101  14.6106
    14.6945  14.6953  14.7226  14.7227  14.7378  14.7379  14.7543  14.7546
    14.7979  14.7987  14.9010  14.9014  14.9434  14.9435  15.0082  15.0087
    15.1821  15.1829  15.1964  15.1969  15.2760  15.2762  15.3403  15.3405
    15.3474  15.3482  15.5292  15.5299  15.5660  15.5661  15.5772  15.5779
    15.8448  15.8448  15.8489  15.8493  15.9547  15.9549  15.9714  15.9719
    15.9931  15.9938  16.1060  16.1065  16.3109  16.3115  16.4012  16.4017
    16.4108  16.4109  16.4352  16.4357  16.4813  16.4816  16.4948  16.4949
    16.5414  16.5416  16.6922  16.6923  16.7362  16.7368  16.7536  16.7538
    16.7683  16.7683  16.8002  16.8008  16.8097  16.8103  16.8250  16.8253
    16.9766  16.9769  16.9997  17.0000  17.1563  17.1564  17.1635  17.1640
    17.1738  17.1743  17.2370  17.2371  17.2499  17.2500  17.2650  17.2653
    17.3249  17.3254  17.5817  17.5823  17.5851  17.5855  17.6356  17.6361
    17.6647  17.6652  17.6929  17.6932  17.6933  17.6940  17.9824  17.9831
    17.9888  17.9893  18.1716  18.1723  18.2035  18.2041  18.2153  18.2160
    18.3765  18.3772  18.5035  18.5042  18.5081  18.5088  18.6289  18.6297
    18.6527  18.6533  18.6962  18.6962  18.7438  18.7440  18.7442  18.7445
    18.8653  18.8659  18.8926  18.8927  18.9199  18.9202  18.9674  18.9677
    18.9696  18.9700  18.9848  18.9850  18.9903  18.9904  19.0041  19.0042
    19.2008  19.2009  19.2632  19.2639  19.2716  19.2721  19.6012  19.6014
    19.7576  19.7583  20.3213  20.3220  20.6409  20.6411  20.9252  20.9258
    22.5137  22.5144  22.8881  22.8887  23.0779  23.0783  23.5141  23.5147
    24.2227  24.2230  24.6977  24.6979  25.1113  25.1119  25.8610  25.8612
    26.6009  26.6010  26.9587  26.9588  27.0322  27.0328  27.3299  27.3306
    27.5024  27.5031  28.6803  28.6804  29.0106  29.0107  29.5872  29.5874
    29.8716  29.8725  30.0108  30.0117  30.4407  30.4415  30.6365  30.6366
    31.2912  31.2919

          k = 0.0555 0.3889 0.3889 ( 33053 PWs)   bands (ev):

   -64.8782 -64.8711 -64.8710 -64.8648 -64.8544 -64.8508 -64.8507 -64.8499
   -64.8481 -64.8470 -64.8468 -64.8449 -64.8378 -64.8377 -64.8361 -64.8361
   -64.8359 -64.8358 -64.8340 -64.8339 -64.8334 -64.8333 -64.8308 -64.8306
   -64.8304 -64.8303 -64.8298 -64.8297 -64.8284 -64.8268 -64.8266 -64.8257
   -30.7422 -30.7422 -30.7194 -30.7194 -30.7187 -30.7186 -30.7161 -30.7154
   -30.7137 -30.7137 -30.7041 -30.7032 -30.7032 -30.7004 -30.7004 -30.6917
   -30.6916 -30.6855 -30.6854 -30.6844 -30.6844 -30.6828 -30.6828 -30.6707
   -30.6683 -30.6683 -30.6535 -30.6396 -30.6344 -30.6184 -30.6184 -30.5927
   -30.5848 -30.5848 -30.5727 -30.5726 -30.5661 -30.5584 -30.5584 -30.5529
   -30.5528 -30.5525 -30.5525 -30.5475 -30.5474 -30.5289 -30.5288 -30.5252
   -30.5252 -30.5244 -30.5244 -30.5224 -30.5213 -30.5212 -30.5188 -30.5187
   -30.5154 -30.5154 -30.5037 -30.5037 -30.5010 -30.5009 -30.4997 -30.4960
   -30.4960 -30.4857 -30.4857 -30.4833 -30.4833 -30.4832 -30.4831 -30.4805
   -30.4747 -30.4744 -30.4743 -30.4729 -30.4729 -30.4703 -30.4678 -30.4632
   -30.4631 -30.4603 -30.4589 -30.4588 -30.4586 -30.4561 -30.4546 -30.4478
   -30.4478 -30.4439 -30.4439 -30.4259 -30.4198 -30.4180 -30.4180 -30.4079
    13.1083  13.6564  13.6565  14.1286  14.3493  14.4428  14.4531  14.5042
    14.5043  14.5354  14.5355  14.5364  14.6522  14.6522  14.6781  14.6974
    14.6974  14.7115  14.7115  14.7132  14.7133  14.7381  14.7381  14.8580
    14.8580  14.8734  14.8887  14.9255  14.9256  15.0299  15.0300  15.0330
    15.0331  15.0574  15.0574  15.1025  15.1025  15.2373  15.2374  15.2499
    15.2499  15.2783  15.2783  15.5142  15.5143  15.5665  15.7540  15.7541
    15.7589  15.7590  15.8536  15.9201  15.9636  15.9636  15.9678  15.9678
    15.9807  16.1748  16.2803  16.2804  16.3321  16.4526  16.4647  16.4648
    16.5047  16.5047  16.5097  16.5098  16.5110  16.5111  16.5494  16.5495
    16.5733  16.5866  16.7366  16.7458  16.7582  16.7582  16.7623  16.7902
    16.8161  16.8235  16.8236  16.8404  16.8417  16.8417  16.9605  16.9606
    16.9719  16.9720  16.9743  16.9744  16.9869  16.9869  17.0900  17.0900
    17.0964  17.1145  17.1811  17.1811  17.1881  17.2529  17.2920  17.2921
    17.2969  17.3057  17.3058  17.3233  17.3234  17.3481  17.3482  17.5116
    17.6195  17.6196  17.6356  17.6356  17.7473  17.8099  17.8099  17.8372
    17.9961  18.1374  18.2365  18.2365  18.2813  18.2813  18.3672  18.3673
    18.4427  18.4428  18.4927  18.4928  18.5502  18.5503  18.5511  18.6560
    18.6560  18.7499  18.7752  18.7785  18.7786  18.7822  18.7823  18.7823
    18.7880  18.7880  18.8526  18.9217  18.9536  18.9536  18.9585  18.9585
    18.9671  19.0576  19.0576  19.0840  19.0840  19.0845  19.0845  19.0883
    19.1127  19.1128  19.1134  19.1136  19.2114  19.2895  19.4068  19.4831
    19.4832  19.9715  19.9716  20.0621  20.7566  20.7566  21.7978  21.7978
    22.1887  22.1887  22.9539  22.9540  23.3215  23.3215  23.3780  23.3781
    23.7961  23.7961  24.9691  24.9692  24.9895  25.7736  26.1768  26.1769
    26.3483  26.3484  26.5975  26.5976  26.7547  26.7547  27.1615  27.1615
    27.2639  27.2922  27.2925  28.5819  28.9633  29.5420  29.8667  29.8709
    29.8709  30.0055  30.4271  30.4272  30.5887  30.5887  31.0154  31.0155
    31.4365  31.4369

          k = 0.0555 0.3889-0.5000 ( 33062 PWs)   bands (ev):

   -64.8753 -64.8746 -64.8686 -64.8678 -64.8531 -64.8523 -64.8499 -64.8492
   -64.8489 -64.8481 -64.8464 -64.8456 -64.8373 -64.8365 -64.8353 -64.8349
   -64.8345 -64.8342 -64.8341 -64.8334 -64.8330 -64.8324 -64.8322 -64.8321
   -64.8317 -64.8314 -64.8306 -64.8298 -64.8278 -64.8270 -64.8266 -64.8258
   -30.7325 -30.7323 -30.7320 -30.7317 -30.7127 -30.7126 -30.7125 -30.7125
   -30.7082 -30.7075 -30.7053 -30.7045 -30.7009 -30.7002 -30.6999 -30.6995
   -30.6943 -30.6938 -30.6869 -30.6865 -30.6855 -30.6850 -30.6819 -30.6811
   -30.6686 -30.6682 -30.6518 -30.6514 -30.6302 -30.6301 -30.6054 -30.6053
   -30.5713 -30.5712 -30.5681 -30.5679 -30.5639 -30.5632 -30.5594 -30.5586
   -30.5448 -30.5447 -30.5402 -30.5394 -30.5393 -30.5385 -30.5376 -30.5375
   -30.5347 -30.5346 -30.5236 -30.5229 -30.5181 -30.5181 -30.5156 -30.5150
   -30.5097 -30.5091 -30.5069 -30.5068 -30.5016 -30.5015 -30.5000 -30.4994
   -30.4929 -30.4927 -30.4924 -30.4923 -30.4797 -30.4796 -30.4790 -30.4790
   -30.4789 -30.4783 -30.4751 -30.4748 -30.4660 -30.4653 -30.4647 -30.4643
   -30.4632 -30.4629 -30.4618 -30.4612 -30.4530 -30.4528 -30.4525 -30.4523
   -30.4515 -30.4508 -30.4345 -30.4337 -30.4175 -30.4174 -30.4117 -30.4116
    13.3594  13.3604  13.8740  13.8749  14.4268  14.4270  14.5286  14.5289
    14.5321  14.5322  14.5669  14.5672  14.6193  14.6201  14.6574  14.6575
    14.6701  14.6709  14.7862  14.7863  14.8078  14.8086  14.8526  14.8527
    14.8566  14.8568  14.8667  14.8674  14.9096  14.9102  14.9812  14.9820
    15.0478  15.0480  15.0701  15.0707  15.1407  15.1415  15.1489  15.1491
    15.1601  15.1602  15.3985  15.3986  15.6186  15.6193  15.6244  15.6252
    15.8490  15.8496  15.8562  15.8568  15.9564  15.9567  16.0868  16.0871
    16.0945  16.0948  16.2373  16.2373  16.3215  16.3221  16.4600  16.4605
    16.5065  16.5065  16.5251  16.5253  16.6342  16.6344  16.6690  16.6692
    16.7533  16.7538  16.8102  16.8103  16.8105  16.8108  16.8157  16.8157
    16.8175  16.8178  16.8404  16.8407  16.9059  16.9061  16.9277  16.9277
    16.9538  16.9539  17.0145  17.0147  17.0176  17.0179  17.0294  17.0298
    17.0313  17.0318  17.0654  17.0656  17.1490  17.1493  17.1552  17.1556
    17.1793  17.1795  17.3745  17.3748  17.4794  17.4798  17.4937  17.4941
    17.5268  17.5270  17.5571  17.5576  17.5701  17.5707  17.6744  17.6751
    18.1237  18.1244  18.2331  18.2337  18.3893  18.3898  18.4013  18.4020
    18.4144  18.4152  18.5307  18.5311  18.6308  18.6314  18.6667  18.6674
    18.6772  18.6774  18.7028  18.7035  18.8103  18.8104  18.8778  18.8784
    18.8835  18.8841  18.9447  18.9450  18.9719  18.9722  18.9885  18.9886
    19.0199  19.0202  19.0229  19.0232  19.0376  19.0378  19.0420  19.0422
    19.0950  19.0957  19.1204  19.1205  19.1515  19.1518  19.3948  19.3955
    19.5928  19.5930  19.9658  19.9664  21.2752  21.2755  21.4478  21.4484
    22.5336  22.5341  22.7507  22.7513  23.2458  23.2464  23.4802  23.4807
    24.1850  24.1851  24.4793  24.4794  25.5565  25.5572  26.3929  26.3930
    26.4502  26.4502  26.5196  26.5199  26.6194  26.6195  26.7425  26.7430
    26.8087  26.8093  27.9215  27.9216  29.6644  29.6645  29.8495  29.8503
    29.9206  29.9215  30.2523  30.2524  30.9896  30.9905  31.0961  31.0963
    31.1321  31.1322

          k = 0.0555-0.5000-0.5000 ( 33032 PWs)   bands (ev):

   -64.8724 -64.8721 -64.8717 -64.8713 -64.8518 -64.8515 -64.8510 -64.8507
   -64.8479 -64.8476 -64.8471 -64.8468 -64.8339 -64.8339 -64.8336 -64.8336
   -64.8336 -64.8335 -64.8334 -64.8333 -64.8332 -64.8331 -64.8328 -64.8328
   -64.8328 -64.8328 -64.8326 -64.8325 -64.8273 -64.8270 -64.8265 -64.8262
   -30.7240 -30.7240 -30.7239 -30.7239 -30.7238 -30.7237 -30.7237 -30.7237
   -30.6982 -30.6982 -30.6980 -30.6980 -30.6976 -30.6976 -30.6974 -30.6973
   -30.6946 -30.6943 -30.6939 -30.6935 -30.6847 -30.6845 -30.6843 -30.6841
   -30.6697 -30.6696 -30.6694 -30.6692 -30.6180 -30.6180 -30.6180 -30.6180
   -30.5520 -30.5520 -30.5520 -30.5520 -30.5520 -30.5520 -30.5520 -30.5520
   -30.5507 -30.5507 -30.5505 -30.5504 -30.5500 -30.5499 -30.5497 -30.5496
   -30.5225 -30.5225 -30.5225 -30.5225 -30.5128 -30.5127 -30.5126 -30.5125
   -30.5123 -30.5121 -30.5121 -30.5119 -30.5116 -30.5116 -30.5115 -30.5114
   -30.4869 -30.4868 -30.4867 -30.4866 -30.4863 -30.4863 -30.4861 -30.4860
   -30.4719 -30.4718 -30.4716 -30.4714 -30.4668 -30.4668 -30.4668 -30.4667
   -30.4583 -30.4582 -30.4582 -30.4582 -30.4567 -30.4565 -30.4563 -30.4562
   -30.4431 -30.4428 -30.4423 -30.4420 -30.4131 -30.4130 -30.4130 -30.4130
    13.5957  13.5963  13.5966  13.5973  14.4659  14.4660  14.4661  14.4663
    14.5827  14.5828  14.5828  14.5829  14.6601  14.6603  14.6603  14.6605
    14.7886  14.7887  14.7892  14.7892  14.7894  14.7895  14.7899  14.7900
    14.9575  14.9576  14.9580  14.9581  14.9582  14.9584  14.9588  14.9588
    14.9979  14.9980  14.9980  14.9980  14.9981  14.9981  14.9982  14.9982
    15.2186  15.2187  15.2188  15.2189  15.7278  15.7279  15.7283  15.7284
    15.7285  15.7286  15.7290  15.7290  16.0376  16.0379  16.0379  16.0380
    16.2787  16.2791  16.2794  16.2797  16.4693  16.4696  16.4699  16.4702
    16.5886  16.5887  16.5889  16.5890  16.6005  16.6006  16.6007  16.6009
    16.8219  16.8222  16.8223  16.8226  16.8538  16.8538  16.8539  16.8540
    16.8540  16.8540  16.8541  16.8542  16.9083  16.9084  16.9084  16.9087
    16.9168  16.9169  16.9171  16.9172  17.0239  17.0240  17.0243  17.0244
    17.1417  17.1417  17.1418  17.1420  17.1421  17.1422  17.1423  17.1424
    17.3014  17.3017  17.3017  17.3020  17.3164  17.3164  17.3166  17.3166
    17.3167  17.3168  17.3169  17.3169  17.6193  17.6195  17.6200  17.6202
    18.2694  18.2696  18.2701  18.2703  18.3568  18.3570  18.3573  18.3575
    18.5555  18.5556  18.5557  18.5558  18.5560  18.5562  18.5562  18.5563
    18.8753  18.8754  18.8757  18.8758  18.9014  18.9014  18.9015  18.9017
    18.9019  18.9021  18.9021  18.9022  19.0148  19.0149  19.0152  19.0153
    19.0486  19.0488  19.0488  19.0489  19.0490  19.0491  19.0491  19.0491
    19.0493  19.0493  19.0493  19.0493  19.1167  19.1169  19.1171  19.1173
    19.6998  19.7000  19.7002  19.7005  21.9881  21.9883  21.9884  21.9885
    21.9886  21.9887  21.9888  21.9890  23.9498  23.9499  23.9499  23.9500
    23.9501  23.9502  23.9503  23.9503  26.0837  26.0841  26.0844  26.0848
    26.4253  26.4254  26.4254  26.4255  26.4255  26.4256  26.4257  26.4257
    27.1969  27.1972  27.1973  27.1974  29.8687  29.8690  29.8696  29.8699
    30.3721  30.3722  30.3723  30.3723  30.9640  30.9641  30.9642  30.9642
    31.5412  31.5416

          k = 0.1665 0.0556 0.0556 ( 33013 PWs)   bands (ev):

   -64.8881 -64.8656 -64.8595 -64.8594 -64.8540 -64.8540 -64.8491 -64.8472
   -64.8471 -64.8441 -64.8437 -64.8436 -64.8420 -64.8412 -64.8412 -64.8410
   -64.8409 -64.8406 -64.8387 -64.8381 -64.8380 -64.8361 -64.8360 -64.8269
   -64.8260 -64.8260 -64.8259 -64.8257 -64.8254 -64.8253 -64.8252 -64.8249
   -30.7702 -30.7686 -30.7686 -30.7654 -30.7494 -30.7494 -30.7471 -30.6868
   -30.6816 -30.6816 -30.6767 -30.6766 -30.6757 -30.6757 -30.6755 -30.6755
   -30.6735 -30.6637 -30.6636 -30.6610 -30.6609 -30.6562 -30.6561 -30.6525
   -30.6524 -30.6415 -30.6415 -30.6354 -30.6353 -30.6276 -30.6213 -30.6213
   -30.6028 -30.6028 -30.5888 -30.5888 -30.5736 -30.5736 -30.5729 -30.5729
   -30.5615 -30.5474 -30.5474 -30.5459 -30.5458 -30.5430 -30.5430 -30.5418
   -30.5418 -30.5396 -30.5395 -30.5392 -30.5377 -30.5372 -30.5370 -30.5369
   -30.5365 -30.5364 -30.5332 -30.5284 -30.5284 -30.4889 -30.4884 -30.4799
   -30.4799 -30.4737 -30.4737 -30.4686 -30.4686 -30.4674 -30.4674 -30.4653
   -30.4652 -30.4629 -30.4610 -30.4609 -30.4605 -30.4605 -30.4604 -30.4565
   -30.4562 -30.4557 -30.4557 -30.4554 -30.4553 -30.4532 -30.4531 -30.4530
   -30.4522 -30.4519 -30.4487 -30.4443 -30.4442 -30.4096 -30.4029 -30.4021
    12.3523  14.0068  14.0704  14.0824  14.0824  14.1322  14.1595  14.1596
    14.1730  14.3387  14.3532  14.3532  14.3595  14.3596  14.5552  14.5553
    14.5702  14.9608  14.9609  15.0224  15.0839  15.0840  15.0908  15.0909
    15.1196  15.2004  15.2004  15.2291  15.2291  15.2397  15.2465  15.2466
    15.3931  15.3932  15.4114  15.4115  15.4237  15.4238  15.4603  15.4603
    15.5066  15.5067  15.5750  15.7633  15.7633  15.7818  15.7818  15.8275
    15.8276  15.8370  15.8371  15.8958  15.8959  15.9837  15.9838  15.9967
    16.0424  16.0424  16.0894  16.0960  16.0961  16.1011  16.1011  16.1392
    16.1393  16.1832  16.1832  16.2129  16.2129  16.3712  16.3914  16.3914
    16.3943  16.3944  16.4146  16.4146  16.4243  16.4331  16.4606  16.4628
    16.4702  16.4843  16.4843  16.4942  16.5154  16.5188  16.5219  16.5219
    17.0915  17.0916  17.2024  17.2055  17.2275  17.2276  17.2820  17.2821
    17.2996  17.3461  17.3647  17.3647  17.4834  17.4952  17.4953  17.5083
    17.5084  17.5466  17.5467  17.5548  17.5549  17.7682  17.7683  17.7855
    17.7942  17.7943  17.8617  17.8618  17.9418  17.9419  17.9509  17.9510
    17.9512  17.9512  17.9678  18.0314  18.0324  18.0411  18.0412  18.0705
    18.1596  18.1597  18.1688  18.1689  18.2034  18.2035  18.2599  18.2760
    18.2760  18.3074  18.4205  18.5607  18.5608  18.6880  18.6896  18.6896
    18.7218  18.7384  18.7384  18.9530  19.0625  19.0625  19.0829  19.1014
    19.1424  19.1438  19.1438  19.1688  19.1688  19.3312  19.3827  19.3827
    19.3837  19.3837  19.3970  19.4575  19.4575  19.4583  19.4583  20.1168
    20.4887  20.4887  20.6015  20.6016  20.8319  20.9280  20.9723  20.9723
    21.4446  21.4446  21.9779  22.0288  22.0289  22.2030  22.5697  22.5698
    22.8707  22.8707  26.3240  26.4837  26.4838  26.7590  26.7591  26.7601
    26.7601  26.7785  27.3523  27.3523  27.6156  27.6157  28.3000  28.3002
    28.8070  28.8070  29.6333  29.6334  29.7348  29.7370  29.7370  29.8915
    29.8916  29.9665  29.9665  30.1802  30.1802  30.1825  30.2783  30.2783
    30.7304  30.8279

          k = 0.1665 0.0556 0.1667 ( 33023 PWs)   bands (ev):

   -64.8871 -64.8649 -64.8648 -64.8590 -64.8536 -64.8506 -64.8487 -64.8486
   -64.8470 -64.8470 -64.8437 -64.8435 -64.8430 -64.8415 -64.8404 -64.8403
   -64.8400 -64.8399 -64.8382 -64.8381 -64.8363 -64.8362 -64.8340 -64.8269
   -64.8265 -64.8263 -64.8261 -64.8260 -64.8259 -64.8258 -64.8256 -64.8250
   -30.7675 -30.7675 -30.7629 -30.7582 -30.7463 -30.7446 -30.7444 -30.6894
   -30.6890 -30.6869 -30.6864 -30.6774 -30.6769 -30.6756 -30.6741 -30.6736
   -30.6732 -30.6729 -30.6724 -30.6723 -30.6646 -30.6644 -30.6630 -30.6625
   -30.6390 -30.6326 -30.6325 -30.6311 -30.6308 -30.6265 -30.6260 -30.6184
   -30.6178 -30.6079 -30.6043 -30.5801 -30.5754 -30.5753 -30.5615 -30.5614
   -30.5574 -30.5572 -30.5516 -30.5447 -30.5446 -30.5436 -30.5429 -30.5377
   -30.5375 -30.5372 -30.5371 -30.5368 -30.5357 -30.5355 -30.5337 -30.5335
   -30.5320 -30.5319 -30.5197 -30.5196 -30.5141 -30.4922 -30.4916 -30.4863
   -30.4862 -30.4772 -30.4756 -30.4740 -30.4683 -30.4681 -30.4679 -30.4677
   -30.4650 -30.4647 -30.4641 -30.4640 -30.4637 -30.4631 -30.4595 -30.4585
   -30.4584 -30.4575 -30.4550 -30.4547 -30.4543 -30.4533 -30.4531 -30.4530
   -30.4485 -30.4484 -30.4446 -30.4444 -30.4377 -30.4176 -30.4049 -30.4021
    12.4248  14.0594  14.0618  14.1170  14.1170  14.1241  14.1450  14.1862
    14.2261  14.2261  14.3805  14.3806  14.3984  14.4001  14.5935  14.6226
    14.6248  14.9833  14.9853  15.0034  15.0059  15.0324  15.0325  15.0524
    15.0546  15.0763  15.1249  15.1249  15.1456  15.1458  15.2668  15.2719
    15.2726  15.2806  15.2812  15.3324  15.4432  15.4720  15.4724  15.4771
    15.4781  15.5078  15.5081  15.5926  15.5965  15.7387  15.7404  15.8234
    15.8237  15.8342  15.9273  15.9287  15.9425  15.9436  16.0034  16.0046
    16.0150  16.0739  16.0773  16.0833  16.0863  16.1377  16.1398  16.2373
    16.2847  16.2854  16.3275  16.3297  16.3375  16.3378  16.3862  16.4074
    16.4437  16.4439  16.4467  16.4486  16.4488  16.4649  16.4667  16.4824
    16.5144  16.5159  16.5162  16.5169  16.5274  16.5401  16.5424  16.5476
    16.9909  17.0468  17.0500  17.1001  17.2038  17.2070  17.3120  17.3321
    17.3330  17.3358  17.3366  17.3915  17.3936  17.4147  17.4169  17.4698
    17.4750  17.4784  17.5575  17.6295  17.6398  17.6404  17.6590  17.6595
    17.6820  17.9373  17.9375  17.9539  17.9555  17.9583  18.0206  18.0285
    18.0293  18.0449  18.0460  18.0476  18.0546  18.0550  18.1359  18.1370
    18.1640  18.1642  18.3433  18.3446  18.3839  18.3954  18.3967  18.3987
    18.4396  18.4404  18.4450  18.4483  18.5032  18.5041  18.5350  18.5763
    18.6994  18.8064  18.8589  18.8598  18.9930  18.9937  18.9939  19.0119
    19.1097  19.1391  19.1395  19.1556  19.1567  19.1688  19.3248  19.3250
    19.3818  19.3848  19.3860  19.3885  19.3956  19.3979  19.4186  19.8361
    20.0575  20.4571  20.4607  20.5007  20.9485  20.9529  21.1272  21.1274
    21.5194  21.5204  22.0161  22.0228  22.4935  22.5071  22.5576  22.5648
    23.1328  23.1538  26.1335  26.1412  26.3218  26.3222  26.7846  26.8475
    26.8604  26.8962  26.9023  27.1849  27.4813  27.4943  27.9190  27.9257
    28.9345  28.9419  29.2151  29.2264  29.6184  29.7183  29.7540  29.7653
    29.8529  29.8536  30.0748  30.0810  30.1728  30.1951  30.5638  30.5695
    30.8510  30.8656

          k = 0.1665 0.0556 0.2778 ( 33012 PWs)   bands (ev):

   -64.8852 -64.8700 -64.8637 -64.8580 -64.8539 -64.8527 -64.8497 -64.8480
   -64.8467 -64.8458 -64.8439 -64.8435 -64.8434 -64.8422 -64.8419 -64.8397
   -64.8392 -64.8383 -64.8369 -64.8365 -64.8355 -64.8340 -64.8321 -64.8282
   -64.8273 -64.8272 -64.8271 -64.8268 -64.8263 -64.8261 -64.8257 -64.8250
   -30.7621 -30.7607 -30.7534 -30.7471 -30.7400 -30.7387 -30.7352 -30.7063
   -30.7027 -30.6926 -30.6898 -30.6894 -30.6894 -30.6894 -30.6800 -30.6787
   -30.6785 -30.6731 -30.6724 -30.6702 -30.6687 -30.6670 -30.6645 -30.6578
   -30.6503 -30.6368 -30.6343 -30.6276 -30.6237 -30.6225 -30.6189 -30.6170
   -30.6128 -30.6101 -30.6007 -30.5915 -30.5884 -30.5751 -30.5712 -30.5596
   -30.5572 -30.5556 -30.5494 -30.5440 -30.5421 -30.5392 -30.5377 -30.5370
   -30.5356 -30.5351 -30.5332 -30.5285 -30.5254 -30.5238 -30.5230 -30.5203
   -30.5190 -30.5168 -30.5064 -30.5059 -30.5040 -30.5003 -30.4982 -30.4972
   -30.4823 -30.4815 -30.4812 -30.4797 -30.4771 -30.4770 -30.4765 -30.4756
   -30.4710 -30.4681 -30.4673 -30.4650 -30.4649 -30.4645 -30.4609 -30.4602
   -30.4598 -30.4579 -30.4578 -30.4570 -30.4537 -30.4530 -30.4515 -30.4454
   -30.4434 -30.4429 -30.4426 -30.4366 -30.4339 -30.4300 -30.4091 -30.4043
    12.5680  13.7151  14.1615  14.1838  14.1982  14.2056  14.2078  14.2528
    14.3181  14.3305  14.4348  14.4638  14.4768  14.4880  14.5921  14.6652
    14.7245  14.8015  14.8259  14.8567  14.8857  14.8923  14.9010  14.9336
    15.0232  15.0364  15.0593  15.0700  15.0869  15.1124  15.1878  15.1963
    15.2048  15.2217  15.2525  15.3025  15.3433  15.3638  15.3942  15.4947
    15.5070  15.5184  15.5602  15.6260  15.6667  15.6834  15.6899  15.7784
    15.7852  15.7961  15.8124  15.8273  15.8763  15.9389  15.9489  15.9925
    15.9957  16.0065  16.0931  16.1454  16.1903  16.1908  16.2427  16.2535
    16.2679  16.2716  16.2858  16.3113  16.3446  16.3649  16.3678  16.3997
    16.4261  16.4471  16.5022  16.5290  16.5561  16.5743  16.5760  16.5802
    16.6066  16.6233  16.6273  16.6389  16.6556  16.7576  16.8380  16.8665
    16.8906  16.9002  16.9252  17.0156  17.0323  17.1295  17.1413  17.1559
    17.2270  17.2444  17.2584  17.3321  17.3349  17.4118  17.4171  17.5228
    17.5368  17.5577  17.5654  17.6158  17.6610  17.7446  17.7971  17.8007
    17.8180  17.8952  17.9057  17.9212  17.9528  18.0000  18.0356  18.0441
    18.0687  18.1134  18.1173  18.1591  18.1662  18.1773  18.1779  18.1882
    18.1969  18.2271  18.2998  18.3392  18.3615  18.3940  18.4242  18.4889
    18.4981  18.5264  18.5312  18.5349  18.5410  18.5606  18.5647  18.6513
    18.6613  18.6817  18.7754  18.8574  18.8872  18.9103  18.9872  19.0044
    19.0750  19.1149  19.1152  19.1185  19.2016  19.2166  19.2172  19.2222
    19.2532  19.2565  19.2911  19.3813  19.3860  19.3929  19.3964  19.6679
    19.8687  20.0316  20.3935  20.4920  20.5283  20.9002  21.0315  21.4158
    21.6141  21.9010  21.9851  22.1423  22.5223  22.6719  22.9717  23.2154
    23.5859  23.7924  25.3079  25.4863  25.9582  26.1878  26.3245  26.4648
    26.4953  26.9727  27.1622  27.1843  27.2133  27.6904  27.6921  28.3381
    28.4486  28.7190  28.8693  29.0520  29.1671  29.2563  29.4974  29.6746
    29.8524  29.9513  29.9747  30.1522  30.2205  30.4510  30.5448  30.5651
    30.7879  30.8723

          k = 0.1665 0.0556 0.3889 ( 33032 PWs)   bands (ev):

   -64.8825 -64.8747 -64.8620 -64.8570 -64.8565 -64.8523 -64.8515 -64.8480
   -64.8470 -64.8463 -64.8447 -64.8439 -64.8433 -64.8423 -64.8394 -64.8387
   -64.8385 -64.8384 -64.8369 -64.8338 -64.8330 -64.8319 -64.8309 -64.8303
   -64.8288 -64.8288 -64.8284 -64.8273 -64.8268 -64.8261 -64.8257 -64.8250
   -30.7528 -30.7502 -30.7405 -30.7328 -30.7310 -30.7305 -30.7239 -30.7216
   -30.7201 -30.7074 -30.7070 -30.7055 -30.6973 -30.6890 -30.6871 -30.6823
   -30.6822 -30.6818 -30.6805 -30.6767 -30.6676 -30.6636 -30.6602 -30.6532
   -30.6444 -30.6411 -30.6361 -30.6317 -30.6286 -30.6204 -30.6118 -30.6071
   -30.6056 -30.6050 -30.6006 -30.5950 -30.5881 -30.5848 -30.5839 -30.5729
   -30.5696 -30.5588 -30.5377 -30.5371 -30.5349 -30.5345 -30.5343 -30.5328
   -30.5281 -30.5270 -30.5249 -30.5170 -30.5150 -30.5136 -30.5129 -30.5118
   -30.5093 -30.5080 -30.5053 -30.5030 -30.4953 -30.4945 -30.4911 -30.4911
   -30.4906 -30.4904 -30.4901 -30.4882 -30.4878 -30.4877 -30.4876 -30.4770
   -30.4750 -30.4746 -30.4679 -30.4671 -30.4662 -30.4659 -30.4650 -30.4639
   -30.4629 -30.4617 -30.4560 -30.4552 -30.4543 -30.4517 -30.4496 -30.4466
   -30.4465 -30.4435 -30.4377 -30.4327 -30.4326 -30.4258 -30.4153 -30.4093
    12.7781  13.3668  14.2771  14.2918  14.3069  14.3237  14.3378  14.3589
    14.4476  14.4704  14.5009  14.5148  14.5809  14.5882  14.5959  14.6199
    14.6458  14.6781  14.6839  14.6850  14.7460  14.7609  14.8104  14.8213
    14.8420  14.8690  14.9561  14.9751  14.9924  15.0730  15.1854  15.2029
    15.2080  15.2275  15.2648  15.3201  15.3268  15.4506  15.4602  15.4822
    15.5112  15.5268  15.5882  15.6028  15.6207  15.6287  15.6303  15.6383
    15.6716  15.7169  15.7731  15.8045  15.8144  15.8723  15.9510  15.9740
    16.0064  16.0538  16.1604  16.1688  16.1981  16.2226  16.2413  16.2419
    16.2431  16.2455  16.2923  16.3316  16.3430  16.3490  16.3615  16.3839
    16.4325  16.4646  16.4781  16.6059  16.6121  16.6664  16.6721  16.6839
    16.6891  16.6932  16.7333  16.7435  16.7626  16.8268  16.8327  16.8407
    16.9221  16.9363  16.9502  17.0248  17.0544  17.0779  17.1168  17.1369
    17.2977  17.3091  17.3314  17.3493  17.3568  17.3814  17.4780  17.5708
    17.5715  17.5903  17.6530  17.7015  17.7511  17.7650  17.7754  17.7757
    17.7938  17.8017  17.8499  17.8816  17.9214  17.9447  17.9505  17.9559
[...]
    23.5417  23.5418  24.2602  24.2604  24.4065  24.4067  25.0349  25.0350
    26.5980  26.5981  26.7584  26.7585  26.9523  26.9524  27.4851  27.4852
    27.7649  27.7651  28.2605  28.2605  28.5620  28.5621  29.1684  29.1686
    29.3797  29.3797  29.9954  29.9955  30.2784  30.2784  30.4842  30.4845
    31.3760  31.3761

          k =-0.4996 0.2778-0.5000 ( 33024 PWs)   bands (ev):

   -64.8703 -64.8701 -64.8696 -64.8694 -64.8593 -64.8591 -64.8586 -64.8584
   -64.8402 -64.8400 -64.8394 -64.8392 -64.8341 -64.8339 -64.8338 -64.8337
   -64.8336 -64.8335 -64.8334 -64.8333 -64.8333 -64.8331 -64.8330 -64.8329
   -64.8328 -64.8327 -64.8326 -64.8325 -64.8291 -64.8290 -64.8284 -64.8282
   -30.7198 -30.7197 -30.7197 -30.7197 -30.7196 -30.7196 -30.7193 -30.7193
   -30.7054 -30.7053 -30.7051 -30.7050 -30.7049 -30.7048 -30.7045 -30.7043
   -30.7029 -30.7028 -30.7026 -30.7025 -30.7025 -30.7023 -30.7020 -30.7019
   -30.6324 -30.6323 -30.6320 -30.6319 -30.5925 -30.5925 -30.5923 -30.5923
   -30.5522 -30.5521 -30.5521 -30.5520 -30.5520 -30.5520 -30.5519 -30.5519
   -30.5518 -30.5516 -30.5515 -30.5513 -30.5512 -30.5511 -30.5509 -30.5508
   -30.5480 -30.5479 -30.5478 -30.5478 -30.5093 -30.5093 -30.5090 -30.5089
   -30.5079 -30.5079 -30.5079 -30.5078 -30.5071 -30.5070 -30.5065 -30.5064
   -30.5064 -30.5063 -30.5062 -30.5060 -30.4906 -30.4906 -30.4901 -30.4899
   -30.4899 -30.4898 -30.4898 -30.4896 -30.4837 -30.4837 -30.4837 -30.4837
   -30.4418 -30.4418 -30.4417 -30.4417 -30.4351 -30.4350 -30.4347 -30.4346
   -30.4334 -30.4333 -30.4328 -30.4326 -30.4176 -30.4176 -30.4176 -30.4176
    13.6978  13.6981  13.6986  13.6989  14.1896  14.1897  14.1901  14.1902
    14.7082  14.7083  14.7083  14.7083  14.7273  14.7274  14.7276  14.7276
    14.7277  14.7277  14.7284  14.7284  14.7344  14.7344  14.7345  14.7346
    14.8814  14.8814  14.8815  14.8816  14.8816  14.8819  14.8819  14.8820
    15.1949  15.1950  15.1956  15.1956  15.1958  15.1958  15.1960  15.1960
    15.3004  15.3005  15.3005  15.3006  15.7373  15.7377  15.7380  15.7380
    15.7383  15.7384  15.7386  15.7389  15.8662  15.8664  15.8668  15.8670
    16.1775  16.1777  16.1777  16.1778  16.5864  16.5865  16.5868  16.5869
    16.7207  16.7207  16.7207  16.7207  16.7238  16.7240  16.7243  16.7244
    16.7781  16.7782  16.7784  16.7785  16.7906  16.7907  16.7908  16.7910
    16.7914  16.7914  16.7915  16.7917  16.8011  16.8013  16.8015  16.8017
    16.8216  16.8217  16.8218  16.8220  17.0926  17.0927  17.0927  17.0929
    17.0950  17.0951  17.0956  17.0957  17.1768  17.1770  17.1771  17.1773
    17.3045  17.3046  17.3049  17.3050  17.4470  17.4471  17.4473  17.4474
    17.4484  17.4485  17.4487  17.4488  17.8220  17.8221  17.8226  17.8227
    18.0228  18.0229  18.0234  18.0235  18.0617  18.0618  18.0619  18.0621
    18.0631  18.0632  18.0638  18.0639  18.2776  18.2777  18.2780  18.2781
    18.3328  18.3328  18.3331  18.3332  18.5365  18.5366  18.5370  18.5371
    19.1492  19.1492  19.1492  19.1493  19.1499  19.1500  19.1502  19.1503
    19.1698  19.1700  19.1700  19.1702  19.1915  19.1916  19.1920  19.1921
    19.1930  19.1931  19.1932  19.1933  19.2071  19.2071  19.2074  19.2075
    21.1358  21.1360  21.1364  21.1365  22.2584  22.2585  22.2589  22.2590
    22.2644  22.2646  22.2648  22.2651  23.4894  23.4894  23.4900  23.4901
    23.4960  23.4962  23.4962  23.4964  24.6533  24.6535  24.6540  24.6542
    27.0798  27.0799  27.0804  27.0805  27.0869  27.0871  27.0871  27.0872
    27.5507  27.5509  27.5510  27.5511  29.2454  29.2455  29.2456  29.2456
    29.7970  29.7970  29.7978  29.7979  29.8046  29.8047  29.8049  29.8050
    31.4765  31.4770

          k =-0.4996 0.3889 0.3889 ( 33024 PWs)   bands (ev):

   -64.8707 -64.8706 -64.8647 -64.8647 -64.8645 -64.8645 -64.8596 -64.8594
   -64.8368 -64.8367 -64.8366 -64.8365 -64.8360 -64.8360 -64.8358 -64.8357
   -64.8340 -64.8338 -64.8337 -64.8336 -64.8331 -64.8329 -64.8328 -64.8327
   -64.8312 -64.8310 -64.8310 -64.8308 -64.8305 -64.8304 -64.8302 -64.8301
   -30.7220 -30.7220 -30.7178 -30.7178 -30.7176 -30.7176 -30.7105 -30.7104
   -30.7104 -30.7103 -30.7089 -30.7089 -30.7088 -30.7087 -30.7085 -30.7084
   -30.7083 -30.7083 -30.7045 -30.7043 -30.7021 -30.7020 -30.7019 -30.7019
   -30.6322 -30.6321 -30.5897 -30.5897 -30.5897 -30.5897 -30.5746 -30.5746
   -30.5745 -30.5745 -30.5702 -30.5701 -30.5701 -30.5700 -30.5559 -30.5559
   -30.5558 -30.5558 -30.5482 -30.5482 -30.5476 -30.5475 -30.5462 -30.5462
   -30.5323 -30.5323 -30.5322 -30.5322 -30.5297 -30.5297 -30.5297 -30.5297
   -30.5089 -30.5089 -30.5088 -30.5087 -30.5059 -30.5057 -30.4991 -30.4991
   -30.4991 -30.4990 -30.4986 -30.4986 -30.4984 -30.4984 -30.4948 -30.4948
   -30.4948 -30.4948 -30.4882 -30.4880 -30.4873 -30.4872 -30.4872 -30.4872
   -30.4386 -30.4385 -30.4362 -30.4362 -30.4361 -30.4360 -30.4313 -30.4312
   -30.4255 -30.4255 -30.4255 -30.4255 -30.4246 -30.4244 -30.4201 -30.4201
    13.6304  13.6307  13.9799  13.9799  13.9801  13.9802  14.1282  14.1284
    14.6608  14.6611  14.6831  14.6831  14.6831  14.6832  14.7656  14.7656
    14.7657  14.7657  14.7773  14.7773  14.7774  14.7775  14.8153  14.8155
    14.8245  14.8245  14.8246  14.8246  14.8287  14.8288  14.8290  14.8291
    15.1787  15.1791  15.2266  15.2266  15.2267  15.2267  15.5154  15.5154
    15.5155  15.5155  15.5221  15.5222  15.5225  15.5226  15.5424  15.5425
    15.5426  15.5426  15.7636  15.7639  15.8043  15.8044  15.8046  15.8046
    16.2439  16.2441  16.3371  16.3372  16.3373  16.3373  16.6762  16.6763
    16.7228  16.7228  16.7736  16.7736  16.7736  16.7737  16.7752  16.7754
    16.7878  16.7880  16.8001  16.8002  16.8002  16.8003  16.8017  16.8017
    16.8018  16.8018  16.8054  16.8055  16.8090  16.8090  16.8091  16.8091
    16.8588  16.8588  16.8588  16.8589  16.8841  16.8842  16.9012  16.9013
    16.9014  16.9015  17.2069  17.2070  17.2071  17.2071  17.2544  17.2545
    17.3623  17.3623  17.3624  17.3625  17.3836  17.3836  17.6467  17.6468
    17.6468  17.6469  17.7158  17.7159  17.7159  17.7160  17.7403  17.7403
    17.7404  17.7404  17.9436  17.9437  17.9614  17.9615  18.0159  18.0160
    18.0160  18.0161  18.0165  18.0166  18.0166  18.0167  18.1341  18.1343
    18.2396  18.2396  18.3807  18.3807  18.3808  18.3808  18.4883  18.4885
    19.1718  19.1718  19.1719  19.1719  19.1886  19.1887  19.1931  19.1931
    19.1932  19.1932  19.2199  19.2199  19.2200  19.2200  19.2218  19.2218
    19.2219  19.2219  19.2539  19.2540  19.2541  19.2541  19.2769  19.2769
    21.6864  21.6865  21.6866  21.6866  22.1298  22.1299  22.2724  22.2725
    22.2726  22.2727  22.9357  22.9358  22.9358  22.9359  23.3788  23.3789
    23.3932  23.3933  23.3935  23.3935  24.0976  24.0977  24.0978  24.0979
    27.0347  27.0349  27.2486  27.2487  27.2487  27.2488  28.0680  28.0681
    28.0683  28.0684  28.3535  28.3536  28.3537  28.3538  28.5883  28.5884
    28.5885  28.5886  29.4729  29.4729  29.4730  29.4730  29.7182  29.7185
    32.1508  32.1508

          k =-0.4996 0.3889-0.5000 ( 33028 PWs)   bands (ev):

   -64.8684 -64.8682 -64.8676 -64.8674 -64.8628 -64.8626 -64.8620 -64.8618
   -64.8368 -64.8366 -64.8360 -64.8358 -64.8340 -64.8339 -64.8338 -64.8337
   -64.8336 -64.8335 -64.8334 -64.8333 -64.8333 -64.8331 -64.8330 -64.8329
   -64.8328 -64.8327 -64.8326 -64.8325 -64.8311 -64.8309 -64.8303 -64.8301
   -30.7160 -30.7159 -30.7158 -30.7158 -30.7158 -30.7157 -30.7154 -30.7154
   -30.7103 -30.7102 -30.7099 -30.7098 -30.7097 -30.7097 -30.7093 -30.7091
   -30.7070 -30.7069 -30.7067 -30.7067 -30.7067 -30.7065 -30.7062 -30.7061
   -30.6111 -30.6110 -30.6108 -30.6107 -30.5731 -30.5731 -30.5729 -30.5729
   -30.5677 -30.5677 -30.5675 -30.5674 -30.5523 -30.5522 -30.5521 -30.5521
   -30.5520 -30.5520 -30.5519 -30.5519 -30.5519 -30.5518 -30.5518 -30.5517
   -30.5515 -30.5515 -30.5514 -30.5513 -30.5305 -30.5304 -30.5302 -30.5301
   -30.5035 -30.5035 -30.5035 -30.5035 -30.5029 -30.5028 -30.5022 -30.5021
   -30.5021 -30.5020 -30.5020 -30.5019 -30.4941 -30.4941 -30.4934 -30.4933
   -30.4933 -30.4933 -30.4933 -30.4931 -30.4912 -30.4912 -30.4912 -30.4912
   -30.4342 -30.4342 -30.4342 -30.4342 -30.4297 -30.4295 -30.4292 -30.4292
   -30.4291 -30.4291 -30.4287 -30.4285 -30.4220 -30.4220 -30.4220 -30.4220
    13.7939  13.7942  13.7947  13.7950  14.0470  14.0472  14.0476  14.0478
    14.7311  14.7311  14.7314  14.7314  14.7315  14.7315  14.7322  14.7322
    14.7401  14.7401  14.7401  14.7401  14.7622  14.7623  14.7624  14.7624
    14.8135  14.8137  14.8137  14.8138  14.8138  14.8140  14.8143  14.8144
    15.3540  15.3541  15.3548  15.3549  15.3549  15.3550  15.3552  15.3554
    15.3906  15.3907  15.3908  15.3909  15.6563  15.6565  15.6565  15.6569
    15.6570  15.6571  15.6572  15.6574  15.6776  15.6778  15.6781  15.6782
    16.3063  16.3065  16.3065  16.3065  16.5534  16.5535  16.5536  16.5537
    16.7440  16.7440  16.7441  16.7441  16.7536  16.7537  16.7541  16.7542
    16.7766  16.7767  16.7768  16.7770  16.7818  16.7819  16.7819  16.7821
    16.8226  16.8227  16.8227  16.8228  16.8418  16.8419  16.8421  16.8422
    16.8444  16.8445  16.8448  16.8449  17.0308  17.0309  17.0309  17.0311
    17.0342  17.0343  17.0347  17.0349  17.0657  17.0659  17.0660  17.0661
    17.4755  17.4756  17.4759  17.4760  17.5366  17.5367  17.5369  17.5369
    17.5392  17.5393  17.5395  17.5396  17.8332  17.8333  17.8334  17.8335
    17.8358  17.8359  17.8364  17.8364  17.8443  17.8445  17.8448  17.8449
    17.9842  17.9843  17.9847  17.9849  18.1824  18.1824  18.1827  18.1828
    18.2135  18.2136  18.2140  18.2141  18.3507  18.3508  18.3512  18.3513
    19.2134  19.2135  19.2136  19.2136  19.2144  19.2145  19.2147  19.2148
    19.2269  19.2270  19.2271  19.2272  19.2501  19.2502  19.2505  19.2505
    19.2525  19.2526  19.2529  19.2530  19.2539  19.2540  19.2541  19.2542
    21.9577  21.9579  21.9583  21.9585  22.5161  22.5162  22.5166  22.5168
    22.5226  22.5228  22.5231  22.5232  23.1598  23.1598  23.1604  23.1605
    23.1668  23.1670  23.1672  23.1673  23.7410  23.7412  23.7417  23.7419
    27.6254  27.6255  27.6261  27.6262  27.6332  27.6334  27.6334  27.6336
    27.8713  27.8715  27.8716  27.8716  28.7332  28.7333  28.7335  28.7335
    28.9980  28.9980  28.9988  28.9988  29.0058  29.0059  29.0060  29.0061
    32.5462  32.5468

          k =-0.4996-0.5000-0.5000 ( 32968 PWs)   bands (ev):

   -64.8660 -64.8657 -64.8656 -64.8655 -64.8652 -64.8650 -64.8649 -64.8647
   -64.8343 -64.8341 -64.8340 -64.8339 -64.8339 -64.8337 -64.8336 -64.8335
   -64.8335 -64.8334 -64.8334 -64.8333 -64.8332 -64.8331 -64.8331 -64.8330
   -64.8329 -64.8329 -64.8328 -64.8327 -64.8327 -64.8325 -64.8324 -64.8322
   -30.7119 -30.7119 -30.7118 -30.7118 -30.7117 -30.7116 -30.7115 -30.7115
   -30.7114 -30.7113 -30.7113 -30.7113 -30.7113 -30.7112 -30.7112 -30.7111
   -30.7111 -30.7110 -30.7109 -30.7109 -30.7106 -30.7106 -30.7105 -30.7105
   -30.5893 -30.5892 -30.5892 -30.5891 -30.5890 -30.5889 -30.5889 -30.5888
   -30.5523 -30.5522 -30.5522 -30.5521 -30.5521 -30.5520 -30.5520 -30.5520
   -30.5519 -30.5519 -30.5519 -30.5519 -30.5519 -30.5518 -30.5518 -30.5518
   -30.5518 -30.5518 -30.5517 -30.5517 -30.5517 -30.5516 -30.5516 -30.5515
   -30.4983 -30.4983 -30.4983 -30.4983 -30.4981 -30.4981 -30.4981 -30.4981
   -30.4979 -30.4978 -30.4978 -30.4978 -30.4976 -30.4975 -30.4975 -30.4975
   -30.4975 -30.4974 -30.4974 -30.4974 -30.4973 -30.4973 -30.4973 -30.4972
   -30.4280 -30.4280 -30.4279 -30.4279 -30.4277 -30.4277 -30.4275 -30.4274
   -30.4274 -30.4273 -30.4273 -30.4272 -30.4271 -30.4271 -30.4271 -30.4271
    13.9124  13.9127  13.9129  13.9131  13.9131  13.9134  13.9136  13.9138
    14.7609  14.7610  14.7611  14.7611  14.7612  14.7612  14.7613  14.7613
    14.7613  14.7613  14.7614  14.7614  14.7615  14.7615  14.7616  14.7616
    14.7618  14.7619  14.7619  14.7620  14.7620  14.7620  14.7621  14.7621
    15.5165  15.5165  15.5167  15.5168  15.5168  15.5169  15.5169  15.5171
    15.5172  15.5173  15.5173  15.5173  15.5174  15.5175  15.5176  15.5176
    15.5176  15.5176  15.5177  15.5177  15.5179  15.5179  15.5180  15.5182
    16.4475  16.4477  16.4477  16.4477  16.4477  16.4478  16.4478  16.4478
    16.7525  16.7526  16.7526  16.7527  16.7527  16.7528  16.7528  16.7529
    16.7591  16.7592  16.7593  16.7593  16.7594  16.7595  16.7595  16.7596
    16.9385  16.9387  16.9387  16.9388  16.9388  16.9389  16.9389  16.9391
    16.9421  16.9423  16.9423  16.9424  16.9424  16.9425  16.9425  16.9425
    16.9426  16.9426  16.9427  16.9427  16.9427  16.9428  16.9429  16.9430
    17.6579  17.6580  17.6581  17.6581  17.6582  17.6582  17.6582  17.6583
    17.6583  17.6584  17.6585  17.6585  17.6586  17.6586  17.6586  17.6587
    17.6613  17.6613  17.6614  17.6615  17.6617  17.6618  17.6619  17.6620
    18.1632  18.1634  18.1634  18.1635  18.1636  18.1638  18.1638  18.1640
    18.1654  18.1655  18.1656  18.1656  18.1659  18.1661  18.1661  18.1662
    19.2547  19.2547  19.2548  19.2549  19.2550  19.2550  19.2551  19.2552
    19.2560  19.2560  19.2561  19.2561  19.2561  19.2561  19.2561  19.2562
    19.2562  19.2563  19.2563  19.2564  19.2564  19.2564  19.2564  19.2564
    22.8250  22.8252  22.8254  22.8255  22.8257  22.8258  22.8261  22.8261
    22.8319  22.8320  22.8321  22.8322  22.8323  22.8323  22.8324  22.8324
    22.8326  22.8326  22.8327  22.8327  22.8328  22.8329  22.8329  22.8330
    28.2699  28.2700  28.2701  28.2701  28.2702  28.2703  28.2704  28.2705
    28.2705  28.2706  28.2707  28.2708  28.2709  28.2710  28.2710  28.2710
    28.2779  28.2781  28.2781  28.2782  28.2783  28.2783  28.2784  28.2785
    33.5022  33.5023

     the Fermi energy is    19.2769 ev

!    total energy              =  -16384.95843293 Ry
     Harris-Foulkes estimate   =  -16384.95842179 Ry
     estimated scf accuracy    <       0.00000049 Ry

     total all-electron energy =   -322945.812140 Ry

     The total energy is the sum of the following terms:

     one-electron contribution =   -2487.25909171 Ry
     hartree contribution      =    1661.12094712 Ry
     xc contribution           =    -986.50718014 Ry
     ewald contribution        =   -6404.92051140 Ry
     one-center paw contrib.   =   -8167.42572340 Ry
     smearing contrib. (-TS)   =       0.03312660 Ry

     convergence has been achieved in  11 iterations

     Forces acting on atoms (cartesian axes, Ry/au):

     atom    1 type  1   force =     0.00000000    0.00000000    0.00000000
     atom    2 type  1   force =     0.00000464    0.00007585   -0.00000000
     atom    3 type  1   force =     0.00000464   -0.00000000    0.00007585
     atom    4 type  1   force =     0.00000000    0.00005432    0.00005432
     atom    5 type  1   force =     0.00000000    0.00000000    0.00000000
     atom    6 type  1   force =     0.00006086    0.00010201    0.00000000
     atom    7 type  1   force =     0.00000464    0.00000000   -0.00007585
     atom    8 type  1   force =     0.00000000    0.00005432   -0.00005432
     atom    9 type  1   force =     0.00000000    0.00000000    0.00000000
     atom   10 type  1   force =     0.00000464   -0.00007585    0.00000000
     atom   11 type  1   force =     0.00006086    0.00000000    0.00010201
     atom   12 type  1   force =     0.00000000   -0.00005432    0.00005432
     atom   13 type  1   force =     0.00000000    0.00000000    0.00000000
     atom   14 type  1   force =     0.00006086   -0.00010201   -0.00000000
     atom   15 type  1   force =     0.00006086    0.00000000   -0.00010201
     atom   16 type  1   force =     0.00000000   -0.00005432   -0.00005432
     atom   17 type  1   force =     0.00000000    0.00000000    0.00000000
     atom   18 type  1   force =    -0.00000464    0.00007585   -0.00000000
     atom   19 type  1   force =    -0.00000464    0.00000000    0.00007585
     atom   20 type  1   force =     0.00000000    0.00013542    0.00013542
     atom   21 type  1   force =     0.00000000    0.00000000    0.00000000
     atom   22 type  1   force =    -0.00006086    0.00010201   -0.00000000
     atom   23 type  1   force =    -0.00000464    0.00000000   -0.00007585
     atom   24 type  1   force =     0.00000000    0.00013542   -0.00013542
     atom   25 type  1   force =     0.00000000    0.00000000   -0.00000000
     atom   26 type  1   force =    -0.00000464   -0.00007585   -0.00000000
     atom   27 type  1   force =    -0.00006086    0.00000000    0.00010201
     atom   28 type  1   force =     0.00000000   -0.00013542    0.00013542
     atom   29 type  1   force =     0.00000000    0.00000000    0.00000000
     atom   30 type  1   force =    -0.00006086   -0.00010201    0.00000000
     atom   31 type  1   force =    -0.00006086    0.00000000   -0.00010201
     atom   32 type  1   force =     0.00000000   -0.00013542   -0.00013542

     Total force =     0.000574     Total SCF correction =     0.004842
     SCF correction compared to forces is large: reduce conv_thr to get better values


     Computing stress (Cartesian axis) and pressure

          total   stress  (Ry/bohr**3)                   (kbar)     P=   -0.21
  -0.00000442   0.00000000   0.00000000         -0.65      0.00      0.00
   0.00000000   0.00000011   0.00000000          0.00      0.02      0.00
   0.00000000   0.00000000   0.00000011          0.00      0.00      0.02


     Writing output data file BmmyuXiDymOFYKYw.save/
 
     init_run     :     39.94s CPU     43.46s WALL (       1 calls)
     electrons    :   1909.98s CPU   2014.98s WALL (       1 calls)
     forces       :     18.22s CPU     18.90s WALL (       1 calls)
     stress       :    178.32s CPU    179.01s WALL (       1 calls)

     Called by init_run:
     wfcinit      :     39.17s CPU     42.63s WALL (       1 calls)
     potinit      :      0.35s CPU      0.36s WALL (       1 calls)
     hinit0       :      0.23s CPU      0.24s WALL (       1 calls)

     Called by electrons:
     c_bands      :   1735.52s CPU   1821.08s WALL (      12 calls)
     sum_band     :    170.48s CPU    189.51s WALL (      12 calls)
     v_of_rho     :      0.35s CPU      0.36s WALL (      12 calls)
     newd         :      0.81s CPU      1.07s WALL (      12 calls)
     PAW_pot      :      3.03s CPU      3.09s WALL (      12 calls)
     mix_rho      :      0.07s CPU      0.10s WALL (      12 calls)

     Called by c_bands:
     init_us_2    :     10.30s CPU     10.34s WALL (    2025 calls)
     cegterg      :   1677.98s CPU   1763.09s WALL (     900 calls)

     Called by sum_band:
     sum_band:bec :      1.31s CPU      1.33s WALL (     900 calls)
     addusdens    :      0.93s CPU      1.20s WALL (      12 calls)

     Called by *egterg:
     h_psi        :    688.37s CPU    766.31s WALL (    2591 calls)
     s_psi        :     83.96s CPU     84.19s WALL (    2591 calls)
     g_psi        :      2.27s CPU      2.28s WALL (    1616 calls)
     cdiaghg      :    639.12s CPU    640.80s WALL (    2441 calls)

     Called by h_psi:
     h_psi:pot    :    681.85s CPU    759.55s WALL (    2591 calls)
     h_psi:calbec :     87.84s CPU     92.09s WALL (    2591 calls)
     vloc_psi     :    510.25s CPU    583.33s WALL (    2591 calls)
     add_vuspsi   :     83.74s CPU     84.12s WALL (    2591 calls)

     General routines
     calbec       :    146.32s CPU    153.29s WALL (    3866 calls)
     fft          :      0.32s CPU      0.36s WALL (     181 calls)
     ffts         :      0.02s CPU      0.03s WALL (      24 calls)
     fftw         :    590.90s CPU    675.45s WALL ( 1706482 calls)
     interpolate  :      0.04s CPU      0.04s WALL (      12 calls)
 
     Parallel routines
     fft_scatt_xy :     49.20s CPU     55.23s WALL ( 1706687 calls)
     fft_scatt_yz :    382.33s CPU    441.66s WALL ( 1706687 calls)
 
     PWSCF        : 35m53.25s CPU    39m14.79s WALL

 
   This run was terminated on:  10:38:30  11Nov2020            

=------------------------------------------------------------------------------=
   JOB DONE.
=------------------------------------------------------------------------------=
