--------------------------------------------------------------------------
WARNING: No preset parameters were found for the device that Open MPI
detected:

  Local host:            bear-pg0206u14b
  Device name:           mlx5_0
  Device vendor ID:      0x02c9
  Device vendor part ID: 4123

Default device parameters will be used, which may result in lower
performance.  You can edit any of the files specified by the
btl_openib_device_param_files MCA parameter to set values for your
device.

NOTE: You can turn off this warning by setting the MCA parameter
      btl_openib_warn_no_device_params_found to 0.
--------------------------------------------------------------------------
--------------------------------------------------------------------------
WARNING: There was an error initializing an OpenFabrics device.

  Local host:   bear-pg0206u14b
  Local device: mlx5_0
--------------------------------------------------------------------------

     Program PWSCF v.6.3 starts on 11Nov2020 at 12:38: 3 

     This program is part of the open-source Quantum ESPRESSO suite
     for quantum simulation of materials; please cite
         "P. Giannozzi et al., J. Phys.:Condens. Matter 21 395502 (2009);
         "P. Giannozzi et al., J. Phys.:Condens. Matter 29 465901 (2017);
          URL http://www.quantum-espresso.org", 
     in publications or presentations arising from this work. More details at
     http://www.quantum-espresso.org/quote

     Parallel version (MPI & OpenMP), running on      20 processor cores
     Number of MPI processes:                20
     Threads/MPI process:                     1

     MPI processes distributed on     1 nodes
     R & G space division:  proc/nbgrp/npool/nimage =      20
     Reading input from wd/ec/ec_1_006.in
Warning: card &IONS ignored
Warning: card ION_DYNAMICS = 'BFGS', ignored
Warning: card / ignored
Warning: card &CELL ignored
Warning: card CELL_DYNAMICS = 'BFGS', ignored
Warning: card CELL_FACTOR = 2.0, ignored
Warning: card PRESS = 0.0, ignored
Warning: card / ignored

     Current dimensions of program PWSCF are:
     Max number of different atomic species (ntypx) = 10
     Max number of k-points (npk) =  40000
     Max angular momentum in pseudopotentials (lmaxx) =  3
               file Pd.pbe-spn-kjpaw_psl.1.0.0.UPF: wavefunction(s)  4S 5S 4D renormalized

     Subspace diagonalization in iterative solution of the eigenvalue problem:
     a serial algorithm will be used

 
     Parallelization info
     --------------------
     sticks:   dense  smooth     PW     G-vecs:    dense   smooth      PW
     Min         378     249     67                24694    13251    1879
     Max         379     250     68                24698    13254    1884
     Sum        7563    4993   1357               493915   265035   37625
 


     bravais-lattice index     =            0
     lattice parameter (alat)  =      14.8394  a.u.
     unit-cell volume          =    3281.3803 (a.u.)^3
     number of atoms/cell      =           32
     number of atomic types    =            1
     number of electrons       =       576.00
     number of Kohn-Sham states=          346
     kinetic-energy cutoff     =      71.0000  Ry
     charge density cutoff     =     430.0000  Ry
     convergence threshold     =      1.0E-06
     mixing beta               =       0.1000
     number of iterations used =           10  plain     mixing
     Exchange-correlation      = SLA PW PBX PBC ( 1  4  3  4 0 0)

     celldm(1)=  14.839420  celldm(2)=   0.000000  celldm(3)=   0.000000
     celldm(4)=   0.000000  celldm(5)=   0.000000  celldm(6)=   0.000000

     crystal axes: (cart. coord. in units of alat)
               a(1) = (   1.004167   0.000000   0.000000 )  
               a(2) = (   0.000000   1.000000   0.000000 )  
               a(3) = (   0.000000   0.000000   1.000000 )  

     reciprocal axes: (cart. coord. in units 2 pi/alat)
               b(1) = (  0.995851  0.000000  0.000000 )  
               b(2) = (  0.000000  1.000000  0.000000 )  
               b(3) = (  0.000000  0.000000  1.000000 )  


     PseudoPot. # 1 for Pd read from file:
     /rds/homes/b/bxp912/pp/Pd.pbe-spn-kjpaw_psl.1.0.0.UPF
     MD5 check sum: 790f2ebce206edfd9790dcb9844eca51
     Pseudo is Projector augmented-wave + core cor, Zval = 18.0
     Generated using "atomic" code by A. Dal Corso v.6.3
     Shape of augmentation charge: PSQ
     Using radial grid of 1235 points,  6 beta functions with: 
                l(1) =   0
                l(2) =   0
                l(3) =   1
                l(4) =   1
                l(5) =   2
                l(6) =   2
     Q(r) pseudized with 0 coefficients 


     atomic species   valence    mass     pseudopotential
        Pd            18.00   106.42000     Pd( 1.00)

     16 Sym. Ops., with inversion, found



   Cartesian axes

     site n.     atom                  positions (alat units)
         1           Pd  tau(   1) = (   0.0000000   0.0000000   0.0000000  )
         2           Pd  tau(   2) = (   0.2510461   0.2500045   0.0000000  )
         3           Pd  tau(   3) = (   0.2510461   0.0000000   0.2500040  )
         4           Pd  tau(   4) = (   0.0000000   0.2500045   0.2500040  )
         5           Pd  tau(   5) = (   0.0000000   0.0000000   0.4999990  )
         6           Pd  tau(   6) = (   0.2510533   0.2500116   0.4999990  )
         7           Pd  tau(   7) = (   0.2510461   0.0000000   0.7499950  )
         8           Pd  tau(   8) = (   0.0000000   0.2500045   0.7499950  )
         9           Pd  tau(   9) = (   0.0000000   0.4999998   0.0000000  )
        10           Pd  tau(  10) = (   0.2510461   0.7499952   0.0000000  )
        11           Pd  tau(  11) = (   0.2510533   0.4999998   0.2500109  )
        12           Pd  tau(  12) = (   0.0000000   0.7499952   0.2500040  )
        13           Pd  tau(  13) = (   0.0000000   0.4999998   0.4999990  )
        14           Pd  tau(  14) = (   0.2510533   0.7499881   0.4999990  )
        15           Pd  tau(  15) = (   0.2510533   0.4999998   0.7499881  )
        16           Pd  tau(  16) = (   0.0000000   0.7499952   0.7499950  )
        17           Pd  tau(  17) = (   0.5020831   0.0000000   0.0000000  )
        18           Pd  tau(  18) = (   0.7531202   0.2500045   0.0000000  )
        19           Pd  tau(  19) = (   0.7531202   0.0000000   0.2500040  )
        20           Pd  tau(  20) = (   0.5020831   0.2500116   0.2500109  )
        21           Pd  tau(  21) = (   0.5020831   0.0000000   0.4999990  )
        22           Pd  tau(  22) = (   0.7531131   0.2500116   0.4999990  )
        23           Pd  tau(  23) = (   0.7531202   0.0000000   0.7499950  )
        24           Pd  tau(  24) = (   0.5020831   0.2500116   0.7499881  )
        25           Pd  tau(  25) = (   0.5020831   0.4999998   0.0000000  )
        26           Pd  tau(  26) = (   0.7531202   0.7499952   0.0000000  )
        27           Pd  tau(  27) = (   0.7531131   0.4999998   0.2500109  )
        28           Pd  tau(  28) = (   0.5020831   0.7499881   0.2500109  )
        29           Pd  tau(  29) = (   0.5020831   0.4999998   0.4999990  )
        30           Pd  tau(  30) = (   0.7531131   0.7499881   0.4999990  )
        31           Pd  tau(  31) = (   0.7531131   0.4999998   0.7499881  )
        32           Pd  tau(  32) = (   0.5020831   0.7499881   0.7499881  )

     number of k points=    75  Marzari-Vanderbilt smearing, width (Ry)=  0.0400
                       cart. coord. in units 2pi/alat
        k(    1) = (   0.0553250   0.0555556   0.0555556), wk =   0.0219479
        k(    2) = (   0.0553250   0.0555556   0.1666667), wk =   0.0438957
        k(    3) = (   0.0553250   0.0555556   0.2777778), wk =   0.0438957
        k(    4) = (   0.0553250   0.0555556   0.3888889), wk =   0.0438957
        k(    5) = (   0.0553250   0.0555556  -0.5000000), wk =   0.0219479
        k(    6) = (   0.0553250   0.1666667   0.1666667), wk =   0.0219479
        k(    7) = (   0.0553250   0.1666667   0.2777778), wk =   0.0438957
        k(    8) = (   0.0553250   0.1666667   0.3888889), wk =   0.0438957
        k(    9) = (   0.0553250   0.1666667  -0.5000000), wk =   0.0219479
        k(   10) = (   0.0553250   0.2777778   0.2777778), wk =   0.0219479
        k(   11) = (   0.0553250   0.2777778   0.3888889), wk =   0.0438957
        k(   12) = (   0.0553250   0.2777778  -0.5000000), wk =   0.0219479
        k(   13) = (   0.0553250   0.3888889   0.3888889), wk =   0.0219479
        k(   14) = (   0.0553250   0.3888889  -0.5000000), wk =   0.0219479
        k(   15) = (   0.0553250  -0.5000000  -0.5000000), wk =   0.0054870
        k(   16) = (   0.1659751   0.0555556   0.0555556), wk =   0.0219479
        k(   17) = (   0.1659751   0.0555556   0.1666667), wk =   0.0438957
        k(   18) = (   0.1659751   0.0555556   0.2777778), wk =   0.0438957
        k(   19) = (   0.1659751   0.0555556   0.3888889), wk =   0.0438957
        k(   20) = (   0.1659751   0.0555556  -0.5000000), wk =   0.0219479
        k(   21) = (   0.1659751   0.1666667   0.1666667), wk =   0.0219479
        k(   22) = (   0.1659751   0.1666667   0.2777778), wk =   0.0438957
        k(   23) = (   0.1659751   0.1666667   0.3888889), wk =   0.0438957
        k(   24) = (   0.1659751   0.1666667  -0.5000000), wk =   0.0219479
        k(   25) = (   0.1659751   0.2777778   0.2777778), wk =   0.0219479
        k(   26) = (   0.1659751   0.2777778   0.3888889), wk =   0.0438957
        k(   27) = (   0.1659751   0.2777778  -0.5000000), wk =   0.0219479
        k(   28) = (   0.1659751   0.3888889   0.3888889), wk =   0.0219479
        k(   29) = (   0.1659751   0.3888889  -0.5000000), wk =   0.0219479
        k(   30) = (   0.1659751  -0.5000000  -0.5000000), wk =   0.0054870
        k(   31) = (   0.2766252   0.0555556   0.0555556), wk =   0.0219479
        k(   32) = (   0.2766252   0.0555556   0.1666667), wk =   0.0438957
        k(   33) = (   0.2766252   0.0555556   0.2777778), wk =   0.0438957
        k(   34) = (   0.2766252   0.0555556   0.3888889), wk =   0.0438957
        k(   35) = (   0.2766252   0.0555556  -0.5000000), wk =   0.0219479
        k(   36) = (   0.2766252   0.1666667   0.1666667), wk =   0.0219479
        k(   37) = (   0.2766252   0.1666667   0.2777778), wk =   0.0438957
        k(   38) = (   0.2766252   0.1666667   0.3888889), wk =   0.0438957
        k(   39) = (   0.2766252   0.1666667  -0.5000000), wk =   0.0219479
        k(   40) = (   0.2766252   0.2777778   0.2777778), wk =   0.0219479
        k(   41) = (   0.2766252   0.2777778   0.3888889), wk =   0.0438957
        k(   42) = (   0.2766252   0.2777778  -0.5000000), wk =   0.0219479
        k(   43) = (   0.2766252   0.3888889   0.3888889), wk =   0.0219479
        k(   44) = (   0.2766252   0.3888889  -0.5000000), wk =   0.0219479
        k(   45) = (   0.2766252  -0.5000000  -0.5000000), wk =   0.0054870
        k(   46) = (   0.3872752   0.0555556   0.0555556), wk =   0.0219479
        k(   47) = (   0.3872752   0.0555556   0.1666667), wk =   0.0438957
        k(   48) = (   0.3872752   0.0555556   0.2777778), wk =   0.0438957
        k(   49) = (   0.3872752   0.0555556   0.3888889), wk =   0.0438957
        k(   50) = (   0.3872752   0.0555556  -0.5000000), wk =   0.0219479
        k(   51) = (   0.3872752   0.1666667   0.1666667), wk =   0.0219479
        k(   52) = (   0.3872752   0.1666667   0.2777778), wk =   0.0438957
        k(   53) = (   0.3872752   0.1666667   0.3888889), wk =   0.0438957
        k(   54) = (   0.3872752   0.1666667  -0.5000000), wk =   0.0219479
        k(   55) = (   0.3872752   0.2777778   0.2777778), wk =   0.0219479
        k(   56) = (   0.3872752   0.2777778   0.3888889), wk =   0.0438957
        k(   57) = (   0.3872752   0.2777778  -0.5000000), wk =   0.0219479
        k(   58) = (   0.3872752   0.3888889   0.3888889), wk =   0.0219479
        k(   59) = (   0.3872752   0.3888889  -0.5000000), wk =   0.0219479
        k(   60) = (   0.3872752  -0.5000000  -0.5000000), wk =   0.0054870
        k(   61) = (  -0.4979253   0.0555556   0.0555556), wk =   0.0109739
        k(   62) = (  -0.4979253   0.0555556   0.1666667), wk =   0.0219479
        k(   63) = (  -0.4979253   0.0555556   0.2777778), wk =   0.0219479
        k(   64) = (  -0.4979253   0.0555556   0.3888889), wk =   0.0219479
        k(   65) = (  -0.4979253   0.0555556  -0.5000000), wk =   0.0109739
        k(   66) = (  -0.4979253   0.1666667   0.1666667), wk =   0.0109739
        k(   67) = (  -0.4979253   0.1666667   0.2777778), wk =   0.0219479
        k(   68) = (  -0.4979253   0.1666667   0.3888889), wk =   0.0219479
        k(   69) = (  -0.4979253   0.1666667  -0.5000000), wk =   0.0109739
        k(   70) = (  -0.4979253   0.2777778   0.2777778), wk =   0.0109739
        k(   71) = (  -0.4979253   0.2777778   0.3888889), wk =   0.0219479
        k(   72) = (  -0.4979253   0.2777778  -0.5000000), wk =   0.0109739
        k(   73) = (  -0.4979253   0.3888889   0.3888889), wk =   0.0109739
        k(   74) = (  -0.4979253   0.3888889  -0.5000000), wk =   0.0109739
        k(   75) = (  -0.4979253  -0.5000000  -0.5000000), wk =   0.0027435

     Dense  grid:   493915 G-vectors     FFT dimensions: ( 100, 100, 100)

     Smooth grid:   265035 G-vectors     FFT dimensions: (  80,  80,  80)

     Estimated max dynamical RAM per process >     894.18 MB

     Estimated total dynamical RAM >      17.46 GB

     Check: negative/imaginary core charge=   -0.000002    0.000000

     Initial potential from superposition of free atoms

     starting charge  575.98776, renormalised to  576.00000
     Starting wfcs are  320 randomized atomic wfcs +   26 random wfcs
     Checking if some PAW data can be deallocated... 

     total cpu time spent up to now is       45.1 secs

     Self-consistent Calculation

     iteration #  1     ecut=    71.00 Ry     beta= 0.10
     Davidson diagonalization with overlap
     ethr =  1.00E-02,  avg # of iterations =  3.1

     Threshold (ethr) on eigenvalues was too large:
     Diagonalizing with lowered threshold

     Davidson diagonalization with overlap
     ethr =  8.54E-05,  avg # of iterations =  3.1

     total cpu time spent up to now is      492.1 secs

     total energy              =  -16385.02265290 Ry
     Harris-Foulkes estimate   =  -16385.09198475 Ry
     estimated scf accuracy    <       0.48581500 Ry

     iteration #  2     ecut=    71.00 Ry     beta= 0.10
     Davidson diagonalization with overlap
     ethr =  8.43E-05,  avg # of iterations =  1.0

     total cpu time spent up to now is      627.6 secs

     total energy              =  -16384.92815929 Ry
     Harris-Foulkes estimate   =  -16385.03058899 Ry
     estimated scf accuracy    <       0.26365560 Ry

     iteration #  3     ecut=    71.00 Ry     beta= 0.10
     Davidson diagonalization with overlap
     ethr =  4.58E-05,  avg # of iterations =  2.1

     total cpu time spent up to now is      814.6 secs

     total energy              =  -16384.96313119 Ry
     Harris-Foulkes estimate   =  -16384.96754438 Ry
     estimated scf accuracy    <       0.06155118 Ry

     iteration #  4     ecut=    71.00 Ry     beta= 0.10
     Davidson diagonalization with overlap
     ethr =  1.07E-05,  avg # of iterations =  1.8

     total cpu time spent up to now is      973.3 secs

     total energy              =  -16384.96294076 Ry
     Harris-Foulkes estimate   =  -16384.96532355 Ry
     estimated scf accuracy    <       0.02199758 Ry

     iteration #  5     ecut=    71.00 Ry     beta= 0.10
     Davidson diagonalization with overlap
     ethr =  3.82E-06,  avg # of iterations =  1.2

     total cpu time spent up to now is     1112.9 secs

     total energy              =  -16384.95809117 Ry
     Harris-Foulkes estimate   =  -16384.96314200 Ry
     estimated scf accuracy    <       0.01448473 Ry

     iteration #  6     ecut=    71.00 Ry     beta= 0.10
     Davidson diagonalization with overlap
     ethr =  2.51E-06,  avg # of iterations =  1.0

     total cpu time spent up to now is     1248.7 secs

     total energy              =  -16384.95912080 Ry
     Harris-Foulkes estimate   =  -16384.95915041 Ry
     estimated scf accuracy    <       0.00021079 Ry

     iteration #  7     ecut=    71.00 Ry     beta= 0.10
     Davidson diagonalization with overlap
     ethr =  3.66E-08,  avg # of iterations =  3.0

     total cpu time spent up to now is     1494.8 secs

     total energy              =  -16384.95919826 Ry
     Harris-Foulkes estimate   =  -16384.95921412 Ry
     estimated scf accuracy    <       0.00021521 Ry

     iteration #  8     ecut=    71.00 Ry     beta= 0.10
     Davidson diagonalization with overlap
     ethr =  3.66E-08,  avg # of iterations =  1.1

     total cpu time spent up to now is     1634.5 secs

     total energy              =  -16384.95920210 Ry
     Harris-Foulkes estimate   =  -16384.95920481 Ry
     estimated scf accuracy    <       0.00005215 Ry

     iteration #  9     ecut=    71.00 Ry     beta= 0.10
     Davidson diagonalization with overlap
     ethr =  9.05E-09,  avg # of iterations =  1.0

     total cpu time spent up to now is     1769.6 secs

     total energy              =  -16384.95920215 Ry
     Harris-Foulkes estimate   =  -16384.95920319 Ry
     estimated scf accuracy    <       0.00003442 Ry

     iteration # 10     ecut=    71.00 Ry     beta= 0.10
     Davidson diagonalization with overlap
     ethr =  5.98E-09,  avg # of iterations =  2.0

     total cpu time spent up to now is     1958.5 secs

     total energy              =  -16384.95920904 Ry
     Harris-Foulkes estimate   =  -16384.95920613 Ry
     estimated scf accuracy    <       0.00000382 Ry

     iteration # 11     ecut=    71.00 Ry     beta= 0.10
     Davidson diagonalization with overlap
     ethr =  6.62E-10,  avg # of iterations =  1.0

     total cpu time spent up to now is     2093.8 secs

     End of self-consistent calculation

          k = 0.0553 0.0556 0.0556 ( 33123 PWs)   bands (ev):

   -64.9654 -64.9372 -64.9368 -64.9367 -64.9317 -64.9313 -64.9312 -64.9214
   -64.9213 -64.9212 -64.9190 -64.9187 -64.9185 -64.9184 -64.9183 -64.9183
   -64.9182 -64.9180 -64.9180 -64.9175 -64.9158 -64.9157 -64.9156 -64.9039
   -64.9031 -64.9030 -64.9029 -64.9027 -64.9025 -64.9025 -64.9023 -64.9020
   -30.8473 -30.8473 -30.8472 -30.8453 -30.8275 -30.8275 -30.8260 -30.7522
   -30.7494 -30.7493 -30.7480 -30.7479 -30.7451 -30.7451 -30.7449 -30.7449
   -30.7403 -30.7373 -30.7372 -30.7346 -30.7346 -30.7326 -30.7326 -30.7321
   -30.7320 -30.7165 -30.7165 -30.7140 -30.7140 -30.7137 -30.7136 -30.6746
   -30.6746 -30.6735 -30.6507 -30.6506 -30.6493 -30.6445 -30.6445 -30.6437
   -30.6355 -30.6355 -30.6351 -30.6351 -30.6342 -30.6341 -30.6212 -30.6211
   -30.6205 -30.6205 -30.6200 -30.6199 -30.6196 -30.6195 -30.6193 -30.6180
   -30.6180 -30.6169 -30.6166 -30.6166 -30.6153 -30.5561 -30.5561 -30.5539
   -30.5539 -30.5537 -30.5535 -30.5437 -30.5437 -30.5419 -30.5418 -30.5416
   -30.5416 -30.5396 -30.5395 -30.5377 -30.5358 -30.5351 -30.5350 -30.5344
   -30.5344 -30.5343 -30.5340 -30.5335 -30.5330 -30.5330 -30.5327 -30.5327
   -30.5322 -30.5313 -30.5274 -30.5273 -30.5258 -30.4819 -30.4796 -30.4796
    12.2174  13.9767  13.9768  13.9769  14.0428  14.0564  14.0564  14.0564
    14.2324  14.2466  14.2467  14.2501  14.2503  14.2503  14.4282  14.4420
    14.4421  14.9750  14.9751  14.9891  14.9891  14.9893  14.9894  15.1276
    15.1417  15.1417  15.2832  15.2841  15.2841  15.3110  15.3281  15.3282
    15.3648  15.3649  15.3661  15.3669  15.3670  15.3674  15.3675  15.3701
    15.3702  15.7029  15.7030  15.7115  15.7115  15.7145  15.7146  15.8071
    15.8208  15.8209  15.8282  15.8282  15.8423  15.8424  15.8441  15.8442
    15.8842  15.9001  15.9002  16.0555  16.0555  16.0653  16.0653  16.0693
    16.0694  16.1659  16.1659  16.1710  16.1711  16.1714  16.1715  16.1747
    16.1774  16.1774  16.2796  16.2796  16.2817  16.3262  16.3429  16.3429
    16.3468  16.3761  16.3761  16.3789  16.3824  16.3929  16.4138  16.4243
    17.1903  17.2113  17.2113  17.2620  17.2620  17.2709  17.3341  17.3341
    17.3353  17.3354  17.3410  17.3411  17.3424  17.3424  17.3477  17.3756
    17.3986  17.3987  17.4881  17.4882  17.5035  17.6102  17.6103  17.6144
    17.7310  17.7311  17.7450  17.7888  17.7889  17.8011  17.8635  17.8636
    17.8672  17.8673  17.8677  17.8678  17.8846  17.8846  17.8863  17.9123
    17.9359  17.9359  17.9366  17.9367  17.9472  17.9472  17.9514  18.0447
    18.0447  18.0556  18.4271  18.4272  18.4445  18.5290  18.5291  18.5439
    18.9115  18.9116  18.9231  19.0371  19.0372  19.0392  19.0566  19.0726
    19.0765  19.0889  19.0889  19.3108  19.3117  19.3117  19.3596  19.3596
    19.3606  19.3606  19.3687  19.3738  19.3739  19.3812  19.3812  20.0453
    20.3491  20.3492  20.3494  20.8532  20.8533  20.8767  21.3595  21.3596
    21.3610  21.3610  21.3884  21.3884  21.8867  21.8867  21.9190  22.4360
    22.5143  22.5143  26.2131  26.2132  26.2138  26.3702  27.3356  27.3357
    27.3715  27.3715  27.4077  27.4078  28.0268  28.0268  28.0606  28.0606
    28.0993  28.0995  29.4424  29.4425  29.4575  29.4575  29.4936  29.4936
    29.5505  29.6601  29.6601  30.5461  30.6114  30.6114  30.6241  30.6242
    30.6500  30.6501

          k = 0.0553 0.0556 0.1667 ( 33131 PWs)   bands (ev):

   -64.9645 -64.9421 -64.9366 -64.9362 -64.9313 -64.9308 -64.9258 -64.9243
   -64.9241 -64.9213 -64.9209 -64.9207 -64.9191 -64.9190 -64.9183 -64.9181
   -64.9178 -64.9175 -64.9157 -64.9154 -64.9152 -64.9134 -64.9132 -64.9039
   -64.9036 -64.9034 -64.9032 -64.9030 -64.9030 -64.9029 -64.9027 -64.9021
   -30.8445 -30.8429 -30.8428 -30.8396 -30.8242 -30.8228 -30.8223 -30.7609
   -30.7559 -30.7556 -30.7539 -30.7530 -30.7515 -30.7505 -30.7505 -30.7497
   -30.7478 -30.7413 -30.7381 -30.7380 -30.7364 -30.7333 -30.7309 -30.7303
   -30.7272 -30.7190 -30.7170 -30.7131 -30.7103 -30.7040 -30.6960 -30.6958
   -30.6795 -30.6781 -30.6658 -30.6643 -30.6507 -30.6504 -30.6496 -30.6487
   -30.6385 -30.6248 -30.6245 -30.6229 -30.6208 -30.6202 -30.6198 -30.6191
   -30.6190 -30.6188 -30.6179 -30.6149 -30.6146 -30.6145 -30.6145 -30.6135
   -30.6130 -30.6125 -30.6107 -30.6056 -30.6048 -30.5684 -30.5658 -30.5566
   -30.5564 -30.5530 -30.5509 -30.5469 -30.5451 -30.5445 -30.5443 -30.5436
   -30.5421 -30.5404 -30.5401 -30.5394 -30.5387 -30.5384 -30.5374 -30.5351
   -30.5349 -30.5345 -30.5342 -30.5341 -30.5331 -30.5316 -30.5315 -30.5315
   -30.5303 -30.5299 -30.5276 -30.5228 -30.5215 -30.4883 -30.4816 -30.4810
    12.2908  13.9474  14.0112  14.0230  14.0231  14.0705  14.0977  14.0979
    14.1112  14.2781  14.2841  14.2920  14.2923  14.2977  14.4805  14.4939
    14.5117  14.9030  14.9036  14.9635  15.0105  15.0169  15.0237  15.0304
    15.0539  15.1350  15.1352  15.1541  15.1671  15.1748  15.1787  15.1797
    15.3256  15.3260  15.3334  15.3493  15.3535  15.3585  15.3878  15.3972
    15.4364  15.4398  15.5175  15.6971  15.7009  15.7059  15.7147  15.7506
    15.7601  15.7601  15.7701  15.8176  15.8327  15.9073  15.9173  15.9336
    15.9778  15.9819  16.0227  16.0273  16.0316  16.0339  16.0378  16.0600
    16.0703  16.1106  16.1162  16.1390  16.1430  16.3097  16.3099  16.3207
    16.3212  16.3384  16.3398  16.3420  16.3607  16.3651  16.3869  16.3918
    16.3939  16.3967  16.4124  16.4223  16.4228  16.4406  16.4547  16.4567
    17.0042  17.0154  17.1210  17.1341  17.1389  17.1524  17.2008  17.2010
    17.2189  17.2622  17.2876  17.2961  17.4084  17.4168  17.4244  17.4317
    17.4361  17.4702  17.4749  17.4794  17.4891  17.6876  17.6986  17.7154
    17.7161  17.7260  17.7834  17.7835  17.8603  17.8638  17.8696  17.8702
    17.8735  17.8788  17.8950  17.9446  17.9476  17.9628  17.9639  17.9844
    18.0785  18.0810  18.0844  18.0852  18.1201  18.1286  18.1753  18.1922
    18.2013  18.2309  18.3287  18.4728  18.4878  18.6013  18.6027  18.6133
    18.6318  18.6490  18.6599  18.8648  18.9770  18.9778  19.0021  19.0137
    19.0529  19.0613  19.0656  19.0786  19.0951  19.2428  19.2901  19.2902
    19.3088  19.3097  19.3118  19.3562  19.3586  19.3614  19.3651  20.0323
    20.3921  20.4112  20.5159  20.5160  20.7462  20.8249  20.8720  20.8970
    21.3375  21.3390  21.8685  21.9272  21.9579  22.1511  22.4651  22.5000
    22.7285  22.8041  26.2126  26.3722  26.3740  26.6201  26.6631  26.6678
    26.6915  26.6966  27.2538  27.2883  27.4684  27.5047  28.1504  28.1858
    28.6656  28.7343  29.4796  29.5190  29.5378  29.6457  29.6470  29.7239
    29.8017  29.8140  29.8768  30.0214  30.0813  30.1153  30.1872  30.1906
    30.5682  30.6898

          k = 0.0553 0.0556 0.2778 ( 33113 PWs)   bands (ev):

   -64.9626 -64.9473 -64.9356 -64.9352 -64.9304 -64.9300 -64.9271 -64.9269
   -64.9232 -64.9230 -64.9211 -64.9206 -64.9196 -64.9190 -64.9183 -64.9181
   -64.9175 -64.9173 -64.9158 -64.9126 -64.9124 -64.9111 -64.9108 -64.9054
   -64.9044 -64.9042 -64.9040 -64.9038 -64.9037 -64.9030 -64.9028 -64.9021
   -30.8376 -30.8345 -30.8344 -30.8299 -30.8180 -30.8167 -30.8126 -30.7780
   -30.7724 -30.7721 -30.7676 -30.7668 -30.7642 -30.7552 -30.7532 -30.7531
   -30.7512 -30.7430 -30.7420 -30.7338 -30.7327 -30.7320 -30.7319 -30.7294
   -30.7196 -30.7182 -30.7177 -30.7151 -30.7072 -30.7045 -30.6881 -30.6863
   -30.6803 -30.6788 -30.6788 -30.6786 -30.6645 -30.6626 -30.6617 -30.6600
   -30.6285 -30.6274 -30.6203 -30.6202 -30.6191 -30.6181 -30.6152 -30.6146
   -30.6105 -30.6082 -30.6079 -30.6053 -30.6049 -30.6047 -30.6040 -30.6033
   -30.6030 -30.5954 -30.5915 -30.5909 -30.5859 -30.5801 -30.5770 -30.5619
   -30.5618 -30.5562 -30.5545 -30.5544 -30.5532 -30.5505 -30.5496 -30.5495
   -30.5477 -30.5462 -30.5462 -30.5457 -30.5401 -30.5391 -30.5360 -30.5351
   -30.5345 -30.5344 -30.5342 -30.5335 -30.5333 -30.5311 -30.5309 -30.5301
   -30.5279 -30.5207 -30.5198 -30.5196 -30.5185 -30.4994 -30.4858 -30.4848
    12.4358  13.5973  14.0773  14.1133  14.1133  14.1397  14.1799  14.1801
    14.2061  14.3331  14.3752  14.3763  14.3839  14.3966  14.4801  14.5817
    14.5942  14.7554  14.7562  14.7980  14.8080  14.8856  14.8856  14.9373
    15.0407  15.0443  15.0772  15.0880  15.0988  15.1094  15.1112  15.1167
    15.2065  15.2175  15.2253  15.2281  15.3363  15.3418  15.3772  15.3906
    15.5002  15.5053  15.6389  15.6431  15.6759  15.6815  15.6901  15.6951
    15.7039  15.7084  15.7173  15.7409  15.7430  15.8502  15.8566  15.9233
    15.9247  15.9808  15.9809  15.9845  16.0531  16.0589  16.0668  16.0757
    16.0779  16.0831  16.1526  16.1572  16.1598  16.2536  16.2782  16.2911
    16.2983  16.3386  16.3393  16.3520  16.4377  16.4626  16.4833  16.4845
    16.4872  16.5180  16.6526  16.6583  16.6723  16.7221  16.8018  16.8086
    16.8569  16.8750  16.8754  16.8842  16.9491  17.0262  17.0344  17.0347
    17.0520  17.0605  17.3649  17.3763  17.3825  17.4740  17.4807  17.5396
    17.5448  17.5562  17.5589  17.6144  17.6173  17.6433  17.6512  17.7071
    17.7152  17.8219  17.8484  17.8499  17.8513  17.8556  17.8730  17.8762
    17.8818  17.8821  17.9720  18.0791  18.1290  18.1305  18.1450  18.1454
    18.1534  18.2362  18.2367  18.2403  18.2812  18.2821  18.2845  18.2887
    18.3305  18.3349  18.3576  18.3728  18.3785  18.4463  18.6188  18.6275
    18.6767  18.6964  18.7013  18.7334  18.8344  18.8353  18.8839  18.8839
    18.8916  18.9633  18.9698  18.9794  18.9879  19.1098  19.1594  19.1595
    19.1742  19.1756  19.1974  19.3546  19.3575  19.3621  19.3643  19.9672
    19.9816  20.2006  20.4138  20.4347  20.7352  20.7361  20.7668  21.1129
    21.2902  21.2919  21.5399  21.8260  22.5619  22.5947  23.1056  23.1422
    23.2174  23.2905  25.7806  25.8139  25.8966  25.9675  26.3378  26.3736
    26.3850  26.6884  26.6910  27.0937  27.7143  27.7543  28.3873  28.4255
    28.7515  29.1723  29.1963  29.2939  29.2974  29.4937  29.5129  29.5496
    29.6169  29.6632  29.6813  29.8531  29.8790  29.9668  30.0505  30.0719
    30.1272  30.1279

          k = 0.0553 0.0556 0.3889 ( 33123 PWs)   bands (ev):

   -64.9599 -64.9521 -64.9341 -64.9337 -64.9297 -64.9295 -64.9291 -64.9287
   -64.9254 -64.9251 -64.9210 -64.9199 -64.9190 -64.9183 -64.9181 -64.9175
   -64.9170 -64.9160 -64.9159 -64.9100 -64.9098 -64.9089 -64.9087 -64.9081
   -64.9058 -64.9055 -64.9054 -64.9050 -64.9038 -64.9031 -64.9028 -64.9021
   -30.8268 -30.8227 -30.8225 -30.8167 -30.8089 -30.8078 -30.7984 -30.7959
   -30.7905 -30.7902 -30.7833 -30.7826 -30.7824 -30.7573 -30.7549 -30.7535
   -30.7499 -30.7487 -30.7478 -30.7477 -30.7384 -30.7379 -30.7221 -30.7192
   -30.7142 -30.7122 -30.7046 -30.7016 -30.6992 -30.6990 -30.6967 -30.6966
   -30.6935 -30.6916 -30.6776 -30.6754 -30.6753 -30.6732 -30.6630 -30.6628
   -30.6374 -30.6367 -30.6203 -30.6194 -30.6174 -30.6158 -30.6084 -30.6044
   -30.6003 -30.5927 -30.5925 -30.5917 -30.5914 -30.5914 -30.5909 -30.5908
   -30.5900 -30.5899 -30.5874 -30.5788 -30.5784 -30.5780 -30.5697 -30.5697
   -30.5671 -30.5667 -30.5657 -30.5656 -30.5644 -30.5591 -30.5579 -30.5576
   -30.5571 -30.5570 -30.5500 -30.5419 -30.5410 -30.5385 -30.5369 -30.5351
   -30.5344 -30.5342 -30.5336 -30.5328 -30.5323 -30.5300 -30.5285 -30.5284
   -30.5281 -30.5210 -30.5204 -30.5151 -30.5091 -30.5079 -30.4918 -30.4908
    12.6485  13.2447  14.1697  14.2422  14.2424  14.2497  14.3019  14.3021
    14.3394  14.3906  14.4144  14.4996  14.5018  14.5246  14.5357  14.5792
    14.5798  14.5867  14.6493  14.6581  14.6583  14.7101  14.7244  14.7355
    14.8680  14.8732  14.8733  14.8795  15.0723  15.0786  15.1645  15.1710
    15.2169  15.2274  15.2841  15.2922  15.3076  15.3117  15.4401  15.4500
    15.5029  15.5051  15.5088  15.5092  15.6068  15.6070  15.6454  15.6489
    15.6623  15.6709  15.7018  15.7097  15.7464  15.7600  15.8811  15.8919
    15.8950  15.9263  15.9284  16.0418  16.0725  16.0732  16.0848  16.0859
    16.1137  16.1213  16.1811  16.1853  16.2201  16.2306  16.2447  16.2575
    16.2602  16.3191  16.3864  16.3879  16.5241  16.5622  16.5771  16.5804
    16.5932  16.6123  16.6232  16.6276  16.6314  16.6373  16.7850  16.8255
    16.8376  16.8604  16.8821  16.8867  17.0668  17.0679  17.0705  17.0847
    17.2993  17.3192  17.4438  17.4475  17.4567  17.4693  17.4728  17.6377
    17.6395  17.6729  17.6748  17.6813  17.6848  17.6971  17.7024  17.7143
    17.7347  17.7367  17.8187  17.8209  17.8524  17.8599  17.8625  17.8647
    17.8654  17.8738  17.8786  17.8921  17.8948  17.9759  18.0181  18.0913
    18.0927  18.1522  18.2280  18.2494  18.3313  18.3326  18.3648  18.4044
    18.4854  18.4881  18.4893  18.5470  18.5545  18.5552  18.5761  18.5771
    18.7279  18.7280  18.7436  18.8325  18.8405  18.8477  18.8705  18.8729
    18.8803  18.8817  18.9211  18.9822  18.9844  18.9936  18.9943  19.0575
    19.1748  19.1813  19.3231  19.3547  19.3565  19.3627  19.3639  19.5722
    19.5819  19.9783  19.9948  20.3882  20.6760  20.8076  20.9365  20.9380
    21.2122  21.2140  21.4051  21.7468  23.2700  23.3040  23.8149  23.8173
    23.8524  23.8888  24.8937  24.9275  25.1787  25.2494  25.4402  25.4769
    26.7391  27.1543  27.1575  27.6371  27.9487  28.0635  28.1071  28.4767
    28.4802  28.7204  28.7624  28.9766  29.0283  29.0305  29.3613  29.4128
    29.4769  29.5734  29.5861  29.6371  30.0198  30.0585  30.0992  30.1093
    30.2492  30.3291

          k = 0.0553 0.0556-0.5000 ( 33158 PWs)   bands (ev):

   -64.9567 -64.9559 -64.9325 -64.9322 -64.9317 -64.9314 -64.9278 -64.9275
   -64.9271 -64.9267 -64.9208 -64.9201 -64.9190 -64.9183 -64.9181 -64.9175
   -64.9169 -64.9161 -64.9120 -64.9113 -64.9081 -64.9078 -64.9074 -64.9074
   -64.9071 -64.9070 -64.9066 -64.9063 -64.9038 -64.9031 -64.9028 -64.9021
   -30.8128 -30.8125 -30.8081 -30.8078 -30.8073 -30.8070 -30.8007 -30.8004
   -30.7977 -30.7969 -30.7966 -30.7958 -30.7801 -30.7793 -30.7525 -30.7522
   -30.7518 -30.7515 -30.7446 -30.7444 -30.7443 -30.7441 -30.7109 -30.7105
   -30.7082 -30.7078 -30.7054 -30.7048 -30.7034 -30.7027 -30.6902 -30.6899
   -30.6896 -30.6889 -30.6875 -30.6872 -30.6872 -30.6865 -30.6494 -30.6490
   -30.6487 -30.6483 -30.6203 -30.6196 -30.6170 -30.6163 -30.6008 -30.6000
   -30.5971 -30.5963 -30.5815 -30.5812 -30.5802 -30.5800 -30.5799 -30.5795
   -30.5794 -30.5794 -30.5793 -30.5792 -30.5791 -30.5789 -30.5781 -30.5778
   -30.5733 -30.5730 -30.5725 -30.5722 -30.5672 -30.5670 -30.5665 -30.5662
   -30.5634 -30.5631 -30.5382 -30.5374 -30.5366 -30.5365 -30.5363 -30.5361
   -30.5355 -30.5351 -30.5349 -30.5344 -30.5342 -30.5336 -30.5295 -30.5288
   -30.5238 -30.5236 -30.5235 -30.5233 -30.5001 -30.4993 -30.4989 -30.4983
    12.9215  12.9225  14.2788  14.2795  14.3994  14.3994  14.4011  14.4018
    14.4020  14.4027  14.4618  14.4619  14.4627  14.4627  14.5086  14.5087
    14.5201  14.5209  14.6639  14.6647  14.6675  14.6683  14.6934  14.6942
    14.7023  14.7031  14.8949  14.8956  14.9040  14.9047  15.2512  15.2516
    15.2519  15.2523  15.3626  15.3633  15.3695  15.3702  15.3854  15.3860
    15.3898  15.3904  15.5182  15.5189  15.5236  15.5243  15.6739  15.6742
    15.6781  15.6782  15.6785  15.6787  15.6912  15.6913  15.8939  15.8940
    15.8951  15.8952  16.0420  16.0427  16.0746  16.0753  16.0878  16.0884
    16.1120  16.1125  16.1734  16.1740  16.1837  16.1842  16.2735  16.2740
    16.4213  16.4215  16.4253  16.4254  16.4819  16.4821  16.4846  16.4848
    16.6412  16.6415  16.6884  16.6887  16.6999  16.7001  16.7065  16.7073
    16.7264  16.7267  16.7358  16.7365  17.4600  17.4603  17.4625  17.4627
    17.4640  17.4643  17.4646  17.4647  17.4649  17.4650  17.5086  17.5089
    17.5858  17.5865  17.6803  17.6809  17.6822  17.6829  17.7604  17.7608
    17.7615  17.7622  17.7634  17.7640  17.7793  17.7799  17.7800  17.7805
    17.7815  17.7819  17.8164  17.8170  17.8185  17.8191  17.9909  17.9911
    17.9916  17.9918  18.0785  18.0793  18.5383  18.5389  18.5392  18.5398
    18.5650  18.5652  18.6755  18.6757  18.6809  18.6811  18.6820  18.6827
    18.7100  18.7103  18.7228  18.7230  18.7748  18.7754  18.7809  18.7814
    18.7840  18.7845  18.7884  18.7889  18.9346  18.9349  19.2069  19.2070
    19.2114  19.2115  19.3551  19.3558  19.3629  19.3637  19.5634  19.5635
    19.5753  19.5754  20.0459  20.0465  20.5495  20.5502  21.0959  21.0966
    21.0976  21.0983  21.6125  21.6132  24.0501  24.0504  24.0842  24.0846
    24.4797  24.4803  24.5504  24.5511  24.5946  24.5949  24.6320  24.6323
    27.2679  27.2680  27.7565  27.7566  27.7600  27.7602  28.2869  28.2870
    28.4916  28.4924  28.5392  28.5399  29.1275  29.1283  29.1739  29.1747
    29.4292  29.4298  29.5114  29.5120  30.1918  30.1927  30.2804  30.2813
    30.4789  30.4798

          k = 0.0553 0.1667 0.1667 ( 33135 PWs)   bands (ev):

   -64.9635 -64.9416 -64.9415 -64.9361 -64.9309 -64.9275 -64.9255 -64.9254
   -64.9242 -64.9241 -64.9209 -64.9207 -64.9201 -64.9187 -64.9174 -64.9174
   -64.9172 -64.9171 -64.9153 -64.9152 -64.9134 -64.9133 -64.9114 -64.9042
   -64.9037 -64.9036 -64.9034 -64.9034 -64.9033 -64.9032 -64.9031 -64.9026
   -30.8418 -30.8418 -30.8371 -30.8324 -30.8197 -30.8196 -30.8196 -30.7638
   -30.7638 -30.7614 -30.7614 -30.7525 -30.7524 -30.7523 -30.7498 -30.7497
   -30.7481 -30.7481 -30.7474 -30.7473 -30.7414 -30.7414 -30.7372 -30.7372
   -30.7171 -30.7102 -30.7101 -30.7075 -30.7075 -30.7016 -30.7016 -30.6930
   -30.6929 -30.6831 -30.6796 -30.6559 -30.6523 -30.6523 -30.6389 -30.6389
   -30.6332 -30.6331 -30.6267 -30.6222 -30.6222 -30.6207 -30.6206 -30.6160
   -30.6159 -30.6153 -30.6153 -30.6125 -30.6124 -30.6121 -30.6106 -30.6106
   -30.6083 -30.6083 -30.5969 -30.5969 -30.5907 -30.5687 -30.5687 -30.5657
   -30.5657 -30.5543 -30.5524 -30.5504 -30.5466 -30.5465 -30.5450 -30.5450
   -30.5433 -30.5433 -30.5412 -30.5411 -30.5408 -30.5407 -30.5386 -30.5375
   -30.5375 -30.5343 -30.5325 -30.5325 -30.5323 -30.5318 -30.5317 -30.5312
   -30.5275 -30.5275 -30.5232 -30.5232 -30.5150 -30.4963 -30.4836 -30.4808
    12.3633  13.9997  13.9997  14.0576  14.0577  14.0646  14.0831  14.1242
    14.1643  14.1643  14.3193  14.3193  14.3251  14.3375  14.5192  14.5639
    14.5640  14.9250  14.9251  14.9453  14.9454  14.9661  14.9661  14.9927
    14.9928  15.0105  15.0517  15.0517  15.0797  15.0798  15.1921  15.2072
    15.2073  15.2152  15.2153  15.2627  15.3656  15.3994  15.3994  15.4156
    15.4157  15.4392  15.4392  15.5341  15.5341  15.6727  15.6727  15.7486
    15.7486  15.7585  15.8631  15.8632  15.8808  15.8808  15.9368  15.9368
    15.9480  16.0073  16.0073  16.0182  16.0183  16.0706  16.0706  16.1606
    16.2119  16.2120  16.2631  16.2631  16.2736  16.2737  16.2959  16.3462
    16.3556  16.3697  16.3698  16.3751  16.3751  16.4010  16.4011  16.4301
    16.4342  16.4342  16.4400  16.4512  16.4527  16.4527  16.4617  16.4684
    16.9039  16.9702  16.9702  17.0119  17.1275  17.1275  17.2449  17.2564
    17.2564  17.2602  17.2603  17.3138  17.3139  17.3365  17.3366  17.4030
    17.4031  17.4061  17.4841  17.5612  17.5640  17.5641  17.5866  17.5866
    17.6165  17.8564  17.8564  17.8723  17.8724  17.8990  17.9195  17.9503
    17.9503  17.9628  17.9629  17.9648  17.9775  17.9776  18.0531  18.0532
    18.0882  18.0882  18.2616  18.2616  18.3083  18.3126  18.3127  18.3136
    18.3530  18.3531  18.3566  18.3566  18.4232  18.4233  18.4607  18.5024
    18.6227  18.7310  18.7758  18.7758  18.9002  18.9123  18.9123  18.9276
    19.0152  19.0595  19.0595  19.0735  19.0774  19.0774  19.2500  19.2501
    19.2900  19.2900  19.2906  19.2906  19.2985  19.2985  19.3291  19.7520
    19.9776  20.3609  20.3609  20.4136  20.8486  20.8486  21.0405  21.0406
    21.4471  21.4471  21.9152  21.9153  22.4397  22.4397  22.4538  22.4538
    22.9909  23.0852  26.0714  26.0715  26.2101  26.2102  26.6768  26.7520
    26.7521  26.7552  26.7553  27.0754  27.3831  27.3831  27.8550  27.8552
    28.7914  28.7915  29.1269  29.1269  29.4620  29.5215  29.6626  29.6626
    29.6760  29.6760  29.9438  29.9438  30.1046  30.1046  30.4812  30.4812
    30.6892  30.7615

          k = 0.0553 0.1667 0.2778 ( 33113 PWs)   bands (ev):

   -64.9617 -64.9466 -64.9404 -64.9351 -64.9308 -64.9300 -64.9269 -64.9248
   -64.9238 -64.9231 -64.9210 -64.9207 -64.9204 -64.9192 -64.9191 -64.9169
   -64.9164 -64.9153 -64.9141 -64.9136 -64.9126 -64.9111 -64.9095 -64.9054
   -64.9045 -64.9044 -64.9042 -64.9041 -64.9040 -64.9035 -64.9032 -64.9026
   -30.8366 -30.8352 -30.8275 -30.8214 -30.8139 -30.8137 -30.8102 -30.7812
   -30.7777 -30.7679 -30.7642 -30.7642 -30.7641 -30.7638 -30.7556 -30.7552
   -30.7533 -30.7495 -30.7490 -30.7469 -30.7445 -30.7429 -30.7385 -30.7339
   -30.7246 -30.7136 -30.7098 -30.7050 -30.7019 -30.7001 -30.6940 -30.6919
   -30.6875 -30.6857 -30.6761 -30.6668 -30.6655 -30.6526 -30.6467 -30.6350
   -30.6350 -30.6326 -30.6262 -30.6214 -30.6183 -30.6169 -30.6161 -30.6159
   -30.6118 -30.6115 -30.6106 -30.6065 -30.6020 -30.6005 -30.5999 -30.5974
   -30.5961 -30.5946 -30.5838 -30.5832 -30.5804 -30.5776 -30.5772 -30.5742
   -30.5612 -30.5584 -30.5579 -30.5568 -30.5555 -30.5541 -30.5540 -30.5537
   -30.5480 -30.5458 -30.5455 -30.5434 -30.5428 -30.5425 -30.5397 -30.5393
   -30.5374 -30.5358 -30.5353 -30.5345 -30.5321 -30.5315 -30.5297 -30.5239
   -30.5216 -30.5213 -30.5211 -30.5155 -30.5114 -30.5087 -30.4876 -30.4830
    12.5064  13.6529  14.1013  14.1243  14.1361  14.1459  14.1483  14.1904
    14.2560  14.2683  14.3735  14.4016  14.4027  14.4273  14.5315  14.5917
    14.6654  14.7363  14.7655  14.7961  14.8212  14.8306  14.8358  14.8660
    14.9630  14.9714  14.9945  15.0029  15.0284  15.0514  15.1163  15.1261
    15.1322  15.1609  15.1838  15.2383  15.2693  15.2984  15.3281  15.4217
    15.4303  15.4573  15.4904  15.5657  15.5976  15.6145  15.6241  15.7159
    15.7204  15.7311  15.7392  15.7596  15.8027  15.8789  15.8845  15.9271
    15.9304  15.9381  16.0216  16.0759  16.1163  16.1232  16.1672  16.1950
    16.1992  16.2134  16.2153  16.2280  16.2762  16.2821  16.3015  16.3281
    16.3504  16.3584  16.4198  16.4741  16.4870  16.4964  16.5094  16.5217
    16.5228  16.5337  16.5420  16.5655  16.5783  16.6814  16.7530  16.8019
    16.8128  16.8143  16.8393  16.9288  16.9571  17.0617  17.0684  17.0808
    17.1488  17.1650  17.1822  17.2580  17.2679  17.3353  17.3529  17.4436
    17.4649  17.4857  17.4886  17.5501  17.5863  17.6698  17.7212  17.7264
    17.7435  17.8255  17.8282  17.8409  17.8710  17.9221  17.9514  17.9522
    17.9918  18.0297  18.0322  18.0815  18.0832  18.0947  18.0966  18.1082
    18.1231  18.1490  18.2143  18.2505  18.2767  18.3142  18.3489  18.4060
    18.4156  18.4488  18.4503  18.4508  18.4528  18.4774  18.4828  18.5667
    18.5795  18.6036  18.6886  18.7807  18.8034  18.8264  18.9032  18.9129
    18.9882  19.0211  19.0348  19.0404  19.1265  19.1400  19.1409  19.1435
    19.1606  19.1607  19.1955  19.2900  19.2912  19.2944  19.3083  19.5859
    19.7814  19.9353  20.2980  20.3909  20.4384  20.8012  20.9580  21.3274
    21.5250  21.8324  21.8858  22.0706  22.4203  22.5633  22.9155  23.1037
    23.4440  23.7247  25.2379  25.4248  25.8501  26.0420  26.2136  26.3563
    26.3836  26.8929  27.0526  27.0656  27.1076  27.5822  27.5954  28.2369
    28.3812  28.6300  28.7649  28.8983  29.0218  29.1645  29.3506  29.4846
    29.6726  29.7670  29.8762  30.0816  30.1108  30.2911  30.3850  30.4427
    30.6318  30.7964

          k = 0.0553 0.1667 0.3889 ( 33132 PWs)   bands (ev):

   -64.9590 -64.9513 -64.9387 -64.9337 -64.9336 -64.9294 -64.9288 -64.9252
   -64.9238 -64.9234 -64.9218 -64.9209 -64.9205 -64.9195 -64.9165 -64.9157
   -64.9156 -64.9155 -64.9141 -64.9111 -64.9100 -64.9090 -64.9080 -64.9079
   -64.9062 -64.9058 -64.9054 -64.9050 -64.9042 -64.9035 -64.9032 -64.9026
   -30.8273 -30.8248 -30.8147 -30.8071 -30.8057 -30.8048 -30.7986 -30.7968
   -30.7950 -30.7823 -30.7816 -30.7795 -30.7718 -30.7641 -30.7623 -30.7587
   -30.7580 -30.7578 -30.7565 -30.7529 -30.7438 -30.7383 -30.7376 -30.7274
   -30.7214 -30.7168 -30.7105 -30.7068 -30.7032 -30.6976 -30.6894 -30.6853
   -30.6806 -30.6799 -30.6776 -30.6706 -30.6656 -30.6604 -30.6592 -30.6510
   -30.6450 -30.6351 -30.6171 -30.6162 -30.6114 -30.6105 -30.6099 -30.6096
   -30.6058 -30.6046 -30.6022 -30.5947 -30.5914 -30.5900 -30.5900 -30.5892
   -30.5884 -30.5852 -30.5822 -30.5802 -30.5724 -30.5719 -30.5687 -30.5685
   -30.5675 -30.5674 -30.5673 -30.5661 -30.5658 -30.5654 -30.5648 -30.5557
   -30.5525 -30.5524 -30.5457 -30.5448 -30.5445 -30.5436 -30.5424 -30.5423
   -30.5415 -30.5405 -30.5340 -30.5335 -30.5325 -30.5296 -30.5280 -30.5251
   -30.5249 -30.5219 -30.5160 -30.5106 -30.5104 -30.5046 -30.4936 -30.4879
    12.7163  13.3047  14.2174  14.2291  14.2459  14.2637  14.2780  14.2960
    14.3851  14.4078  14.4407  14.4535  14.5082  14.5246  14.5317  14.5594
    14.5854  14.6177  14.6207  14.6207  14.6845  14.6887  14.7464  14.7521
    14.7780  14.8093  14.8885  14.9064  14.9320  15.0103  15.1181  15.1397
    15.1488  15.1646  15.1963  15.2486  15.2631  15.3852  15.3870  15.4148
    15.4463  15.4534  15.5274  15.5287  15.5550  15.5601  15.5607  15.5674
    15.6085  15.6454  15.7031  15.7338  15.7562  15.8009  15.8883  15.9038
    15.9431  15.9930  16.0907  16.1083  16.1414  16.1518  16.1660  16.1746
    16.1781  16.1785  16.2196  16.2473  16.2654  16.2796  16.2880  16.2991
    16.3507  16.3868  16.3947  16.5338  16.5437  16.5966  16.6014  16.6062
    16.6076  16.6137  16.6453  16.6596  16.6844  16.7537  16.7629  16.7775
    16.8298  16.8515  16.8863  16.9386  16.9781  17.0001  17.0453  17.0608
    17.2321  17.2366  17.2594  17.2678  17.2814  17.3150  17.4049  17.5015
    17.5040  17.5191  17.5740  17.6224  17.6770  17.6829  17.6944  17.6999
    17.7251  17.7276  17.7704  17.8021  17.8445  17.8690  17.8731  17.8803
    17.9310  17.9371  17.9884  18.0039  18.0452  18.0932  18.1205  18.1412
    18.1527  18.1552  18.1608  18.3022  18.3196  18.3206  18.3529  18.3572
    18.4594  18.5015  18.5460  18.5867  18.6173  18.6412  18.6413  18.6433
    18.6529  18.6579  18.6810  18.7389  18.7464  18.8400  18.8488  18.8663
    18.8912  18.9453  18.9486  18.9832  18.9910  18.9943  18.9950  19.0750
    19.1509  19.2299  19.2902  19.2919  19.2927  19.2992  19.5405  19.5723
    19.6951  19.9276  19.9567  20.2031  20.4838  20.5303  20.7296  21.1143
    21.5606  21.8277  21.9155  22.3418  22.7708  23.2872  23.4912  23.8241
    24.0144  24.3745  24.4270  24.7689  24.9450  25.3368  25.4692  26.0295
    26.4176  26.7413  27.3520  27.3915  27.4593  27.6549  27.8977  27.9592
    28.1606  28.1802  28.3504  28.6975  28.8600  29.0524  29.3419  29.4085
    29.6198  29.7302  29.7547  29.8608  30.0393  30.1555  30.1676  30.3087
    30.3484  30.5626

          k = 0.0553 0.1667-0.5000 ( 33146 PWs)   bands (ev):

   -64.9559 -64.9551 -64.9368 -64.9360 -64.9321 -64.9313 -64.9275 -64.9268
   -64.9230 -64.9229 -64.9223 -64.9221 -64.9204 -64.9196 -64.9164 -64.9156
   -64.9152 -64.9144 -64.9119 -64.9111 -64.9088 -64.9081 -64.9081 -64.9074
   -64.9074 -64.9067 -64.9067 -64.9059 -64.9042 -64.9035 -64.9033 -64.9026
   -30.8146 -30.8143 -30.8113 -30.8109 -30.7992 -30.7988 -30.7954 -30.7947
   -30.7936 -30.7929 -30.7904 -30.7900 -30.7796 -30.7789 -30.7616 -30.7614
   -30.7595 -30.7591 -30.7584 -30.7584 -30.7386 -30.7385 -30.7299 -30.7295
   -30.7163 -30.7158 -30.7155 -30.7151 -30.6957 -30.6954 -30.6887 -30.6883
   -30.6782 -30.6777 -30.6707 -30.6699 -30.6683 -30.6680 -30.6572 -30.6568
   -30.6470 -30.6462 -30.6172 -30.6165 -30.6101 -30.6097 -30.6017 -30.6009
   -30.5983 -30.5975 -30.5928 -30.5921 -30.5910 -30.5908 -30.5839 -30.5837
   -30.5816 -30.5812 -30.5784 -30.5783 -30.5781 -30.5780 -30.5777 -30.5774
   -30.5748 -30.5740 -30.5653 -30.5650 -30.5616 -30.5609 -30.5550 -30.5546
   -30.5542 -30.5534 -30.5505 -30.5500 -30.5455 -30.5451 -30.5437 -30.5429
   -30.5419 -30.5411 -30.5375 -30.5371 -30.5336 -30.5329 -30.5267 -30.5259
   -30.5250 -30.5247 -30.5122 -30.5120 -30.5017 -30.5010 -30.4955 -30.4950
    12.9857  12.9867  14.3276  14.3283  14.3615  14.3616  14.4127  14.4133
    14.4232  14.4240  14.4382  14.4390  14.4399  14.4400  14.5494  14.5495
    14.5575  14.5583  14.5793  14.5794  14.6288  14.6295  14.6870  14.6878
    14.7293  14.7299  14.7976  14.7981  14.9825  14.9831  15.0617  15.0618
    15.2564  15.2566  15.2595  15.2600  15.2984  15.2993  15.3941  15.3949
    15.4727  15.4728  15.4933  15.4941  15.5444  15.5447  15.5685  15.5688
    15.6313  15.6314  15.6542  15.6547  15.6565  15.6571  16.0211  16.0217
    16.0364  16.0370  16.0444  16.0451  16.0652  16.0658  16.1160  16.1161
    16.2091  16.2096  16.2302  16.2306  16.3267  16.3272  16.3550  16.3557
    16.4179  16.4180  16.4684  16.4685  16.4746  16.4748  16.5915  16.5917
    16.6451  16.6453  16.7072  16.7079  16.7172  16.7174  16.7357  16.7364
    16.7781  16.7783  16.8011  16.8014  17.2681  17.2686  17.2788  17.2793
    17.3212  17.3214  17.3296  17.3298  17.3563  17.3565  17.4073  17.4076
    17.4588  17.4594  17.6067  17.6074  17.6088  17.6094  17.6829  17.6833
    17.6858  17.6864  17.7104  17.7108  17.7299  17.7305  17.7985  17.7992
    17.9085  17.9091  17.9504  17.9510  18.0184  18.0191  18.0721  18.0728
    18.2114  18.2121  18.2606  18.2613  18.3384  18.3389  18.5006  18.5013
    18.5381  18.5382  18.5588  18.5595  18.6838  18.6841  18.7112  18.7113
    18.7730  18.7736  18.8031  18.8035  18.8116  18.8118  18.8163  18.8165
    18.8257  18.8262  18.8279  18.8284  18.9106  18.9108  18.9592  18.9594
    19.1748  19.1749  19.2905  19.2912  19.2944  19.2951  19.5424  19.5425
    20.0215  20.0217  20.0770  20.0778  20.3791  20.3797  20.6358  20.6365
    21.7245  21.7252  22.1842  22.1849  23.5429  23.5433  24.0841  24.0844
    24.1179  24.1185  24.6150  24.6153  24.6544  24.6550  25.1959  25.1961
    26.8388  26.8389  27.2744  27.2746  27.7286  27.7293  27.8401  27.8408
    28.2703  28.2711  28.3072  28.3074  28.8620  28.8621  29.2263  29.2266
    29.7308  29.7316  29.9180  29.9186  29.9542  29.9547  29.9849  29.9858
    30.8577  30.8582

          k = 0.0553 0.2778 0.2778 ( 33120 PWs)   bands (ev):

   -64.9599 -64.9453 -64.9453 -64.9344 -64.9341 -64.9292 -64.9264 -64.9264
   -64.9228 -64.9227 -64.9223 -64.9200 -64.9199 -64.9198 -64.9156 -64.9156
   -64.9154 -64.9153 -64.9129 -64.9128 -64.9116 -64.9115 -64.9081 -64.9056
   -64.9054 -64.9052 -64.9051 -64.9047 -64.9046 -64.9040 -64.9038 -64.9031
   -30.8315 -30.8315 -30.8171 -30.8093 -30.8076 -30.8057 -30.8057 -30.7814
   -30.7814 -30.7799 -30.7798 -30.7682 -30.7681 -30.7590 -30.7589 -30.7585
   -30.7585 -30.7539 -30.7539 -30.7533 -30.7533 -30.7438 -30.7402 -30.7401
   -30.7375 -30.7375 -30.7080 -30.7019 -30.6961 -30.6961 -30.6905 -30.6904
   -30.6838 -30.6787 -30.6709 -30.6709 -30.6449 -30.6449 -30.6449 -30.6347
   -30.6347 -30.6314 -30.6314 -30.6216 -30.6216 -30.6121 -30.6121 -30.6090
   -30.6090 -30.6081 -30.6080 -30.6064 -30.6012 -30.6012 -30.5939 -30.5938
   -30.5859 -30.5858 -30.5849 -30.5849 -30.5741 -30.5741 -30.5719 -30.5718
   -30.5666 -30.5665 -30.5642 -30.5633 -30.5561 -30.5561 -30.5546 -30.5544
   -30.5540 -30.5530 -30.5530 -30.5502 -30.5436 -30.5436 -30.5424 -30.5394
   -30.5391 -30.5370 -30.5324 -30.5323 -30.5323 -30.5319 -30.5258 -30.5258
   -30.5226 -30.5225 -30.5224 -30.5098 -30.5098 -30.5057 -30.4917 -30.4829
    12.6458  13.7617  13.7618  14.1698  14.2119  14.2159  14.2159  14.2377
    14.3657  14.3657  14.4379  14.4540  14.4540  14.5261  14.5813  14.6126
    14.6315  14.6316  14.6686  14.6687  14.7854  14.7854  14.7868  14.7869
    14.8751  14.8752  14.8960  14.8961  15.0570  15.0604  15.0605  15.0663
    15.0664  15.1592  15.1593  15.1915  15.1916  15.2453  15.2454  15.3179
    15.3179  15.3901  15.5151  15.5152  15.5199  15.5199  15.5354  15.7370
    15.7370  15.7630  15.7631  15.7735  15.7761  15.7762  15.7950  16.0268
    16.0269  16.1144  16.1144  16.1849  16.1850  16.1898  16.1898  16.2372
    16.2372  16.2426  16.2651  16.2653  16.2656  16.3580  16.3885  16.4037
    16.4038  16.4966  16.4966  16.5313  16.5553  16.5585  16.5855  16.5968
    16.6021  16.6021  16.6369  16.6369  16.6647  16.6727  16.6728  16.6998
    16.8020  16.8020  16.8259  16.8259  17.0048  17.0048  17.0623  17.0624
    17.1402  17.1402  17.2010  17.2442  17.2783  17.2784  17.3085  17.3086
    17.3325  17.3327  17.4065  17.4166  17.5512  17.5513  17.6774  17.7577
    17.7577  17.7760  17.7760  17.8034  17.8166  17.8982  17.8983  17.9506
    18.0144  18.0648  18.0649  18.1169  18.1170  18.1684  18.1685  18.2012
    18.2013  18.3079  18.3080  18.3157  18.3157  18.3293  18.3352  18.3353
    18.3360  18.4002  18.4003  18.5493  18.5923  18.6170  18.6170  18.6187
    18.6188  18.6259  18.6259  18.7267  18.7308  18.7623  18.8866  18.8866
    18.9546  19.0449  19.0449  19.0471  19.0770  19.0770  19.1624  19.1624
    19.1640  19.1641  19.1842  19.1842  19.2360  19.2476  19.5525  19.5916
    19.5916  19.8722  19.8722  20.2568  20.3470  20.3470  21.5608  21.5608
    21.9134  21.9135  22.2997  22.2997  22.5562  22.5563  23.0812  23.0813
    23.8493  24.3538  24.6462  24.6462  25.8710  25.8711  26.2127  26.2127
    26.3168  26.3169  26.8199  26.8199  27.4825  27.4827  27.6212  27.7554
    27.7554  28.1458  28.2682  28.2682  28.3024  29.3930  29.5969  29.5969
    29.7038  29.7039  30.1431  30.2135  30.4908  30.4909  30.5977  30.5978
    30.8695  30.8695

          k = 0.0553 0.2778 0.3889 ( 33153 PWs)   bands (ev):

   -64.9573 -64.9498 -64.9434 -64.9378 -64.9328 -64.9288 -64.9281 -64.9257
   -64.9247 -64.9236 -64.9224 -64.9208 -64.9191 -64.9168 -64.9153 -64.9147
   -64.9143 -64.9132 -64.9122 -64.9122 -64.9105 -64.9096 -64.9079 -64.9068
   -64.9066 -64.9065 -64.9063 -64.9055 -64.9047 -64.9046 -64.9039 -64.9031
   -30.8239 -30.8229 -30.8036 -30.7990 -30.7989 -30.7982 -30.7961 -30.7942
   -30.7937 -30.7799 -30.7790 -30.7790 -30.7740 -30.7704 -30.7679 -30.7675
   -30.7669 -30.7608 -30.7592 -30.7585 -30.7517 -30.7508 -30.7421 -30.7411
   -30.7398 -30.7253 -30.7174 -30.7144 -30.7069 -30.6936 -30.6821 -30.6797
   -30.6760 -30.6649 -30.6636 -30.6569 -30.6563 -30.6555 -30.6483 -30.6435
   -30.6304 -30.6265 -30.6231 -30.6172 -30.6154 -30.6150 -30.6117 -30.6093
   -30.6054 -30.6035 -30.6010 -30.5971 -30.5968 -30.5941 -30.5902 -30.5861
   -30.5853 -30.5849 -30.5841 -30.5828 -30.5801 -30.5748 -30.5712 -30.5708
   -30.5703 -30.5694 -30.5642 -30.5640 -30.5615 -30.5598 -30.5590 -30.5585
   -30.5526 -30.5522 -30.5516 -30.5481 -30.5472 -30.5469 -30.5452 -30.5450
   -30.5402 -30.5382 -30.5366 -30.5349 -30.5334 -30.5327 -30.5326 -30.5291
   -30.5242 -30.5236 -30.5152 -30.5052 -30.5028 -30.4997 -30.4979 -30.4859
    12.8502  13.4225  13.9186  14.2410  14.3106  14.3119  14.3217  14.3408
    14.3471  14.4857  14.4929  14.4966  14.5064  14.5315  14.5381  14.5744
    14.5969  14.6038  14.6063  14.6447  14.6665  14.6923  14.7347  14.7552
    14.7737  14.8236  14.8503  14.8629  14.9293  14.9560  14.9874  14.9953
    15.0373  15.1322  15.1355  15.1694  15.2091  15.2416  15.2426  15.2905
    15.3071  15.3634  15.3836  15.4212  15.4566  15.5615  15.6132  15.6295
    15.6573  15.6887  15.7615  15.7873  15.8215  15.8460  15.8982  16.0098
    16.0108  16.0233  16.0936  16.1586  16.1602  16.2077  16.2504  16.2633
    16.2908  16.3028  16.3058  16.3371  16.3593  16.3864  16.4167  16.5094
    16.5101  16.5341  16.5565  16.5591  16.6019  16.6170  16.6283  16.6307
    16.6470  16.6703  16.6743  16.7412  16.7435  16.7616  16.7673  16.7895
    16.7914  16.8821  16.8853  16.8899  16.9625  16.9844  17.0558  17.0709
    17.0805  17.1056  17.1370  17.1423  17.1672  17.1988  17.2014  17.3255
    17.4189  17.4345  17.4492  17.4530  17.4610  17.4732  17.5488  17.5653
    17.5932  17.6265  17.6795  17.6959  17.7242  17.7932  17.9614  17.9926
    17.9971  18.0005  18.0359  18.0405  18.1666  18.1754  18.1796  18.1853
    18.1955  18.2437  18.3469  18.3664  18.3712  18.3796  18.4334  18.4424
    18.4437  18.5230  18.5503  18.5819  18.5921  18.6516  18.6803  18.7476
    18.7637  18.7643  18.7753  18.7766  18.7814  18.7847  18.8097  18.8299
    18.9257  18.9726  18.9867  18.9907  18.9921  18.9967  19.0021  19.0042
    19.0484  19.1208  19.1650  19.1709  19.1750  19.2072  19.4789  19.5592
    19.7803  19.9184  20.0730  20.1735  20.1996  20.2878  21.0592  21.5811
    22.2212  22.2447  22.4246  22.5192  22.8509  22.9975  23.3040  23.8102
    23.8138  24.0438  24.3760  24.9954  25.0394  25.3862  25.6351  26.2299
    26.4201  26.5501  26.6613  26.7686  27.0192  27.0530  27.3138  27.4822
    27.7269  27.8094  28.0379  28.2236  28.7801  29.1054  29.6670  29.6826
    29.7583  29.8313  29.9162  29.9671  30.0998  30.2461  30.7296  30.7723
    30.9228  30.9612

          k = 0.0553 0.2778-0.5000 ( 33156 PWs)   bands (ev):

   -64.9543 -64.9535 -64.9412 -64.9405 -64.9313 -64.9306 -64.9269 -64.9262
   -64.9251 -64.9243 -64.9220 -64.9213 -64.9185 -64.9177 -64.9143 -64.9135
   -64.9135 -64.9128 -64.9116 -64.9109 -64.9095 -64.9088 -64.9087 -64.9082
   -64.9080 -64.9074 -64.9060 -64.9055 -64.9052 -64.9047 -64.9039 -64.9031
   -30.8127 -30.8124 -30.8110 -30.8107 -30.7907 -30.7900 -30.7879 -30.7879
   -30.7875 -30.7872 -30.7784 -30.7777 -30.7771 -30.7767 -30.7749 -30.7749
   -30.7741 -30.7740 -30.7654 -30.7650 -30.7470 -30.7464 -30.7439 -30.7432
   -30.7280 -30.7276 -30.7159 -30.7159 -30.7097 -30.7094 -30.6688 -30.6686
   -30.6686 -30.6683 -30.6622 -30.6619 -30.6547 -30.6539 -30.6456 -30.6454
   -30.6422 -30.6415 -30.6109 -30.6103 -30.6070 -30.6063 -30.6051 -30.6043
   -30.6020 -30.6019 -30.6018 -30.6016 -30.5970 -30.5967 -30.5965 -30.5963
   -30.5845 -30.5839 -30.5800 -30.5798 -30.5754 -30.5749 -30.5748 -30.5745
   -30.5662 -30.5655 -30.5646 -30.5641 -30.5611 -30.5609 -30.5586 -30.5583
   -30.5529 -30.5522 -30.5505 -30.5499 -30.5498 -30.5492 -30.5475 -30.5472
   -30.5420 -30.5413 -30.5395 -30.5391 -30.5353 -30.5346 -30.5274 -30.5271
   -30.5267 -30.5260 -30.5061 -30.5054 -30.5027 -30.5026 -30.4916 -30.4914
    13.1122  13.1132  14.1149  14.1157  14.3491  14.3492  14.4226  14.4234
    14.4417  14.4417  14.4444  14.4449  14.5095  14.5103  14.5419  14.5424
    14.6322  14.6330  14.6590  14.6591  14.6742  14.6743  14.6864  14.6867
    14.7331  14.7339  14.8402  14.8406  14.8790  14.8791  14.9460  14.9466
    15.1197  15.1205  15.1309  15.1314  15.2110  15.2111  15.2739  15.2741
    15.2786  15.2794  15.4618  15.4625  15.5055  15.5055  15.5080  15.5087
    15.7732  15.7732  15.7810  15.7815  15.8814  15.8817  15.9083  15.9089
    15.9307  15.9314  16.0417  16.0422  16.2303  16.2309  16.3312  16.3318
    16.3390  16.3391  16.3544  16.3549  16.4099  16.4102  16.4136  16.4137
    16.4600  16.4602  16.6188  16.6190  16.6524  16.6530  16.6866  16.6867
    16.6901  16.6903  16.7116  16.7123  16.7441  16.7446  16.7628  16.7631
    16.8941  16.8945  16.9174  16.9177  17.0808  17.0809  17.0956  17.0961
    17.1077  17.1082  17.1616  17.1617  17.1721  17.1723  17.1880  17.1882
    17.2577  17.2582  17.5109  17.5115  17.5140  17.5143  17.5567  17.5572
    17.5856  17.5861  17.6050  17.6052  17.6251  17.6258  17.9044  17.9051
    17.9137  17.9142  18.0816  18.0823  18.1254  18.1260  18.1340  18.1347
    18.2948  18.2954  18.4205  18.4213  18.4266  18.4273  18.5450  18.5457
    18.5709  18.5715  18.6103  18.6103  18.6556  18.6558  18.6570  18.6572
    18.7775  18.7781  18.8042  18.8042  18.8360  18.8364  18.8858  18.8862
    18.8883  18.8886  18.9033  18.9035  18.9095  18.9096  18.9160  18.9161
    19.1133  19.1134  19.1686  19.1693  19.1837  19.1841  19.5100  19.5101
    19.6669  19.6676  20.2275  20.2282  20.5631  20.5633  20.8519  20.8524
    22.4188  22.4195  22.7925  22.7931  23.0016  23.0020  23.4401  23.4407
    24.1223  24.1225  24.5961  24.5962  24.9808  24.9814  25.7857  25.7860
    26.4940  26.4941  26.8510  26.8512  26.9294  26.9301  27.1936  27.1943
    27.3983  27.3990  28.5977  28.5978  28.9079  28.9080  29.4817  29.4818
    29.7070  29.7079  29.8424  29.8433  30.2990  30.2998  30.5139  30.5139
    31.1796  31.1803

          k = 0.0553 0.3889 0.3889 ( 33155 PWs)   bands (ev):

   -64.9548 -64.9477 -64.9477 -64.9416 -64.9315 -64.9279 -64.9278 -64.9270
   -64.9252 -64.9241 -64.9240 -64.9220 -64.9148 -64.9147 -64.9133 -64.9132
   -64.9130 -64.9129 -64.9112 -64.9111 -64.9105 -64.9104 -64.9079 -64.9078
   -64.9075 -64.9074 -64.9070 -64.9069 -64.9059 -64.9044 -64.9042 -64.9034
   -30.8169 -30.8169 -30.7945 -30.7945 -30.7938 -30.7937 -30.7902 -30.7898
   -30.7892 -30.7892 -30.7787 -30.7787 -30.7786 -30.7761 -30.7760 -30.7661
   -30.7660 -30.7617 -30.7616 -30.7604 -30.7603 -30.7573 -30.7573 -30.7455
   -30.7431 -30.7431 -30.7283 -30.7158 -30.7095 -30.6944 -30.6944 -30.6686
   -30.6619 -30.6619 -30.6485 -30.6484 -30.6440 -30.6354 -30.6354 -30.6296
   -30.6296 -30.6290 -30.6290 -30.6237 -30.6236 -30.6053 -30.6052 -30.6039
   -30.6039 -30.6025 -30.6025 -30.5996 -30.5995 -30.5981 -30.5959 -30.5959
   -30.5916 -30.5916 -30.5823 -30.5823 -30.5786 -30.5785 -30.5760 -30.5740
   -30.5740 -30.5632 -30.5632 -30.5615 -30.5614 -30.5612 -30.5611 -30.5588
   -30.5529 -30.5527 -30.5527 -30.5506 -30.5505 -30.5474 -30.5465 -30.5406
   -30.5403 -30.5376 -30.5369 -30.5368 -30.5368 -30.5334 -30.5334 -30.5261
   -30.5261 -30.5218 -30.5218 -30.5041 -30.4978 -30.4964 -30.4964 -30.4863
    13.0461  13.5937  13.5938  14.0649  14.2855  14.3789  14.3918  14.4440
    14.4440  14.4682  14.4698  14.4698  14.5866  14.5867  14.6103  14.6339
    14.6339  14.6481  14.6481  14.6506  14.6506  14.6772  14.6772  14.7969
    14.7970  14.8129  14.8241  14.8618  14.8619  14.9652  14.9653  14.9681
    14.9682  14.9906  14.9906  15.0394  15.0394  15.1768  15.1769  15.1837
    15.1837  15.2126  15.2126  15.4462  15.4462  15.5062  15.6885  15.6885
    15.6939  15.6940  15.7816  15.8510  15.9011  15.9011  15.9019  15.9020
    15.9068  16.1094  16.2036  16.2037  16.2487  16.3670  16.3831  16.3832
    16.4329  16.4330  16.4341  16.4342  16.4382  16.4383  16.4777  16.4777
    16.4888  16.5020  16.6732  16.6776  16.6820  16.6834  16.6835  16.7064
    16.7489  16.7489  16.7550  16.7559  16.7559  16.7563  16.8901  16.8902
    16.9046  16.9046  16.9063  16.9063  16.9077  16.9079  17.0236  17.0236
    17.0305  17.0523  17.0950  17.0951  17.1133  17.1895  17.2182  17.2183
    17.2217  17.2275  17.2275  17.2432  17.2433  17.2677  17.2678  17.4430
    17.5508  17.5508  17.5563  17.5563  17.6809  17.7367  17.7367  17.7476
    17.9181  18.0457  18.1567  18.1567  18.2015  18.2015  18.2780  18.2781
    18.3627  18.3628  18.4075  18.4075  18.4661  18.4662  18.4695  18.5705
    18.5705  18.6625  18.6917  18.6920  18.6920  18.6964  18.6964  18.6970
    18.7035  18.7035  18.7703  18.8361  18.8719  18.8720  18.8773  18.8773
    18.8781  18.9762  18.9763  18.9929  18.9929  18.9978  19.0028  19.0028
    19.0207  19.0207  19.0273  19.0274  19.1249  19.2001  19.3195  19.3935
    19.3936  19.8784  19.8784  19.9706  20.6808  20.6809  21.7211  21.7211
    22.1150  22.1150  22.8614  22.8614  23.2460  23.2461  23.2802  23.2802
    23.6974  23.6974  24.8589  24.8716  24.8717  25.6986  26.0439  26.0440
    26.2387  26.2387  26.4908  26.4908  26.6499  26.6499  27.0557  27.0558
    27.1274  27.2166  27.2168  28.5013  28.8602  29.4361  29.6995  29.7001
    29.7005  29.8365  30.3262  30.3263  30.4506  30.4506  30.9116  30.9117
    31.2958  31.2959

          k = 0.0553 0.3889-0.5000 ( 33166 PWs)   bands (ev):

   -64.9519 -64.9511 -64.9453 -64.9445 -64.9302 -64.9294 -64.9270 -64.9263
   -64.9260 -64.9253 -64.9235 -64.9228 -64.9144 -64.9136 -64.9124 -64.9120
   -64.9116 -64.9113 -64.9113 -64.9105 -64.9102 -64.9096 -64.9094 -64.9093
   -64.9088 -64.9085 -64.9078 -64.9070 -64.9054 -64.9046 -64.9043 -64.9035
   -30.8074 -30.8072 -30.8069 -30.8066 -30.7880 -30.7880 -30.7878 -30.7877
   -30.7836 -30.7829 -30.7796 -30.7788 -30.7765 -30.7759 -30.7743 -30.7739
   -30.7702 -30.7697 -30.7617 -30.7615 -30.7611 -30.7611 -30.7565 -30.7557
   -30.7432 -30.7428 -30.7266 -30.7263 -30.7063 -30.7062 -30.6814 -30.6813
   -30.6484 -30.6482 -30.6452 -30.6451 -30.6399 -30.6391 -30.6354 -30.6346
   -30.6228 -30.6227 -30.6165 -30.6157 -30.6155 -30.6148 -30.6147 -30.6146
   -30.6119 -30.6118 -30.6021 -30.6015 -30.5943 -30.5942 -30.5941 -30.5936
   -30.5878 -30.5872 -30.5831 -30.5831 -30.5798 -30.5798 -30.5783 -30.5778
   -30.5707 -30.5705 -30.5702 -30.5701 -30.5579 -30.5577 -30.5572 -30.5571
   -30.5569 -30.5561 -30.5530 -30.5528 -30.5437 -30.5429 -30.5423 -30.5419
   -30.5410 -30.5407 -30.5395 -30.5389 -30.5308 -30.5308 -30.5305 -30.5301
   -30.5297 -30.5290 -30.5126 -30.5118 -30.4957 -30.4956 -30.4902 -30.4900
    13.2969  13.2979  13.8108  13.8117  14.3622  14.3624  14.4618  14.4621
    14.4675  14.4675  14.5049  14.5052  14.5588  14.5596  14.5907  14.5908
    14.6095  14.6103  14.7225  14.7226  14.7442  14.7451  14.7885  14.7886
    14.7925  14.7927  14.8017  14.8025  14.8480  14.8486  14.9194  14.9202
    14.9874  14.9876  15.0050  15.0055  15.0739  15.0748  15.0838  15.0840
    15.0947  15.0948  15.3382  15.3383  15.5522  15.5528  15.5575  15.5583
    15.7850  15.7856  15.7924  15.7931  15.8886  15.8890  16.0209  16.0212
    16.0222  16.0225  16.1636  16.1636  16.2401  16.2407  16.3759  16.3764
    16.4231  16.4231  16.4410  16.4411  16.5611  16.5612  16.5960  16.5962
    16.6822  16.6828  16.7222  16.7228  16.7325  16.7327  16.7446  16.7447
    16.7484  16.7486  16.7756  16.7759  16.8331  16.8333  16.8539  16.8539
    16.8879  16.8880  16.9375  16.9377  16.9452  16.9457  16.9518  16.9521
    16.9669  16.9673  16.9889  16.9891  17.0677  17.0680  17.0916  17.0921
    17.0984  17.0986  17.3028  17.3031  17.3996  17.4000  17.4138  17.4142
    17.4385  17.4387  17.4836  17.4841  17.5016  17.5023  17.6072  17.6079
    18.0448  18.0455  18.1427  18.1433  18.3093  18.3098  18.3206  18.3212
    18.3319  18.3326  18.4423  18.4427  18.5487  18.5493  18.5826  18.5833
    18.5917  18.5919  18.6171  18.6178  18.7237  18.7238  18.7892  18.7897
    18.7970  18.7976  18.8561  18.8564  18.8880  18.8883  18.8996  18.8998
    18.9383  18.9386  18.9415  18.9418  18.9561  18.9563  18.9608  18.9609
    19.0029  19.0036  19.0332  19.0333  19.0655  19.0658  19.3063  19.3069
    19.5018  19.5020  19.8736  19.8743  21.1988  21.1992  21.3733  21.3739
    22.4577  22.4582  22.6761  22.6766  23.1511  23.1517  23.3854  23.3859
    24.0875  24.0876  24.3818  24.3819  25.4247  25.4253  26.2848  26.2849
    26.3626  26.3627  26.4133  26.4136  26.5113  26.5114  26.6204  26.6208
    26.7023  26.7029  27.8454  27.8455  29.5623  29.5625  29.6785  29.6794
    29.7502  29.7511  30.1474  30.1475  30.8498  30.8507  30.9626  30.9628
    31.0316  31.0317

          k = 0.0553-0.5000-0.5000 ( 33124 PWs)   bands (ev):

   -64.9490 -64.9487 -64.9483 -64.9480 -64.9289 -64.9286 -64.9281 -64.9278
   -64.9250 -64.9248 -64.9243 -64.9240 -64.9111 -64.9110 -64.9108 -64.9107
   -64.9107 -64.9107 -64.9106 -64.9104 -64.9103 -64.9103 -64.9100 -64.9100
   -64.9100 -64.9099 -64.9098 -64.9096 -64.9049 -64.9046 -64.9042 -64.9039
   -30.7991 -30.7991 -30.7991 -30.7990 -30.7989 -30.7989 -30.7988 -30.7988
   -30.7740 -30.7740 -30.7738 -30.7737 -30.7734 -30.7734 -30.7731 -30.7731
   -30.7690 -30.7687 -30.7683 -30.7679 -30.7591 -30.7589 -30.7587 -30.7585
   -30.7444 -30.7443 -30.7441 -30.7439 -30.6940 -30.6940 -30.6940 -30.6940
   -30.6292 -30.6292 -30.6292 -30.6292 -30.6292 -30.6292 -30.6292 -30.6291
   -30.6268 -30.6268 -30.6266 -30.6265 -30.6261 -30.6260 -30.6258 -30.6257
   -30.6007 -30.6007 -30.6007 -30.6006 -30.5912 -30.5912 -30.5909 -30.5909
   -30.5906 -30.5905 -30.5904 -30.5903 -30.5878 -30.5878 -30.5877 -30.5877
   -30.5649 -30.5649 -30.5647 -30.5647 -30.5644 -30.5643 -30.5642 -30.5641
   -30.5503 -30.5502 -30.5499 -30.5498 -30.5439 -30.5438 -30.5438 -30.5438
   -30.5357 -30.5356 -30.5355 -30.5355 -30.5352 -30.5349 -30.5347 -30.5347
   -30.5210 -30.5207 -30.5203 -30.5200 -30.4913 -30.4913 -30.4913 -30.4913
    13.5329  13.5335  13.5338  13.5344  14.4003  14.4004  14.4005  14.4007
    14.5172  14.5172  14.5173  14.5173  14.5973  14.5974  14.5975  14.5976
    14.7276  14.7276  14.7281  14.7282  14.7283  14.7284  14.7288  14.7289
    14.8924  14.8925  14.8929  14.8931  14.8931  14.8933  14.8937  14.8937
    14.9332  14.9333  14.9333  14.9333  14.9334  14.9334  14.9334  14.9335
    15.1584  15.1585  15.1585  15.1586  15.6626  15.6626  15.6630  15.6631
    15.6633  15.6633  15.6637  15.6638  15.9705  15.9708  15.9708  15.9709
    16.2019  16.2023  16.2025  16.2029  16.3878  16.3881  16.3884  16.3887
    16.5103  16.5104  16.5106  16.5107  16.5200  16.5201  16.5202  16.5204
    16.7349  16.7352  16.7353  16.7356  16.7792  16.7792  16.7793  16.7793
    16.7793  16.7794  16.7795  16.7795  16.8435  16.8436  16.8436  16.8439
    16.8565  16.8566  16.8569  16.8569  16.9626  16.9627  16.9630  16.9631
    17.0695  17.0695  17.0696  17.0698  17.0699  17.0700  17.0700  17.0701
    17.2137  17.2140  17.2140  17.2143  17.2355  17.2355  17.2357  17.2357
    17.2359  17.2359  17.2361  17.2361  17.5519  17.5521  17.5526  17.5528
    18.1896  18.1898  18.1903  18.1905  18.2673  18.2675  18.2677  18.2679
    18.4730  18.4731  18.4731  18.4733  18.4735  18.4737  18.4737  18.4738
    18.7887  18.7888  18.7892  18.7893  18.8124  18.8124  18.8125  18.8127
    18.8129  18.8131  18.8132  18.8132  18.9265  18.9266  18.9269  18.9270
    18.9640  18.9642  18.9642  18.9643  18.9675  18.9676  18.9676  18.9676
    18.9677  18.9678  18.9678  18.9678  19.0300  19.0302  19.0304  19.0306
    19.6088  19.6090  19.6092  19.6094  21.9127  21.9129  21.9130  21.9131
    21.9133  21.9133  21.9135  21.9136  23.8547  23.8548  23.8548  23.8550
    23.8550  23.8551  23.8552  23.8552  25.9507  25.9512  25.9514  25.9519
    26.3171  26.3171  26.3172  26.3173  26.3173  26.3174  26.3174  26.3175
    27.1216  27.1219  27.1220  27.1221  29.6972  29.6975  29.6981  29.6984
    30.2708  30.2709  30.2709  30.2710  30.8598  30.8599  30.8599  30.8600
    31.4051  31.4052

          k = 0.1660 0.0556 0.0556 ( 33127 PWs)   bands (ev):

   -64.9645 -64.9425 -64.9362 -64.9362 -64.9308 -64.9308 -64.9264 -64.9242
   -64.9242 -64.9212 -64.9208 -64.9207 -64.9191 -64.9184 -64.9184 -64.9181
   -64.9180 -64.9177 -64.9159 -64.9154 -64.9153 -64.9133 -64.9132 -64.9046
   -64.9035 -64.9035 -64.9033 -64.9032 -64.9026 -64.9025 -64.9023 -64.9022
   -30.8445 -30.8428 -30.8428 -30.8397 -30.8243 -30.8243 -30.8212 -30.7631
   -30.7581 -30.7581 -30.7522 -30.7522 -30.7512 -30.7512 -30.7503 -30.7500
   -30.7500 -30.7385 -30.7385 -30.7358 -30.7357 -30.7313 -30.7313 -30.7274
   -30.7274 -30.7165 -30.7165 -30.7107 -30.7107 -30.7028 -30.6989 -30.6989
   -30.6792 -30.6792 -30.6654 -30.6654 -30.6503 -30.6503 -30.6496 -30.6495
   -30.6379 -30.6248 -30.6248 -30.6239 -30.6239 -30.6206 -30.6206 -30.6179
   -30.6178 -30.6163 -30.6162 -30.6151 -30.6144 -30.6143 -30.6142 -30.6141
   -30.6139 -30.6132 -30.6101 -30.6061 -30.6061 -30.5657 -30.5652 -30.5589
   -30.5589 -30.5512 -30.5512 -30.5470 -30.5470 -30.5463 -30.5463 -30.5437
   -30.5436 -30.5418 -30.5392 -30.5391 -30.5386 -30.5385 -30.5376 -30.5354
   -30.5334 -30.5329 -30.5329 -30.5327 -30.5326 -30.5316 -30.5315 -30.5302
   -30.5298 -30.5295 -30.5260 -30.5229 -30.5229 -30.4880 -30.4815 -30.4809
    12.2902  13.9344  14.0104  14.0225  14.0226  14.0704  14.0977  14.0977
    14.1110  14.2775  14.2923  14.2923  14.2972  14.2973  14.4932  14.4933
    14.4995  14.8906  14.8906  14.9522  15.0231  15.0232  15.0302  15.0303
    15.0521  15.1323  15.1324  15.1677  15.1678  15.1713  15.1782  15.1782
    15.3245  15.3246  15.3499  15.3500  15.3576  15.3577  15.3949  15.3949
    15.4397  15.4397  15.4972  15.6906  15.6906  15.7172  15.7172  15.7630
    15.7631  15.7723  15.7723  15.8293  15.8294  15.9171  15.9171  15.9208
    15.9651  15.9651  16.0107  16.0258  16.0258  16.0261  16.0262  16.0738
    16.0739  16.1133  16.1133  16.1454  16.1455  16.2867  16.3125  16.3125
    16.3263  16.3263  16.3359  16.3466  16.3466  16.3477  16.3923  16.4015
    16.4051  16.4204  16.4204  16.4361  16.4506  16.4514  16.4514  16.4563
    17.0240  17.0241  17.1237  17.1340  17.1588  17.1589  17.2124  17.2124
    17.2293  17.2783  17.2848  17.2848  17.4051  17.4159  17.4160  17.4286
    17.4287  17.4660  17.4661  17.4693  17.4694  17.6855  17.6856  17.6968
    17.7092  17.7093  17.7822  17.7823  17.8631  17.8632  17.8680  17.8680
    17.8717  17.8717  17.8720  17.9554  17.9590  17.9590  17.9673  17.9968
    18.0790  18.0791  18.0917  18.0917  18.1201  18.1202  18.1821  18.1918
    18.1918  18.2224  18.3484  18.4741  18.4741  18.6029  18.6029  18.6106
    18.6441  18.6572  18.6572  18.8731  18.9749  18.9749  18.9908  19.0164
    19.0496  19.0549  19.0549  19.0773  19.0773  19.2419  19.2890  19.2891
    19.2908  19.2908  19.3080  19.3788  19.3789  19.3811  19.3811  20.0378
    20.3927  20.3928  20.5202  20.5202  20.7496  20.8478  20.8741  20.8742
    21.3654  21.3654  21.8995  21.9232  21.9233  22.0764  22.4626  22.4627
    22.8001  22.8001  26.2111  26.3701  26.3701  26.6267  26.6267  26.6589
    26.6589  26.6648  27.2196  27.2196  27.5379  27.5379  28.2225  28.2227
    28.6987  28.6987  29.5404  29.5404  29.5936  29.6461  29.6461  29.7932
    29.7933  29.8591  29.8591  30.0024  30.0850  30.0850  30.1377  30.1377
    30.6338  30.6339

          k = 0.1660 0.0556 0.1667 ( 33137 PWs)   bands (ev):

   -64.9636 -64.9419 -64.9415 -64.9357 -64.9304 -64.9276 -64.9260 -64.9255
   -64.9241 -64.9240 -64.9207 -64.9206 -64.9201 -64.9186 -64.9176 -64.9175
   -64.9172 -64.9170 -64.9154 -64.9154 -64.9135 -64.9134 -64.9113 -64.9046
   -64.9039 -64.9038 -64.9036 -64.9034 -64.9032 -64.9030 -64.9028 -64.9022
   -30.8418 -30.8418 -30.8372 -30.8325 -30.8212 -30.8196 -30.8182 -30.7656
   -30.7636 -30.7633 -30.7609 -30.7538 -30.7516 -30.7508 -30.7504 -30.7497
   -30.7485 -30.7481 -30.7473 -30.7467 -30.7402 -30.7395 -30.7394 -30.7374
   -30.7140 -30.7081 -30.7078 -30.7072 -30.7060 -30.7037 -30.7012 -30.6960
   -30.6932 -30.6844 -30.6808 -30.6570 -30.6520 -30.6516 -30.6382 -30.6378
   -30.6351 -30.6339 -30.6294 -30.6226 -30.6217 -30.6211 -30.6186 -30.6149
   -30.6143 -30.6141 -30.6139 -30.6134 -30.6128 -30.6120 -30.6113 -30.6102
   -30.6096 -30.6092 -30.5973 -30.5964 -30.5917 -30.5712 -30.5684 -30.5634
   -30.5631 -30.5557 -30.5533 -30.5524 -30.5467 -30.5467 -30.5461 -30.5447
   -30.5434 -30.5426 -30.5424 -30.5423 -30.5417 -30.5408 -30.5375 -30.5363
   -30.5357 -30.5355 -30.5340 -30.5331 -30.5323 -30.5317 -30.5305 -30.5304
   -30.5263 -30.5262 -30.5232 -30.5219 -30.5165 -30.4959 -30.4835 -30.4807
    12.3627  13.9872  13.9993  14.0570  14.0571  14.0642  14.0831  14.1243
    14.1639  14.1640  14.3192  14.3197  14.3371  14.3377  14.5315  14.5521
    14.5633  14.9140  14.9242  14.9332  14.9455  14.9658  14.9662  14.9824
    14.9933  15.0080  15.0638  15.0640  15.0784  15.0796  15.2035  15.2048
    15.2070  15.2122  15.2155  15.2674  15.3810  15.4067  15.4067  15.4087
    15.4114  15.4394  15.4412  15.5154  15.5348  15.6667  15.6751  15.7562
    15.7577  15.7682  15.8544  15.8617  15.8692  15.8749  15.9320  15.9377
    15.9448  15.9966  16.0062  16.0136  16.0209  16.0628  16.0731  16.1693
    16.2139  16.2177  16.2460  16.2563  16.2677  16.2687  16.3203  16.3296
    16.3732  16.3745  16.3747  16.3779  16.3786  16.3869  16.3961  16.4111
    16.4371  16.4457  16.4463  16.4506  16.4524  16.4707  16.4814  16.4846
    16.9209  16.9666  16.9826  17.0298  17.1229  17.1389  17.2328  17.2459
    17.2522  17.2658  17.2684  17.3119  17.3223  17.3349  17.3459  17.3879
    17.3900  17.4072  17.4790  17.5482  17.5606  17.5629  17.5784  17.5810
    17.5991  17.8584  17.8591  17.8675  17.8721  17.8799  17.9468  17.9506
    17.9508  17.9606  17.9668  17.9730  17.9738  17.9749  18.0541  18.0595
    18.0809  18.0820  18.2591  18.2654  18.2993  18.3111  18.3175  18.3189
    18.3584  18.3592  18.3635  18.3748  18.4192  18.4232  18.4510  18.4894
    18.6125  18.7204  18.7724  18.7767  18.9036  18.9085  18.9113  18.9255
    19.0262  19.0500  19.0513  19.0639  19.0693  19.0852  19.2321  19.2330
    19.2875  19.2927  19.3066  19.3080  19.3107  19.3183  19.3310  19.7548
    19.9641  20.3616  20.3795  20.4173  20.8508  20.8729  21.0415  21.0427
    21.4157  21.4205  21.9111  21.9444  22.3677  22.4354  22.4512  22.4870
    23.0457  23.0615  26.0024  26.0406  26.2092  26.2111  26.6713  26.7167
    26.7812  26.7955  26.8257  27.0718  27.3488  27.4139  27.7854  27.8189
    28.8261  28.8630  29.0741  29.1305  29.5223  29.6132  29.6268  29.6696
    29.7592  29.7631  29.9534  29.9863  29.9940  30.1051  30.4249  30.4537
    30.7100  30.7751

          k = 0.1660 0.0556 0.2778 ( 33126 PWs)   bands (ev):

   -64.9617 -64.9466 -64.9407 -64.9347 -64.9309 -64.9296 -64.9267 -64.9253
   -64.9237 -64.9229 -64.9210 -64.9206 -64.9204 -64.9194 -64.9190 -64.9169
   -64.9164 -64.9155 -64.9139 -64.9137 -64.9127 -64.9113 -64.9093 -64.9054
   -64.9048 -64.9046 -64.9045 -64.9042 -64.9037 -64.9035 -64.9031 -64.9022
   -30.8364 -30.8350 -30.8279 -30.8216 -30.8150 -30.8126 -30.8102 -30.7809
   -30.7772 -30.7670 -30.7656 -30.7654 -30.7649 -30.7643 -30.7560 -30.7536
   -30.7535 -30.7485 -30.7474 -30.7453 -30.7452 -30.7414 -30.7412 -30.7337
   -30.7273 -30.7118 -30.7111 -30.7032 -30.6989 -30.6979 -30.6955 -30.6936
   -30.6905 -30.6856 -30.6761 -30.6685 -30.6645 -30.6513 -30.6488 -30.6367
   -30.6335 -30.6324 -30.6251 -30.6208 -30.6188 -30.6181 -30.6144 -30.6137
   -30.6134 -30.6128 -30.6098 -30.6050 -30.6023 -30.6012 -30.6001 -30.5971
   -30.5965 -30.5941 -30.5836 -30.5835 -30.5831 -30.5779 -30.5752 -30.5739
   -30.5601 -30.5591 -30.5584 -30.5573 -30.5551 -30.5546 -30.5538 -30.5527
   -30.5496 -30.5458 -30.5456 -30.5432 -30.5430 -30.5421 -30.5390 -30.5380
   -30.5374 -30.5363 -30.5358 -30.5356 -30.5321 -30.5306 -30.5300 -30.5240
   -30.5223 -30.5209 -30.5203 -30.5147 -30.5125 -30.5083 -30.4878 -30.4830
    12.5059  13.6525  14.0898  14.1237  14.1362  14.1457  14.1478  14.1907
    14.2556  14.2681  14.3739  14.4023  14.4142  14.4258  14.5309  14.6030
    14.6543  14.7367  14.7648  14.7964  14.8172  14.8311  14.8361  14.8680
    14.9556  14.9715  14.9944  15.0041  15.0168  15.0427  15.1261  15.1332
    15.1432  15.1535  15.1885  15.2343  15.2800  15.2952  15.3269  15.4296
    15.4435  15.4496  15.4928  15.5498  15.5989  15.6177  15.6191  15.7158
    15.7164  15.7272  15.7445  15.7581  15.8108  15.8656  15.8817  15.9228
    15.9239  15.9331  16.0198  16.0768  16.1155  16.1288  16.1706  16.1830
    16.1904  16.1998  16.2225  16.2449  16.2767  16.2972  16.3051  16.3265
    16.3527  16.3887  16.4328  16.4436  16.4817  16.4921  16.4954  16.5014
    16.5428  16.5548  16.5582  16.5655  16.5868  16.6866  16.7654  16.7861
    16.8114  16.8280  16.8579  16.9476  16.9510  17.0425  17.0592  17.0743
    17.1475  17.1652  17.1893  17.2576  17.2627  17.3386  17.3405  17.4501
    17.4620  17.4785  17.4927  17.5355  17.5830  17.6666  17.7209  17.7218
    17.7399  17.8161  17.8275  17.8434  17.8768  17.9191  17.9612  17.9630
    17.9880  18.0345  18.0410  18.0778  18.0879  18.0958  18.0994  18.1089
    18.1142  18.1460  18.2164  18.2526  18.2804  18.3113  18.3407  18.4077
    18.4169  18.4422  18.4459  18.4535  18.4642  18.4795  18.4801  18.5639
    18.5860  18.5951  18.6924  18.7677  18.8030  18.8248  18.9010  18.9242
    18.9904  19.0284  19.0284  19.0339  19.1184  19.1262  19.1263  19.1329
    19.1741  19.1779  19.2096  19.2864  19.2946  19.3033  19.3037  19.5774
    19.7819  19.9495  20.2988  20.4114  20.4414  20.8036  20.9302  21.3257
    21.5253  21.8277  21.8813  22.0414  22.4176  22.5942  22.8462  23.1381
    23.5136  23.6839  25.2074  25.3567  25.8802  26.1118  26.2140  26.3817
    26.3870  26.8668  27.0334  27.0832  27.1009  27.5575  27.5784  28.2405
    28.3161  28.5787  28.7719  28.9551  29.0594  29.1161  29.4101  29.5810
    29.7601  29.8619  29.8690  29.9766  30.0881  30.3541  30.4391  30.4754
    30.6852  30.7126

          k = 0.1660 0.0556 0.3889 ( 33144 PWs)   bands (ev):

   -64.9590 -64.9513 -64.9389 -64.9339 -64.9333 -64.9292 -64.9284 -64.9249
   -64.9243 -64.9233 -64.9217 -64.9212 -64.9204 -64.9194 -64.9166 -64.9157
   -64.9156 -64.9156 -64.9141 -64.9109 -64.9103 -64.9092 -64.9080 -64.9075
   -64.9062 -64.9060 -64.9058 -64.9045 -64.9045 -64.9037 -64.9030 -64.9023
   -30.8272 -30.8245 -30.8151 -30.8074 -30.8060 -30.8043 -30.7984 -30.7968
   -30.7945 -30.7822 -30.7811 -30.7806 -30.7721 -30.7649 -30.7629 -30.7579
   -30.7579 -30.7571 -30.7561 -30.7521 -30.7431 -30.7400 -30.7347 -30.7300
   -30.7191 -30.7175 -30.7131 -30.7082 -30.7053 -30.6962 -30.6874 -30.6827
   -30.6826 -30.6825 -30.6766 -30.6709 -30.6641 -30.6615 -30.6603 -30.6488
   -30.6462 -30.6344 -30.6142 -30.6135 -30.6131 -30.6127 -30.6118 -30.6112
   -30.6049 -30.6036 -30.6019 -30.5940 -30.5939 -30.5910 -30.5902 -30.5888
   -30.5861 -30.5851 -30.5821 -30.5805 -30.5727 -30.5717 -30.5691 -30.5686
   -30.5682 -30.5680 -30.5677 -30.5654 -30.5653 -30.5648 -30.5647 -30.5543
   -30.5525 -30.5520 -30.5458 -30.5447 -30.5447 -30.5435 -30.5433 -30.5422
   -30.5412 -30.5398 -30.5346 -30.5331 -30.5328 -30.5300 -30.5282 -30.5251
   -30.5247 -30.5213 -30.5159 -30.5115 -30.5112 -30.5041 -30.4940 -30.4879
    12.7158  13.3043  14.2169  14.2293  14.2359  14.2636  14.2777  14.2964
    14.3847  14.4076  14.4401  14.4539  14.5180  14.5265  14.5321  14.5565
    14.5849  14.6146  14.6179  14.6212  14.6850  14.6984  14.7463  14.7568
    14.7779  14.7992  14.8936  14.9106  14.9260  15.0074  15.1218  15.1335
    15.1379  15.1593  15.2015  15.2577  15.2594  15.3818  15.3952  15.4138
    15.4421  15.4620  15.5167  15.5374  15.5509  15.5630  15.5647  15.5727
    15.5969  15.6506  15.7029  15.7358  15.7402  15.8022  15.8886  15.9051
    15.9390  15.9830  16.0899  16.0999  16.1237  16.1502  16.1704  16.1714
    16.1769  16.1818  16.2171  16.2693  16.2724  16.2743  16.2993  16.3172
    16.3735  16.3899  16.4096  16.5207  16.5367  16.5814  16.5843  16.6098
    16.6159  16.6282  16.6649  16.6690  16.6844  16.7472  16.7503  16.7601
    16.8524  16.8642  16.8700  16.9543  16.9789  16.9996  17.0362  17.0560
    17.2148  17.2382  17.2602  17.2737  17.2882  17.3056  17.4046  17.4936
    17.4976  17.5137  17.5787  17.6271  17.6749  17.6892  17.6976  17.6980
    17.7190  17.7214  17.7727  17.8047  17.8431  17.8666  17.8706  17.8758
[...]
    23.4365  23.4365  24.1729  24.1731  24.3189  24.3190  24.9475  24.9477
    26.4990  26.4991  26.6404  26.6405  26.8346  26.8347  27.3637  27.3638
    27.6760  27.6762  28.1445  28.1446  28.4412  28.4413  29.0820  29.0822
    29.2651  29.2651  29.8780  29.8780  30.1629  30.1629  30.3988  30.3990
    31.2887  31.2889

          k =-0.4979 0.2778-0.5000 ( 33156 PWs)   bands (ev):

   -64.9471 -64.9469 -64.9463 -64.9461 -64.9362 -64.9360 -64.9354 -64.9352
   -64.9172 -64.9171 -64.9165 -64.9163 -64.9115 -64.9113 -64.9112 -64.9110
   -64.9109 -64.9108 -64.9107 -64.9106 -64.9105 -64.9105 -64.9104 -64.9102
   -64.9102 -64.9100 -64.9099 -64.9097 -64.9063 -64.9062 -64.9056 -64.9054
   -30.7949 -30.7949 -30.7948 -30.7948 -30.7939 -30.7939 -30.7935 -30.7935
   -30.7808 -30.7807 -30.7806 -30.7804 -30.7804 -30.7803 -30.7800 -30.7798
   -30.7784 -30.7782 -30.7779 -30.7778 -30.7768 -30.7767 -30.7762 -30.7761
   -30.7085 -30.7084 -30.7081 -30.7080 -30.6690 -30.6690 -30.6689 -30.6688
   -30.6295 -30.6294 -30.6293 -30.6292 -30.6292 -30.6291 -30.6289 -30.6288
   -30.6285 -30.6285 -30.6284 -30.6284 -30.6280 -30.6279 -30.6275 -30.6274
   -30.6247 -30.6246 -30.6245 -30.6245 -30.5866 -30.5865 -30.5863 -30.5862
   -30.5859 -30.5859 -30.5859 -30.5859 -30.5846 -30.5845 -30.5839 -30.5838
   -30.5831 -30.5829 -30.5828 -30.5826 -30.5687 -30.5687 -30.5680 -30.5679
   -30.5668 -30.5666 -30.5665 -30.5664 -30.5619 -30.5619 -30.5619 -30.5619
   -30.5204 -30.5203 -30.5203 -30.5203 -30.5132 -30.5130 -30.5128 -30.5126
   -30.5117 -30.5115 -30.5110 -30.5109 -30.4964 -30.4964 -30.4964 -30.4964
    13.6323  13.6327  13.6332  13.6335  14.1258  14.1260  14.1263  14.1265
    14.6460  14.6461  14.6461  14.6461  14.6628  14.6628  14.6631  14.6632
    14.6652  14.6652  14.6659  14.6659  14.6712  14.6712  14.6713  14.6714
    14.8167  14.8169  14.8169  14.8170  14.8171  14.8171  14.8175  14.8176
    15.1292  15.1292  15.1300  15.1300  15.1316  15.1316  15.1320  15.1320
    15.2327  15.2327  15.2328  15.2328  15.6687  15.6690  15.6694  15.6697
    15.6718  15.6721  15.6725  15.6727  15.7991  15.7993  15.7997  15.7999
    16.1061  16.1063  16.1063  16.1064  16.5175  16.5176  16.5178  16.5179
    16.6520  16.6520  16.6521  16.6521  16.6530  16.6531  16.6533  16.6534
    16.7004  16.7004  16.7008  16.7009  16.7143  16.7144  16.7146  16.7147
    16.7179  16.7180  16.7181  16.7182  16.7271  16.7273  16.7275  16.7276
    16.7494  16.7495  16.7495  16.7497  17.0106  17.0107  17.0108  17.0109
    17.0235  17.0236  17.0240  17.0242  17.1071  17.1073  17.1074  17.1076
    17.2227  17.2228  17.2231  17.2232  17.3703  17.3703  17.3706  17.3706
    17.3773  17.3774  17.3776  17.3777  17.7390  17.7391  17.7396  17.7397
    17.9404  17.9405  17.9410  17.9411  17.9795  17.9796  17.9797  17.9798
    17.9871  17.9872  17.9878  17.9879  18.1994  18.1995  18.1998  18.1999
    18.2517  18.2518  18.2521  18.2521  18.4528  18.4529  18.4533  18.4534
    19.0592  19.0592  19.0592  19.0593  19.0632  19.0633  19.0634  19.0635
    19.0836  19.0838  19.0839  19.0840  19.1023  19.1023  19.1028  19.1028
    19.1092  19.1093  19.1094  19.1095  19.1218  19.1218  19.1221  19.1222
    21.0507  21.0508  21.0512  21.0514  22.1452  22.1453  22.1457  22.1458
    22.1751  22.1753  22.1756  22.1758  23.3783  23.3783  23.3789  23.3790
    23.4107  23.4109  23.4110  23.4111  24.5667  24.5669  24.5673  24.5675
    26.9595  26.9596  26.9602  26.9603  26.9943  26.9945  26.9945  26.9946
    27.4332  27.4334  27.4335  27.4336  29.1262  29.1263  29.1264  29.1264
    29.6819  29.6819  29.6827  29.6828  29.7188  29.7189  29.7190  29.7191
    31.3898  31.3903

          k =-0.4979 0.3889 0.3889 ( 33100 PWs)   bands (ev):

   -64.9475 -64.9473 -64.9415 -64.9414 -64.9413 -64.9412 -64.9364 -64.9362
   -64.9139 -64.9138 -64.9137 -64.9135 -64.9132 -64.9131 -64.9130 -64.9128
   -64.9115 -64.9113 -64.9112 -64.9110 -64.9106 -64.9104 -64.9103 -64.9101
   -64.9084 -64.9082 -64.9082 -64.9080 -64.9076 -64.9075 -64.9074 -64.9072
   -30.7963 -30.7963 -30.7931 -30.7931 -30.7929 -30.7929 -30.7858 -30.7857
   -30.7857 -30.7856 -30.7843 -30.7842 -30.7841 -30.7840 -30.7827 -30.7826
   -30.7826 -30.7826 -30.7785 -30.7783 -30.7775 -30.7775 -30.7774 -30.7773
   -30.7082 -30.7081 -30.6662 -30.6662 -30.6661 -30.6661 -30.6509 -30.6509
   -30.6508 -30.6508 -30.6471 -30.6471 -30.6471 -30.6470 -30.6328 -30.6328
   -30.6327 -30.6327 -30.6255 -30.6255 -30.6243 -30.6242 -30.6229 -30.6228
   -30.6097 -30.6097 -30.6096 -30.6096 -30.6066 -30.6066 -30.6065 -30.6065
   -30.5867 -30.5867 -30.5866 -30.5865 -30.5821 -30.5819 -30.5773 -30.5772
   -30.5772 -30.5772 -30.5752 -30.5752 -30.5751 -30.5750 -30.5728 -30.5727
   -30.5727 -30.5727 -30.5655 -30.5654 -30.5654 -30.5654 -30.5647 -30.5645
   -30.5172 -30.5172 -30.5145 -30.5145 -30.5144 -30.5144 -30.5091 -30.5090
   -30.5040 -30.5040 -30.5040 -30.5039 -30.5027 -30.5025 -30.4989 -30.4988
    13.5650  13.5653  13.9153  13.9154  13.9155  13.9156  14.0646  14.0648
    14.5962  14.5965  14.6210  14.6210  14.6210  14.6210  14.7030  14.7030
    14.7031  14.7031  14.7136  14.7136  14.7138  14.7138  14.7506  14.7508
    14.7613  14.7613  14.7614  14.7614  14.7640  14.7641  14.7643  14.7644
    15.1148  15.1152  15.1598  15.1599  15.1599  15.1599  15.4484  15.4485
    15.4485  15.4486  15.4572  15.4573  15.4576  15.4577  15.4749  15.4750
    15.4751  15.4751  15.6948  15.6951  15.7377  15.7378  15.7380  15.7380
    16.1700  16.1702  16.2678  16.2678  16.2679  16.2680  16.5922  16.5923
    16.6632  16.6632  16.6922  16.6923  16.7080  16.7081  16.7081  16.7081
    16.7176  16.7176  16.7177  16.7177  16.7266  16.7268  16.7286  16.7286
    16.7287  16.7287  16.7295  16.7295  16.7296  16.7296  16.7306  16.7307
    16.7906  16.7907  16.7907  16.7907  16.8043  16.8044  16.8315  16.8316
    16.8317  16.8318  17.1360  17.1361  17.1362  17.1362  17.1685  17.1687
    17.2836  17.2837  17.2838  17.2839  17.3163  17.3164  17.5634  17.5635
    17.5635  17.5636  17.6350  17.6351  17.6351  17.6352  17.6671  17.6671
    17.6671  17.6672  17.8569  17.8570  17.8896  17.8897  17.9339  17.9340
    17.9340  17.9340  17.9341  17.9341  17.9341  17.9342  18.0605  18.0607
    18.1603  18.1603  18.2995  18.2995  18.2995  18.2996  18.4042  18.4043
    19.0852  19.0852  19.0853  19.0853  19.0981  19.0982  19.1031  19.1031
    19.1032  19.1032  19.1352  19.1352  19.1353  19.1353  19.1358  19.1358
    19.1359  19.1359  19.1689  19.1689  19.1691  19.1691  19.1870  19.1870
    21.5989  21.5990  21.5991  21.5991  22.0171  22.0173  22.1880  22.1881
    22.1882  22.1883  22.8216  22.8217  22.8217  22.8218  23.2685  23.2686
    23.3058  23.3058  23.3060  23.3060  24.0116  24.0116  24.0118  24.0118
    26.9416  26.9417  27.1297  27.1297  27.1298  27.1298  27.9476  27.9477
    27.9480  27.9481  28.2660  28.2662  28.2662  28.2664  28.4720  28.4721
    28.4722  28.4723  29.3558  29.3558  29.3559  29.3559  29.6324  29.6326
    32.0330  32.0331

          k =-0.4979 0.3889-0.5000 ( 33144 PWs)   bands (ev):

   -64.9451 -64.9449 -64.9443 -64.9441 -64.9396 -64.9394 -64.9388 -64.9386
   -64.9139 -64.9137 -64.9131 -64.9129 -64.9115 -64.9113 -64.9112 -64.9110
   -64.9109 -64.9108 -64.9107 -64.9106 -64.9105 -64.9105 -64.9104 -64.9102
   -64.9101 -64.9100 -64.9099 -64.9097 -64.9083 -64.9081 -64.9075 -64.9073
   -30.7913 -30.7912 -30.7912 -30.7911 -30.7900 -30.7900 -30.7895 -30.7895
   -30.7858 -30.7856 -30.7853 -30.7853 -30.7852 -30.7851 -30.7848 -30.7846
   -30.7825 -30.7823 -30.7821 -30.7820 -30.7809 -30.7808 -30.7803 -30.7802
   -30.6873 -30.6873 -30.6870 -30.6870 -30.6498 -30.6497 -30.6496 -30.6495
   -30.6442 -30.6442 -30.6440 -30.6439 -30.6294 -30.6294 -30.6292 -30.6292
   -30.6291 -30.6290 -30.6288 -30.6287 -30.6287 -30.6286 -30.6286 -30.6285
   -30.6284 -30.6284 -30.6283 -30.6282 -30.6075 -30.6074 -30.6072 -30.6071
   -30.5816 -30.5816 -30.5816 -30.5816 -30.5807 -30.5807 -30.5799 -30.5799
   -30.5786 -30.5785 -30.5784 -30.5783 -30.5723 -30.5722 -30.5715 -30.5715
   -30.5700 -30.5698 -30.5698 -30.5697 -30.5693 -30.5693 -30.5693 -30.5693
   -30.5129 -30.5129 -30.5128 -30.5128 -30.5077 -30.5076 -30.5075 -30.5074
   -30.5073 -30.5072 -30.5069 -30.5067 -30.5006 -30.5006 -30.5006 -30.5006
    13.7289  13.7292  13.7297  13.7300  13.9830  13.9832  13.9836  13.9838
    14.6664  14.6664  14.6667  14.6667  14.6691  14.6691  14.6698  14.6698
    14.6776  14.6776  14.6777  14.6777  14.6992  14.6993  14.6994  14.6994
    14.7488  14.7490  14.7491  14.7493  14.7502  14.7503  14.7508  14.7509
    15.2872  15.2873  15.2880  15.2881  15.2907  15.2909  15.2911  15.2913
    15.3230  15.3231  15.3232  15.3233  15.5893  15.5895  15.5900  15.5902
    15.5902  15.5905  15.5907  15.5910  15.6104  15.6106  15.6109  15.6111
    16.2345  16.2347  16.2347  16.2347  16.4828  16.4829  16.4830  16.4831
    16.6608  16.6610  16.6610  16.6611  16.6891  16.6892  16.6897  16.6898
    16.6916  16.6917  16.6918  16.6919  16.7204  16.7205  16.7205  16.7207
    16.7537  16.7538  16.7539  16.7539  16.7607  16.7608  16.7609  16.7610
    16.7736  16.7737  16.7739  16.7741  16.9469  16.9470  16.9470  16.9471
    16.9645  16.9646  16.9651  16.9652  16.9963  16.9964  16.9965  16.9967
    17.3934  17.3935  17.3938  17.3939  17.4567  17.4568  17.4570  17.4571
    17.4697  17.4698  17.4700  17.4701  17.7503  17.7504  17.7505  17.7506
    17.7619  17.7620  17.7624  17.7625  17.7640  17.7641  17.7646  17.7647
    17.9011  17.9012  17.9017  17.9018  18.1026  18.1027  18.1030  18.1030
    18.1353  18.1354  18.1358  18.1359  18.2674  18.2675  18.2679  18.2680
    19.1229  19.1230  19.1231  19.1232  19.1282  19.1283  19.1284  19.1285
    19.1409  19.1410  19.1412  19.1413  19.1623  19.1624  19.1627  19.1628
    19.1646  19.1647  19.1649  19.1650  19.1690  19.1691  19.1692  19.1693
    21.8721  21.8723  21.8727  21.8729  22.4026  22.4027  22.4031  22.4033
    22.4351  22.4353  22.4355  22.4357  23.0468  23.0469  23.0475  23.0475
    23.0817  23.0819  23.0820  23.0822  23.6546  23.6548  23.6552  23.6554
    27.5057  27.5058  27.5064  27.5065  27.5437  27.5439  27.5439  27.5441
    27.7534  27.7535  27.7537  27.7537  28.6144  28.6145  28.6147  28.6147
    28.8813  28.8813  28.8821  28.8821  28.9193  28.9194  28.9195  28.9196
    32.4603  32.4606

          k =-0.4979-0.5000-0.5000 ( 33120 PWs)   bands (ev):

   -64.9427 -64.9425 -64.9424 -64.9423 -64.9420 -64.9417 -64.9416 -64.9415
   -64.9117 -64.9115 -64.9114 -64.9112 -64.9110 -64.9110 -64.9109 -64.9108
   -64.9107 -64.9107 -64.9106 -64.9106 -64.9105 -64.9104 -64.9104 -64.9102
   -64.9102 -64.9101 -64.9099 -64.9099 -64.9099 -64.9098 -64.9097 -64.9095
   -30.7872 -30.7871 -30.7871 -30.7871 -30.7870 -30.7870 -30.7869 -30.7868
   -30.7868 -30.7867 -30.7867 -30.7866 -30.7866 -30.7865 -30.7865 -30.7865
   -30.7854 -30.7853 -30.7852 -30.7852 -30.7849 -30.7849 -30.7847 -30.7846
   -30.6657 -30.6656 -30.6656 -30.6655 -30.6654 -30.6653 -30.6653 -30.6652
   -30.6293 -30.6293 -30.6292 -30.6292 -30.6291 -30.6290 -30.6290 -30.6289
   -30.6289 -30.6289 -30.6288 -30.6288 -30.6288 -30.6288 -30.6287 -30.6287
   -30.6286 -30.6286 -30.6286 -30.6286 -30.6285 -30.6285 -30.6285 -30.6284
   -30.5764 -30.5764 -30.5764 -30.5764 -30.5762 -30.5762 -30.5762 -30.5762
   -30.5759 -30.5759 -30.5759 -30.5758 -30.5756 -30.5756 -30.5756 -30.5756
   -30.5740 -30.5740 -30.5739 -30.5739 -30.5738 -30.5738 -30.5737 -30.5737
   -30.5069 -30.5068 -30.5067 -30.5067 -30.5064 -30.5064 -30.5061 -30.5061
   -30.5055 -30.5054 -30.5054 -30.5053 -30.5053 -30.5052 -30.5052 -30.5052
    13.8478  13.8482  13.8484  13.8486  13.8486  13.8489  13.8491  13.8493
    14.6962  14.6963  14.6964  14.6965  14.6965  14.6966  14.6967  14.6967
    14.6985  14.6986  14.6986  14.6986  14.6987  14.6987  14.6988  14.6988
    14.6991  14.6991  14.6992  14.6992  14.6993  14.6993  14.6993  14.6994
    15.4491  15.4492  15.4494  15.4494  15.4495  15.4495  15.4496  15.4497
    15.4498  15.4499  15.4499  15.4501  15.4502  15.4503  15.4503  15.4503
    15.4524  15.4527  15.4528  15.4529  15.4531  15.4531  15.4532  15.4534
    16.3758  16.3760  16.3760  16.3760  16.3760  16.3761  16.3761  16.3761
    16.6660  16.6660  16.6661  16.6661  16.6662  16.6662  16.6662  16.6664
    16.6990  16.6990  16.6991  16.6991  16.6992  16.6993  16.6993  16.6995
    16.8545  16.8546  16.8546  16.8547  16.8548  16.8548  16.8548  16.8550
    16.8730  16.8731  16.8731  16.8732  16.8732  16.8733  16.8733  16.8734
    16.8734  16.8735  16.8735  16.8736  16.8736  16.8737  16.8737  16.8738
    17.5757  17.5757  17.5758  17.5758  17.5759  17.5759  17.5760  17.5760
    17.5761  17.5761  17.5762  17.5762  17.5763  17.5763  17.5763  17.5764
    17.5919  17.5919  17.5920  17.5921  17.5923  17.5924  17.5925  17.5926
    18.0780  18.0781  18.0781  18.0783  18.0783  18.0785  18.0785  18.0787
    18.0889  18.0890  18.0890  18.0891  18.0894  18.0895  18.0895  18.0896
    19.1642  19.1642  19.1643  19.1644  19.1645  19.1645  19.1646  19.1646
    19.1702  19.1703  19.1703  19.1703  19.1703  19.1704  19.1704  19.1705
    19.1705  19.1705  19.1706  19.1706  19.1706  19.1706  19.1707  19.1707
    22.7115  22.7116  22.7119  22.7120  22.7121  22.7123  22.7125  22.7126
    22.7459  22.7460  22.7460  22.7462  22.7462  22.7463  22.7463  22.7464
    22.7465  22.7466  22.7466  22.7467  22.7468  22.7468  22.7469  22.7469
    28.1515  28.1517  28.1517  28.1518  28.1518  28.1519  28.1521  28.1521
    28.1521  28.1522  28.1523  28.1525  28.1525  28.1526  28.1526  28.1527
    28.1903  28.1905  28.1905  28.1906  28.1907  28.1907  28.1908  28.1909
    33.4413  33.4421

     the Fermi energy is    19.1904 ev

!    total energy              =  -16384.95922029 Ry
     Harris-Foulkes estimate   =  -16384.95920933 Ry
     estimated scf accuracy    <       0.00000051 Ry

     total all-electron energy =   -322945.812927 Ry

     The total energy is the sum of the following terms:

     one-electron contribution =   -2498.33428309 Ry
     hartree contribution      =    1665.01667350 Ry
     xc contribution           =    -986.42997467 Ry
     ewald contribution        =   -6397.82392990 Ry
     one-center paw contrib.   =   -8167.42199528 Ry
     smearing contrib. (-TS)   =       0.03428915 Ry

     convergence has been achieved in  11 iterations

     Forces acting on atoms (cartesian axes, Ry/au):

     atom    1 type  1   force =     0.00000000    0.00000000    0.00000000
     atom    2 type  1   force =     0.00000557    0.00007390   -0.00000000
     atom    3 type  1   force =     0.00000557    0.00000000    0.00007390
     atom    4 type  1   force =     0.00000000    0.00005382    0.00005382
     atom    5 type  1   force =     0.00000000    0.00000000    0.00000000
     atom    6 type  1   force =     0.00005985    0.00010084    0.00000000
     atom    7 type  1   force =     0.00000557   -0.00000000   -0.00007390
     atom    8 type  1   force =     0.00000000    0.00005382   -0.00005382
     atom    9 type  1   force =     0.00000000    0.00000000    0.00000000
     atom   10 type  1   force =     0.00000557   -0.00007390    0.00000000
     atom   11 type  1   force =     0.00005985   -0.00000000    0.00010084
     atom   12 type  1   force =     0.00000000   -0.00005382    0.00005382
     atom   13 type  1   force =     0.00000000    0.00000000   -0.00000000
     atom   14 type  1   force =     0.00005985   -0.00010084   -0.00000000
     atom   15 type  1   force =     0.00005985    0.00000000   -0.00010084
     atom   16 type  1   force =     0.00000000   -0.00005382   -0.00005382
     atom   17 type  1   force =     0.00000000    0.00000000    0.00000000
     atom   18 type  1   force =    -0.00000557    0.00007390   -0.00000000
     atom   19 type  1   force =    -0.00000557    0.00000000    0.00007390
     atom   20 type  1   force =     0.00000000    0.00013555    0.00013555
     atom   21 type  1   force =     0.00000000    0.00000000   -0.00000000
     atom   22 type  1   force =    -0.00005985    0.00010084    0.00000000
     atom   23 type  1   force =    -0.00000557   -0.00000000   -0.00007390
     atom   24 type  1   force =     0.00000000    0.00013555   -0.00013555
     atom   25 type  1   force =     0.00000000    0.00000000    0.00000000
     atom   26 type  1   force =    -0.00000557   -0.00007390   -0.00000000
     atom   27 type  1   force =    -0.00005985   -0.00000000    0.00010084
     atom   28 type  1   force =     0.00000000   -0.00013555    0.00013555
     atom   29 type  1   force =     0.00000000    0.00000000    0.00000000
     atom   30 type  1   force =    -0.00005985   -0.00010084    0.00000000
     atom   31 type  1   force =    -0.00005985    0.00000000   -0.00010084
     atom   32 type  1   force =     0.00000000   -0.00013555   -0.00013555

     Total force =     0.000569     Total SCF correction =     0.004923
     SCF correction compared to forces is large: reduce conv_thr to get better values


     Computing stress (Cartesian axis) and pressure

          total   stress  (Ry/bohr**3)                   (kbar)     P=   -6.15
  -0.00005604   0.00000000   0.00000000         -8.24      0.00      0.00
   0.00000000  -0.00003469   0.00000000          0.00     -5.10      0.00
   0.00000000   0.00000000  -0.00003469          0.00      0.00     -5.10


     Writing output data file gtsRmehKhIWUneLG.save/
 
     init_run     :     40.73s CPU     44.38s WALL (       1 calls)
     electrons    :   1944.62s CPU   2048.84s WALL (       1 calls)
     forces       :     18.73s CPU     19.45s WALL (       1 calls)
     stress       :    184.41s CPU    185.14s WALL (       1 calls)

     Called by init_run:
     wfcinit      :     39.95s CPU     43.53s WALL (       1 calls)
     potinit      :      0.36s CPU      0.38s WALL (       1 calls)
     hinit0       :      0.23s CPU      0.24s WALL (       1 calls)

     Called by electrons:
     c_bands      :   1766.63s CPU   1851.59s WALL (      12 calls)
     sum_band     :    173.93s CPU    192.78s WALL (      12 calls)
     v_of_rho     :      0.37s CPU      0.40s WALL (      12 calls)
     newd         :      0.82s CPU      1.08s WALL (      12 calls)
     PAW_pot      :      3.06s CPU      3.12s WALL (      12 calls)
     mix_rho      :      0.09s CPU      0.10s WALL (      12 calls)

     Called by c_bands:
     init_us_2    :     10.81s CPU     10.86s WALL (    2025 calls)
     cegterg      :   1707.32s CPU   1791.84s WALL (     900 calls)

     Called by sum_band:
     sum_band:bec :      1.38s CPU      1.40s WALL (     900 calls)
     addusdens    :      0.92s CPU      1.22s WALL (      12 calls)

     Called by *egterg:
     h_psi        :    702.15s CPU    779.15s WALL (    2576 calls)
     s_psi        :     85.08s CPU     85.33s WALL (    2576 calls)
     g_psi        :      2.44s CPU      2.47s WALL (    1601 calls)
     cdiaghg      :    646.25s CPU    648.03s WALL (    2426 calls)

     Called by h_psi:
     h_psi:pot    :    695.22s CPU    771.95s WALL (    2576 calls)
     h_psi:calbec :     89.27s CPU     93.43s WALL (    2576 calls)
     vloc_psi     :    521.09s CPU    593.21s WALL (    2576 calls)
     add_vuspsi   :     84.83s CPU     85.30s WALL (    2576 calls)

     General routines
     calbec       :    150.53s CPU    157.37s WALL (    3851 calls)
     fft          :      0.35s CPU      0.40s WALL (     181 calls)
     ffts         :      0.02s CPU      0.03s WALL (      24 calls)
     fftw         :    604.60s CPU    688.13s WALL ( 1707540 calls)
     interpolate  :      0.04s CPU      0.05s WALL (      12 calls)
 
     Parallel routines
     fft_scatt_xy :     48.96s CPU     54.88s WALL ( 1707745 calls)
     fft_scatt_yz :    399.10s CPU    458.36s WALL ( 1707745 calls)
 
     PWSCF        : 36m35.14s CPU    39m56.27s WALL

 
   This run was terminated on:  13:17:59  11Nov2020            

=------------------------------------------------------------------------------=
   JOB DONE.
=------------------------------------------------------------------------------=
