--------------------------------------------------------------------------
WARNING: No preset parameters were found for the device that Open MPI
detected:

  Local host:            bear-pg0206u14b
  Device name:           mlx5_0
  Device vendor ID:      0x02c9
  Device vendor part ID: 4123

Default device parameters will be used, which may result in lower
performance.  You can edit any of the files specified by the
btl_openib_device_param_files MCA parameter to set values for your
device.

NOTE: You can turn off this warning by setting the MCA parameter
      btl_openib_warn_no_device_params_found to 0.
--------------------------------------------------------------------------
--------------------------------------------------------------------------
WARNING: There was an error initializing an OpenFabrics device.

  Local host:   bear-pg0206u14b
  Local device: mlx5_0
--------------------------------------------------------------------------

     Program PWSCF v.6.3 starts on 11Nov2020 at 11:58: 1 

     This program is part of the open-source Quantum ESPRESSO suite
     for quantum simulation of materials; please cite
         "P. Giannozzi et al., J. Phys.:Condens. Matter 21 395502 (2009);
         "P. Giannozzi et al., J. Phys.:Condens. Matter 29 465901 (2017);
          URL http://www.quantum-espresso.org", 
     in publications or presentations arising from this work. More details at
     http://www.quantum-espresso.org/quote

     Parallel version (MPI & OpenMP), running on      20 processor cores
     Number of MPI processes:                20
     Threads/MPI process:                     1

     MPI processes distributed on     1 nodes
     R & G space division:  proc/nbgrp/npool/nimage =      20
     Reading input from wd/ec/ec_1_005.in
Warning: card &IONS ignored
Warning: card ION_DYNAMICS = 'BFGS', ignored
Warning: card / ignored
Warning: card &CELL ignored
Warning: card CELL_DYNAMICS = 'BFGS', ignored
Warning: card CELL_FACTOR = 2.0, ignored
Warning: card PRESS = 0.0, ignored
Warning: card / ignored

     Current dimensions of program PWSCF are:
     Max number of different atomic species (ntypx) = 10
     Max number of k-points (npk) =  40000
     Max angular momentum in pseudopotentials (lmaxx) =  3
               file Pd.pbe-spn-kjpaw_psl.1.0.0.UPF: wavefunction(s)  4S 5S 4D renormalized

     Subspace diagonalization in iterative solution of the eigenvalue problem:
     a serial algorithm will be used

 
     Parallelization info
     --------------------
     sticks:   dense  smooth     PW     G-vecs:    dense   smooth      PW
     Min         377     249     67                24671    13243    1876
     Max         378     250     69                24676    13246    1880
     Sum        7551    4989   1357               493467   264899   37577
 


     bravais-lattice index     =            0
     lattice parameter (alat)  =      14.8394  a.u.
     unit-cell volume          =    3278.6572 (a.u.)^3
     number of atoms/cell      =           32
     number of atomic types    =            1
     number of electrons       =       576.00
     number of Kohn-Sham states=          346
     kinetic-energy cutoff     =      71.0000  Ry
     charge density cutoff     =     430.0000  Ry
     convergence threshold     =      1.0E-06
     mixing beta               =       0.1000
     number of iterations used =           10  plain     mixing
     Exchange-correlation      = SLA PW PBX PBC ( 1  4  3  4 0 0)

     celldm(1)=  14.839420  celldm(2)=   0.000000  celldm(3)=   0.000000
     celldm(4)=   0.000000  celldm(5)=   0.000000  celldm(6)=   0.000000

     crystal axes: (cart. coord. in units of alat)
               a(1) = (   1.003333   0.000000   0.000000 )  
               a(2) = (   0.000000   1.000000   0.000000 )  
               a(3) = (   0.000000   0.000000   1.000000 )  

     reciprocal axes: (cart. coord. in units 2 pi/alat)
               b(1) = (  0.996678  0.000000  0.000000 )  
               b(2) = (  0.000000  1.000000  0.000000 )  
               b(3) = (  0.000000  0.000000  1.000000 )  


     PseudoPot. # 1 for Pd read from file:
     /rds/homes/b/bxp912/pp/Pd.pbe-spn-kjpaw_psl.1.0.0.UPF
     MD5 check sum: 790f2ebce206edfd9790dcb9844eca51
     Pseudo is Projector augmented-wave + core cor, Zval = 18.0
     Generated using "atomic" code by A. Dal Corso v.6.3
     Shape of augmentation charge: PSQ
     Using radial grid of 1235 points,  6 beta functions with: 
                l(1) =   0
                l(2) =   0
                l(3) =   1
                l(4) =   1
                l(5) =   2
                l(6) =   2
     Q(r) pseudized with 0 coefficients 


     atomic species   valence    mass     pseudopotential
        Pd            18.00   106.42000     Pd( 1.00)

     16 Sym. Ops., with inversion, found



   Cartesian axes

     site n.     atom                  positions (alat units)
         1           Pd  tau(   1) = (   0.0000000   0.0000000   0.0000000  )
         2           Pd  tau(   2) = (   0.2508378   0.2500045   0.0000000  )
         3           Pd  tau(   3) = (   0.2508378   0.0000000   0.2500040  )
         4           Pd  tau(   4) = (   0.0000000   0.2500045   0.2500040  )
         5           Pd  tau(   5) = (   0.0000000   0.0000000   0.4999990  )
         6           Pd  tau(   6) = (   0.2508450   0.2500116   0.4999990  )
         7           Pd  tau(   7) = (   0.2508378   0.0000000   0.7499950  )
         8           Pd  tau(   8) = (   0.0000000   0.2500045   0.7499950  )
         9           Pd  tau(   9) = (   0.0000000   0.4999998   0.0000000  )
        10           Pd  tau(  10) = (   0.2508378   0.7499952   0.0000000  )
        11           Pd  tau(  11) = (   0.2508450   0.4999998   0.2500109  )
        12           Pd  tau(  12) = (   0.0000000   0.7499952   0.2500040  )
        13           Pd  tau(  13) = (   0.0000000   0.4999998   0.4999990  )
        14           Pd  tau(  14) = (   0.2508450   0.7499881   0.4999990  )
        15           Pd  tau(  15) = (   0.2508450   0.4999998   0.7499881  )
        16           Pd  tau(  16) = (   0.0000000   0.7499952   0.7499950  )
        17           Pd  tau(  17) = (   0.5016665   0.0000000   0.0000000  )
        18           Pd  tau(  18) = (   0.7524952   0.2500045   0.0000000  )
        19           Pd  tau(  19) = (   0.7524952   0.0000000   0.2500040  )
        20           Pd  tau(  20) = (   0.5016665   0.2500116   0.2500109  )
        21           Pd  tau(  21) = (   0.5016665   0.0000000   0.4999990  )
        22           Pd  tau(  22) = (   0.7524881   0.2500116   0.4999990  )
        23           Pd  tau(  23) = (   0.7524952   0.0000000   0.7499950  )
        24           Pd  tau(  24) = (   0.5016665   0.2500116   0.7499881  )
        25           Pd  tau(  25) = (   0.5016665   0.4999998   0.0000000  )
        26           Pd  tau(  26) = (   0.7524952   0.7499952   0.0000000  )
        27           Pd  tau(  27) = (   0.7524881   0.4999998   0.2500109  )
        28           Pd  tau(  28) = (   0.5016665   0.7499881   0.2500109  )
        29           Pd  tau(  29) = (   0.5016665   0.4999998   0.4999990  )
        30           Pd  tau(  30) = (   0.7524881   0.7499881   0.4999990  )
        31           Pd  tau(  31) = (   0.7524881   0.4999998   0.7499881  )
        32           Pd  tau(  32) = (   0.5016665   0.7499881   0.7499881  )

     number of k points=    75  Marzari-Vanderbilt smearing, width (Ry)=  0.0400
                       cart. coord. in units 2pi/alat
        k(    1) = (   0.0553710   0.0555556   0.0555556), wk =   0.0219479
        k(    2) = (   0.0553710   0.0555556   0.1666667), wk =   0.0438957
        k(    3) = (   0.0553710   0.0555556   0.2777778), wk =   0.0438957
        k(    4) = (   0.0553710   0.0555556   0.3888889), wk =   0.0438957
        k(    5) = (   0.0553710   0.0555556  -0.5000000), wk =   0.0219479
        k(    6) = (   0.0553710   0.1666667   0.1666667), wk =   0.0219479
        k(    7) = (   0.0553710   0.1666667   0.2777778), wk =   0.0438957
        k(    8) = (   0.0553710   0.1666667   0.3888889), wk =   0.0438957
        k(    9) = (   0.0553710   0.1666667  -0.5000000), wk =   0.0219479
        k(   10) = (   0.0553710   0.2777778   0.2777778), wk =   0.0219479
        k(   11) = (   0.0553710   0.2777778   0.3888889), wk =   0.0438957
        k(   12) = (   0.0553710   0.2777778  -0.5000000), wk =   0.0219479
        k(   13) = (   0.0553710   0.3888889   0.3888889), wk =   0.0219479
        k(   14) = (   0.0553710   0.3888889  -0.5000000), wk =   0.0219479
        k(   15) = (   0.0553710  -0.5000000  -0.5000000), wk =   0.0054870
        k(   16) = (   0.1661130   0.0555556   0.0555556), wk =   0.0219479
        k(   17) = (   0.1661130   0.0555556   0.1666667), wk =   0.0438957
        k(   18) = (   0.1661130   0.0555556   0.2777778), wk =   0.0438957
        k(   19) = (   0.1661130   0.0555556   0.3888889), wk =   0.0438957
        k(   20) = (   0.1661130   0.0555556  -0.5000000), wk =   0.0219479
        k(   21) = (   0.1661130   0.1666667   0.1666667), wk =   0.0219479
        k(   22) = (   0.1661130   0.1666667   0.2777778), wk =   0.0438957
        k(   23) = (   0.1661130   0.1666667   0.3888889), wk =   0.0438957
        k(   24) = (   0.1661130   0.1666667  -0.5000000), wk =   0.0219479
        k(   25) = (   0.1661130   0.2777778   0.2777778), wk =   0.0219479
        k(   26) = (   0.1661130   0.2777778   0.3888889), wk =   0.0438957
        k(   27) = (   0.1661130   0.2777778  -0.5000000), wk =   0.0219479
        k(   28) = (   0.1661130   0.3888889   0.3888889), wk =   0.0219479
        k(   29) = (   0.1661130   0.3888889  -0.5000000), wk =   0.0219479
        k(   30) = (   0.1661130  -0.5000000  -0.5000000), wk =   0.0054870
        k(   31) = (   0.2768549   0.0555556   0.0555556), wk =   0.0219479
        k(   32) = (   0.2768549   0.0555556   0.1666667), wk =   0.0438957
        k(   33) = (   0.2768549   0.0555556   0.2777778), wk =   0.0438957
        k(   34) = (   0.2768549   0.0555556   0.3888889), wk =   0.0438957
        k(   35) = (   0.2768549   0.0555556  -0.5000000), wk =   0.0219479
        k(   36) = (   0.2768549   0.1666667   0.1666667), wk =   0.0219479
        k(   37) = (   0.2768549   0.1666667   0.2777778), wk =   0.0438957
        k(   38) = (   0.2768549   0.1666667   0.3888889), wk =   0.0438957
        k(   39) = (   0.2768549   0.1666667  -0.5000000), wk =   0.0219479
        k(   40) = (   0.2768549   0.2777778   0.2777778), wk =   0.0219479
        k(   41) = (   0.2768549   0.2777778   0.3888889), wk =   0.0438957
        k(   42) = (   0.2768549   0.2777778  -0.5000000), wk =   0.0219479
        k(   43) = (   0.2768549   0.3888889   0.3888889), wk =   0.0219479
        k(   44) = (   0.2768549   0.3888889  -0.5000000), wk =   0.0219479
        k(   45) = (   0.2768549  -0.5000000  -0.5000000), wk =   0.0054870
        k(   46) = (   0.3875969   0.0555556   0.0555556), wk =   0.0219479
        k(   47) = (   0.3875969   0.0555556   0.1666667), wk =   0.0438957
        k(   48) = (   0.3875969   0.0555556   0.2777778), wk =   0.0438957
        k(   49) = (   0.3875969   0.0555556   0.3888889), wk =   0.0438957
        k(   50) = (   0.3875969   0.0555556  -0.5000000), wk =   0.0219479
        k(   51) = (   0.3875969   0.1666667   0.1666667), wk =   0.0219479
        k(   52) = (   0.3875969   0.1666667   0.2777778), wk =   0.0438957
        k(   53) = (   0.3875969   0.1666667   0.3888889), wk =   0.0438957
        k(   54) = (   0.3875969   0.1666667  -0.5000000), wk =   0.0219479
        k(   55) = (   0.3875969   0.2777778   0.2777778), wk =   0.0219479
        k(   56) = (   0.3875969   0.2777778   0.3888889), wk =   0.0438957
        k(   57) = (   0.3875969   0.2777778  -0.5000000), wk =   0.0219479
        k(   58) = (   0.3875969   0.3888889   0.3888889), wk =   0.0219479
        k(   59) = (   0.3875969   0.3888889  -0.5000000), wk =   0.0219479
        k(   60) = (   0.3875969  -0.5000000  -0.5000000), wk =   0.0054870
        k(   61) = (  -0.4983389   0.0555556   0.0555556), wk =   0.0109739
        k(   62) = (  -0.4983389   0.0555556   0.1666667), wk =   0.0219479
        k(   63) = (  -0.4983389   0.0555556   0.2777778), wk =   0.0219479
        k(   64) = (  -0.4983389   0.0555556   0.3888889), wk =   0.0219479
        k(   65) = (  -0.4983389   0.0555556  -0.5000000), wk =   0.0109739
        k(   66) = (  -0.4983389   0.1666667   0.1666667), wk =   0.0109739
        k(   67) = (  -0.4983389   0.1666667   0.2777778), wk =   0.0219479
        k(   68) = (  -0.4983389   0.1666667   0.3888889), wk =   0.0219479
        k(   69) = (  -0.4983389   0.1666667  -0.5000000), wk =   0.0109739
        k(   70) = (  -0.4983389   0.2777778   0.2777778), wk =   0.0109739
        k(   71) = (  -0.4983389   0.2777778   0.3888889), wk =   0.0219479
        k(   72) = (  -0.4983389   0.2777778  -0.5000000), wk =   0.0109739
        k(   73) = (  -0.4983389   0.3888889   0.3888889), wk =   0.0109739
        k(   74) = (  -0.4983389   0.3888889  -0.5000000), wk =   0.0109739
        k(   75) = (  -0.4983389  -0.5000000  -0.5000000), wk =   0.0027435

     Dense  grid:   493467 G-vectors     FFT dimensions: ( 100, 100, 100)

     Smooth grid:   264899 G-vectors     FFT dimensions: (  80,  80,  80)

     Estimated max dynamical RAM per process >     893.69 MB

     Estimated total dynamical RAM >      17.45 GB

     Check: negative/imaginary core charge=   -0.000002    0.000000

     Initial potential from superposition of free atoms

     starting charge  575.98776, renormalised to  576.00000
     Starting wfcs are  320 randomized atomic wfcs +   26 random wfcs
     Checking if some PAW data can be deallocated... 

     total cpu time spent up to now is       45.1 secs

     Self-consistent Calculation

     iteration #  1     ecut=    71.00 Ry     beta= 0.10
     Davidson diagonalization with overlap
     ethr =  1.00E-02,  avg # of iterations =  3.1

     Threshold (ethr) on eigenvalues was too large:
     Diagonalizing with lowered threshold

     Davidson diagonalization with overlap
     ethr =  8.49E-05,  avg # of iterations =  3.1

     total cpu time spent up to now is      493.7 secs

     total energy              =  -16385.02221826 Ry
     Harris-Foulkes estimate   =  -16385.09113800 Ry
     estimated scf accuracy    <       0.48315068 Ry

     iteration #  2     ecut=    71.00 Ry     beta= 0.10
     Davidson diagonalization with overlap
     ethr =  8.39E-05,  avg # of iterations =  1.0

     total cpu time spent up to now is      629.6 secs

     total energy              =  -16384.92821939 Ry
     Harris-Foulkes estimate   =  -16385.03010229 Ry
     estimated scf accuracy    <       0.26235027 Ry

     iteration #  3     ecut=    71.00 Ry     beta= 0.10
     Davidson diagonalization with overlap
     ethr =  4.55E-05,  avg # of iterations =  2.1

     total cpu time spent up to now is      819.6 secs

     total energy              =  -16384.96296922 Ry
     Harris-Foulkes estimate   =  -16384.96737135 Ry
     estimated scf accuracy    <       0.06135458 Ry

     iteration #  4     ecut=    71.00 Ry     beta= 0.10
     Davidson diagonalization with overlap
     ethr =  1.07E-05,  avg # of iterations =  1.5

     total cpu time spent up to now is      970.3 secs

     total energy              =  -16384.96277679 Ry
     Harris-Foulkes estimate   =  -16384.96515480 Ry
     estimated scf accuracy    <       0.02194063 Ry

     iteration #  5     ecut=    71.00 Ry     beta= 0.10
     Davidson diagonalization with overlap
     ethr =  3.81E-06,  avg # of iterations =  1.2

     total cpu time spent up to now is     1112.7 secs

     total energy              =  -16384.95794937 Ry
     Harris-Foulkes estimate   =  -16384.96297721 Ry
     estimated scf accuracy    <       0.01443520 Ry

     iteration #  6     ecut=    71.00 Ry     beta= 0.10
     Davidson diagonalization with overlap
     ethr =  2.51E-06,  avg # of iterations =  1.0

     total cpu time spent up to now is     1250.1 secs

     total energy              =  -16384.95897207 Ry
     Harris-Foulkes estimate   =  -16384.95900250 Ry
     estimated scf accuracy    <       0.00022738 Ry

     iteration #  7     ecut=    71.00 Ry     beta= 0.10
     Davidson diagonalization with overlap
     ethr =  3.95E-08,  avg # of iterations =  3.0

     total cpu time spent up to now is     1493.8 secs

     total energy              =  -16384.95904990 Ry
     Harris-Foulkes estimate   =  -16384.95906697 Ry
     estimated scf accuracy    <       0.00022443 Ry

     iteration #  8     ecut=    71.00 Ry     beta= 0.10
     Davidson diagonalization with overlap
     ethr =  3.90E-08,  avg # of iterations =  1.3

     total cpu time spent up to now is     1636.8 secs

     total energy              =  -16384.95905397 Ry
     Harris-Foulkes estimate   =  -16384.95905677 Ry
     estimated scf accuracy    <       0.00005198 Ry

     iteration #  9     ecut=    71.00 Ry     beta= 0.10
     Davidson diagonalization with overlap
     ethr =  9.02E-09,  avg # of iterations =  1.0

     total cpu time spent up to now is     1772.0 secs

     total energy              =  -16384.95905426 Ry
     Harris-Foulkes estimate   =  -16384.95905511 Ry
     estimated scf accuracy    <       0.00003397 Ry

     iteration # 10     ecut=    71.00 Ry     beta= 0.10
     Davidson diagonalization with overlap
     ethr =  5.90E-09,  avg # of iterations =  2.0

     total cpu time spent up to now is     1962.4 secs

     total energy              =  -16384.95906106 Ry
     Harris-Foulkes estimate   =  -16384.95905820 Ry
     estimated scf accuracy    <       0.00000374 Ry

     iteration # 11     ecut=    71.00 Ry     beta= 0.10
     Davidson diagonalization with overlap
     ethr =  6.49E-10,  avg # of iterations =  1.0

     total cpu time spent up to now is     2098.9 secs

     End of self-consistent calculation

          k = 0.0554 0.0556 0.0556 ( 33087 PWs)   bands (ev):

   -64.9464 -64.9179 -64.9176 -64.9176 -64.9125 -64.9121 -64.9121 -64.9022
   -64.9021 -64.9020 -64.8998 -64.8994 -64.8993 -64.8992 -64.8991 -64.8990
   -64.8990 -64.8988 -64.8987 -64.8982 -64.8966 -64.8965 -64.8964 -64.8845
   -64.8838 -64.8837 -64.8836 -64.8834 -64.8832 -64.8832 -64.8831 -64.8827
   -30.8288 -30.8288 -30.8287 -30.8268 -30.8088 -30.8088 -30.8076 -30.7330
   -30.7308 -30.7307 -30.7288 -30.7287 -30.7265 -30.7265 -30.7263 -30.7263
   -30.7211 -30.7187 -30.7186 -30.7155 -30.7154 -30.7139 -30.7138 -30.7134
   -30.7134 -30.6972 -30.6972 -30.6952 -30.6952 -30.6950 -30.6949 -30.6555
   -30.6555 -30.6546 -30.6314 -30.6314 -30.6304 -30.6253 -30.6253 -30.6246
   -30.6162 -30.6162 -30.6159 -30.6159 -30.6152 -30.6151 -30.6016 -30.6014
   -30.6012 -30.6012 -30.6006 -30.6005 -30.6003 -30.6003 -30.6002 -30.5990
   -30.5990 -30.5981 -30.5976 -30.5976 -30.5965 -30.5364 -30.5364 -30.5346
   -30.5345 -30.5345 -30.5343 -30.5240 -30.5240 -30.5225 -30.5224 -30.5223
   -30.5223 -30.5200 -30.5199 -30.5185 -30.5161 -30.5155 -30.5153 -30.5148
   -30.5148 -30.5147 -30.5144 -30.5138 -30.5138 -30.5137 -30.5135 -30.5134
   -30.5130 -30.5120 -30.5078 -30.5077 -30.5065 -30.4623 -30.4600 -30.4599
    12.2328  13.9915  13.9916  13.9917  14.0581  14.0718  14.0718  14.0718
    14.2507  14.2620  14.2620  14.2653  14.2654  14.2654  14.4463  14.4573
    14.4574  14.9928  14.9929  15.0041  15.0042  15.0043  15.0044  15.1457
    15.1570  15.1570  15.3002  15.3009  15.3010  15.3297  15.3434  15.3435
    15.3821  15.3821  15.3835  15.3838  15.3838  15.3841  15.3842  15.3866
    15.3867  15.7213  15.7213  15.7282  15.7282  15.7306  15.7306  15.8261
    15.8371  15.8371  15.8474  15.8474  15.8587  15.8587  15.8601  15.8602
    15.9035  15.9163  15.9164  16.0745  16.0745  16.0824  16.0824  16.0856
    16.0857  16.1839  16.1840  16.1889  16.1890  16.1892  16.1893  16.1910
    16.1940  16.1941  16.2973  16.2974  16.2990  16.3475  16.3624  16.3624
    16.3682  16.3922  16.3922  16.3967  16.4010  16.4072  16.4300  16.4398
    17.2121  17.2289  17.2289  17.2815  17.2816  17.2887  17.3538  17.3538
    17.3547  17.3548  17.3604  17.3605  17.3605  17.3606  17.3659  17.3979
    17.4163  17.4164  17.5086  17.5086  17.5209  17.6298  17.6299  17.6333
    17.7516  17.7517  17.7629  17.8094  17.8095  17.8192  17.8838  17.8839
    17.8868  17.8869  17.8872  17.8872  17.9044  17.9045  17.9058  17.9363
    17.9567  17.9567  17.9572  17.9573  17.9657  17.9657  17.9676  18.0656
    18.0656  18.0742  18.4490  18.4491  18.4629  18.5509  18.5509  18.5628
    18.9335  18.9335  18.9428  19.0589  19.0589  19.0605  19.0798  19.0926
    19.0997  19.1097  19.1097  19.3333  19.3345  19.3345  19.3831  19.3832
    19.3839  19.3839  19.3910  19.3947  19.3947  19.4004  19.4004  20.0651
    20.3694  20.3695  20.3696  20.8779  20.8779  20.8967  21.3850  21.3850
    21.3861  21.3862  21.4082  21.4082  21.9126  21.9126  21.9384  22.4680
    22.5307  22.5307  26.2411  26.2412  26.2417  26.3982  27.3689  27.3689
    27.3976  27.3976  27.4266  27.4267  28.0603  28.0603  28.0874  28.0874
    28.1184  28.1185  29.4759  29.4759  29.4879  29.4879  29.5165  29.5165
    29.5950  29.6828  29.6828  30.5828  30.6420  30.6421  30.6522  30.6523
    30.6734  30.6734

          k = 0.0554 0.0556 0.1667 ( 33096 PWs)   bands (ev):

   -64.9454 -64.9230 -64.9174 -64.9171 -64.9120 -64.9117 -64.9066 -64.9051
   -64.9049 -64.9021 -64.9016 -64.9015 -64.8999 -64.8998 -64.8991 -64.8989
   -64.8985 -64.8983 -64.8965 -64.8961 -64.8960 -64.8941 -64.8940 -64.8845
   -64.8844 -64.8840 -64.8839 -64.8837 -64.8837 -64.8836 -64.8834 -64.8828
   -30.8260 -30.8243 -30.8243 -30.8211 -30.8055 -30.8044 -30.8036 -30.7423
   -30.7372 -30.7370 -30.7348 -30.7338 -30.7328 -30.7318 -30.7317 -30.7312
   -30.7291 -30.7221 -30.7195 -30.7189 -30.7176 -30.7142 -30.7123 -30.7110
   -30.7085 -30.6998 -30.6982 -30.6938 -30.6916 -30.6850 -30.6773 -30.6771
   -30.6604 -30.6593 -30.6466 -30.6454 -30.6315 -30.6311 -30.6306 -30.6298
   -30.6193 -30.6056 -30.6053 -30.6034 -30.6019 -30.6008 -30.6006 -30.6001
   -30.5998 -30.5990 -30.5986 -30.5960 -30.5955 -30.5953 -30.5952 -30.5943
   -30.5940 -30.5934 -30.5914 -30.5863 -30.5857 -30.5487 -30.5465 -30.5374
   -30.5372 -30.5333 -30.5317 -30.5274 -30.5259 -30.5251 -30.5250 -30.5240
   -30.5228 -30.5210 -30.5204 -30.5198 -30.5191 -30.5191 -30.5181 -30.5155
   -30.5154 -30.5149 -30.5147 -30.5145 -30.5137 -30.5121 -30.5121 -30.5118
   -30.5110 -30.5105 -30.5080 -30.5032 -30.5022 -30.4687 -30.4620 -30.4613
    12.3062  13.9629  14.0260  14.0379  14.0379  14.0859  14.1132  14.1133
    14.1266  14.2932  14.3022  14.3073  14.3075  14.3132  14.4985  14.5092
    14.5269  14.9180  14.9186  14.9787  15.0282  15.0346  15.0388  15.0455
    15.0704  15.1514  15.1516  15.1721  15.1825  15.1911  15.1957  15.1965
    15.3425  15.3428  15.3520  15.3647  15.3708  15.3748  15.4055  15.4131
    15.4538  15.4564  15.5328  15.7140  15.7170  15.7242  15.7313  15.7692
    15.7768  15.7787  15.7867  15.8366  15.8486  15.9259  15.9339  15.9500
    15.9946  15.9978  16.0408  16.0436  16.0480  16.0510  16.0542  16.0791
    16.0873  16.1285  16.1330  16.1571  16.1603  16.3266  16.3303  16.3388
    16.3392  16.3529  16.3581  16.3599  16.3810  16.3815  16.4050  16.4072
    16.4148  16.4152  16.4312  16.4381  16.4441  16.4603  16.4704  16.4732
    17.0250  17.0340  17.1406  17.1525  17.1600  17.1708  17.2204  17.2206
    17.2384  17.2823  17.3069  17.3138  17.4272  17.4364  17.4425  17.4510
    17.4545  17.4895  17.4933  17.4987  17.5065  17.7078  17.7166  17.7344
    17.7354  17.7438  17.8029  17.8031  17.8805  17.8833  17.8898  17.8905
    17.8929  17.8974  17.9154  17.9642  17.9681  17.9825  17.9835  18.0052
    18.0987  18.1007  18.1051  18.1057  18.1409  18.1477  18.1961  18.2132
    18.2204  18.2504  18.3506  18.4947  18.5067  18.6225  18.6244  18.6329
    18.6536  18.6709  18.6796  18.8864  18.9985  18.9991  19.0227  19.0355
    19.0754  19.0821  19.0857  19.1012  19.1144  19.2653  19.3134  19.3134
    19.3282  19.3291  19.3328  19.3803  19.3823  19.3846  19.3875  20.0531
    20.4162  20.4314  20.5370  20.5371  20.7674  20.8495  20.8969  20.9170
    21.3628  21.3640  21.8942  21.9528  21.9773  22.1678  22.4913  22.5193
    22.7603  22.8209  26.2405  26.4001  26.4015  26.6530  26.6889  26.6955
    26.7102  26.7157  27.2801  27.3077  27.5016  27.5307  28.1841  28.2124
    28.6992  28.7543  29.5151  29.5467  29.5820  29.6684  29.6715  29.7623
    29.8245  29.8499  29.9000  30.0578  30.1058  30.1377  30.2124  30.2151
    30.6048  30.7197

          k = 0.0554 0.0556 0.2778 ( 33090 PWs)   bands (ev):

   -64.9435 -64.9282 -64.9164 -64.9161 -64.9112 -64.9108 -64.9079 -64.9077
   -64.9040 -64.9038 -64.9019 -64.9015 -64.9003 -64.8998 -64.8991 -64.8989
   -64.8983 -64.8981 -64.8966 -64.8933 -64.8932 -64.8918 -64.8916 -64.8862
   -64.8851 -64.8849 -64.8847 -64.8845 -64.8844 -64.8837 -64.8834 -64.8828
   -30.8191 -30.8160 -30.8159 -30.8114 -30.7993 -30.7983 -30.7939 -30.7594
   -30.7537 -30.7536 -30.7489 -30.7482 -30.7455 -30.7361 -30.7345 -30.7339
   -30.7325 -30.7239 -30.7232 -30.7147 -30.7136 -30.7131 -30.7129 -30.7108
   -30.7004 -30.6989 -30.6989 -30.6964 -30.6879 -30.6858 -30.6689 -30.6675
   -30.6611 -30.6599 -30.6599 -30.6597 -30.6452 -30.6437 -30.6425 -30.6411
   -30.6093 -30.6085 -30.6011 -30.6007 -30.5996 -30.5989 -30.5963 -30.5949
   -30.5914 -30.5889 -30.5887 -30.5861 -30.5856 -30.5856 -30.5849 -30.5841
   -30.5839 -30.5762 -30.5722 -30.5717 -30.5665 -30.5604 -30.5579 -30.5427
   -30.5426 -30.5367 -30.5353 -30.5350 -30.5339 -30.5311 -30.5302 -30.5302
   -30.5281 -30.5269 -30.5268 -30.5264 -30.5207 -30.5195 -30.5165 -30.5155
   -30.5149 -30.5148 -30.5146 -30.5139 -30.5139 -30.5116 -30.5113 -30.5108
   -30.5084 -30.5012 -30.5003 -30.5001 -30.4991 -30.4798 -30.4662 -30.4652
    12.4512  13.6127  14.0921  14.1281  14.1281  14.1552  14.1954  14.1956
    14.2216  14.3482  14.3907  14.3915  14.4020  14.4121  14.4952  14.5996
    14.6096  14.7705  14.7711  14.8132  14.8241  14.9018  14.9018  14.9534
    15.0578  15.0606  15.0946  15.1032  15.1165  15.1264  15.1265  15.1324
    15.2245  15.2332  15.2423  15.2445  15.3535  15.3579  15.3956  15.4064
    15.5176  15.5217  15.6567  15.6601  15.6931  15.6976  15.7081  15.7121
    15.7193  15.7267  15.7339  15.7583  15.7600  15.8681  15.8733  15.9409
    15.9420  15.9972  15.9982  16.0011  16.0702  16.0748  16.0859  16.0942
    16.0949  16.1002  16.1690  16.1757  16.1778  16.2701  16.2971  16.3067
    16.3131  16.3572  16.3577  16.3692  16.4563  16.4836  16.5000  16.5066
    16.5070  16.5339  16.6715  16.6760  16.6907  16.7405  16.8220  16.8274
    16.8773  16.8918  16.8958  16.9028  16.9687  17.0469  17.0541  17.0543
    17.0716  17.0791  17.3826  17.3953  17.4004  17.4930  17.4984  17.5589
    17.5631  17.5754  17.5776  17.6335  17.6359  17.6630  17.6693  17.7268
    17.7333  17.8405  17.8684  17.8698  17.8707  17.8744  17.8929  17.8955
    17.9012  17.9015  17.9934  18.0985  18.1490  18.1502  18.1648  18.1651
    18.1739  18.2571  18.2581  18.2614  18.3022  18.3030  18.3049  18.3083
    18.3512  18.3547  18.3783  18.3936  18.3982  18.4668  18.6404  18.6474
    18.6991  18.7149  18.7200  18.7551  18.8555  18.8562  18.9051  18.9051
    18.9123  18.9851  18.9918  18.9995  19.0087  19.1317  19.1820  19.1824
    19.1939  19.1952  19.2187  19.3790  19.3814  19.3851  19.3868  19.9906
    20.0021  20.2225  20.4381  20.4548  20.7574  20.7582  20.7911  21.1351
    21.3153  21.3166  21.5568  21.8514  22.5876  22.6139  23.1319  23.1613
    23.2492  23.3077  25.8063  25.8329  25.9293  25.9861  26.3640  26.3927
    26.4124  26.7160  26.7180  27.1211  27.7481  27.7801  28.4213  28.4519
    28.7765  29.2042  29.2242  29.3196  29.3224  29.5296  29.5566  29.5744
    29.6398  29.6934  29.7085  29.8787  29.9191  29.9894  30.0892  30.1081
    30.1511  30.1525

          k = 0.0554 0.0556 0.3889 ( 33099 PWs)   bands (ev):

   -64.9408 -64.9330 -64.9149 -64.9146 -64.9105 -64.9103 -64.9099 -64.9096
   -64.9062 -64.9060 -64.9017 -64.9007 -64.8998 -64.8991 -64.8989 -64.8983
   -64.8978 -64.8968 -64.8967 -64.8908 -64.8906 -64.8896 -64.8894 -64.8889
   -64.8865 -64.8863 -64.8861 -64.8857 -64.8844 -64.8837 -64.8835 -64.8828
   -30.8082 -30.8041 -30.8039 -30.7982 -30.7902 -30.7893 -30.7796 -30.7773
   -30.7718 -30.7717 -30.7646 -30.7640 -30.7639 -30.7385 -30.7359 -30.7348
   -30.7308 -30.7299 -30.7289 -30.7287 -30.7195 -30.7191 -30.7029 -30.7005
   -30.6951 -30.6934 -30.6853 -30.6829 -30.6799 -30.6798 -30.6780 -30.6779
   -30.6743 -30.6729 -30.6583 -30.6566 -30.6561 -30.6543 -30.6441 -30.6440
   -30.6184 -30.6178 -30.6006 -30.5998 -30.5983 -30.5968 -30.5886 -30.5854
   -30.5811 -30.5734 -30.5733 -30.5725 -30.5723 -30.5721 -30.5717 -30.5711
   -30.5708 -30.5707 -30.5683 -30.5595 -30.5591 -30.5588 -30.5505 -30.5505
   -30.5476 -30.5473 -30.5465 -30.5464 -30.5451 -30.5397 -30.5385 -30.5384
   -30.5378 -30.5377 -30.5306 -30.5223 -30.5216 -30.5190 -30.5174 -30.5155
   -30.5149 -30.5146 -30.5140 -30.5133 -30.5129 -30.5104 -30.5089 -30.5088
   -30.5086 -30.5015 -30.5010 -30.4955 -30.4895 -30.4884 -30.4722 -30.4712
    12.6639  13.2602  14.1845  14.2571  14.2573  14.2653  14.3176  14.3177
    14.3550  14.4056  14.4296  14.5153  14.5171  14.5425  14.5513  14.5942
    14.5947  14.6026  14.6645  14.6741  14.6742  14.7261  14.7422  14.7510
    14.8846  14.8889  14.8905  14.8956  15.0896  15.0946  15.1815  15.1867
    15.2344  15.2428  15.3019  15.3083  15.3244  15.3277  15.4583  15.4662
    15.5196  15.5214  15.5261  15.5263  15.6242  15.6244  15.6630  15.6659
    15.6800  15.6869  15.7199  15.7262  15.7649  15.7759  15.8965  15.9097
    15.9122  15.9437  15.9454  16.0582  16.0917  16.0924  16.1016  16.1026
    16.1310  16.1371  16.1967  16.2016  16.2366  16.2487  16.2599  16.2764
    16.2786  16.3357  16.4054  16.4066  16.5434  16.5829  16.5948  16.6030
    16.6127  16.6285  16.6430  16.6465  16.6512  16.6559  16.8046  16.8461
    16.8557  16.8826  16.9018  16.9039  17.0856  17.0871  17.0892  17.1035
    17.3204  17.3363  17.4625  17.4655  17.4742  17.4880  17.4907  17.6567
    17.6581  17.6922  17.6937  17.7006  17.7034  17.7165  17.7207  17.7324
    17.7539  17.7556  17.8384  17.8402  17.8723  17.8796  17.8817  17.8840
    17.8845  17.8940  17.8979  17.9118  17.9139  17.9957  18.0399  18.1112
    18.1122  18.1741  18.2501  18.2673  18.3516  18.3526  18.3853  18.4249
    18.5065  18.5093  18.5096  18.5677  18.5752  18.5757  18.5967  18.5975
    18.7487  18.7488  18.7643  18.8543  18.8621  18.8678  18.8924  18.8937
    18.9016  18.9027  18.9423  19.0044  19.0064  19.0135  19.0143  19.0791
    19.1967  19.2020  19.3409  19.3790  19.3806  19.3855  19.3865  19.5949
    19.6026  20.0019  20.0151  20.4110  20.7000  20.8248  20.9597  20.9609
    21.2368  21.2382  21.4283  21.7716  23.2958  23.3230  23.8414  23.8492
    23.8713  23.9065  24.9194  24.9465  25.2111  25.2677  25.4664  25.4958
    26.7659  27.1814  27.1840  27.6641  27.9742  28.0977  28.1326  28.5028
    28.5056  28.7549  28.7886  29.0119  29.0534  29.0565  29.3988  29.4397
    29.5196  29.5968  29.6218  29.6626  30.0603  30.0892  30.1215  30.1320
    30.2885  30.3525

          k = 0.0554 0.0556-0.5000 ( 33118 PWs)   bands (ev):

   -64.9376 -64.9368 -64.9133 -64.9130 -64.9125 -64.9122 -64.9086 -64.9083
   -64.9078 -64.9075 -64.9016 -64.9009 -64.8998 -64.8991 -64.8989 -64.8983
   -64.8976 -64.8969 -64.8928 -64.8921 -64.8888 -64.8886 -64.8881 -64.8881
   -64.8878 -64.8878 -64.8873 -64.8870 -64.8844 -64.8837 -64.8835 -64.8828
   -30.7943 -30.7939 -30.7895 -30.7892 -30.7887 -30.7884 -30.7822 -30.7818
   -30.7790 -30.7782 -30.7781 -30.7773 -30.7613 -30.7605 -30.7335 -30.7332
   -30.7330 -30.7326 -30.7257 -30.7255 -30.7254 -30.7252 -30.6917 -30.6913
   -30.6896 -30.6892 -30.6862 -30.6856 -30.6846 -30.6839 -30.6709 -30.6705
   -30.6703 -30.6696 -30.6687 -30.6684 -30.6684 -30.6677 -30.6305 -30.6302
   -30.6298 -30.6295 -30.6007 -30.6000 -30.5979 -30.5973 -30.5810 -30.5802
   -30.5780 -30.5772 -30.5622 -30.5619 -30.5609 -30.5608 -30.5606 -30.5602
   -30.5602 -30.5602 -30.5600 -30.5598 -30.5598 -30.5595 -30.5589 -30.5586
   -30.5540 -30.5537 -30.5532 -30.5529 -30.5479 -30.5477 -30.5472 -30.5469
   -30.5441 -30.5437 -30.5186 -30.5179 -30.5172 -30.5170 -30.5168 -30.5167
   -30.5160 -30.5155 -30.5154 -30.5149 -30.5146 -30.5140 -30.5100 -30.5092
   -30.5043 -30.5042 -30.5040 -30.5039 -30.4804 -30.4797 -30.4793 -30.4787
    12.9369  12.9379  14.2937  14.2945  14.4151  14.4152  14.4161  14.4167
    14.4169  14.4176  14.4776  14.4776  14.4784  14.4785  14.5243  14.5244
    14.5353  14.5361  14.6800  14.6808  14.6829  14.6837  14.7110  14.7118
    14.7181  14.7189  14.9124  14.9131  14.9197  14.9204  15.2676  15.2679
    15.2682  15.2685  15.3798  15.3805  15.3853  15.3860  15.4029  15.4036
    15.4064  15.4071  15.5361  15.5367  15.5404  15.5410  15.6916  15.6919
    15.6949  15.6951  15.6968  15.6970  15.7070  15.7071  15.9115  15.9115
    15.9124  15.9125  16.0575  16.0582  16.0939  16.0946  16.1045  16.1051
    16.1283  16.1288  16.1910  16.1916  16.1992  16.1997  16.2900  16.2905
    16.4407  16.4408  16.4438  16.4440  16.5013  16.5015  16.5035  16.5037
    16.6607  16.6609  16.7090  16.7092  16.7181  16.7184  16.7289  16.7297
    16.7460  16.7463  16.7523  16.7531  17.4795  17.4798  17.4815  17.4817
    17.4824  17.4826  17.4830  17.4832  17.4840  17.4843  17.5278  17.5281
    17.6035  17.6042  17.6993  17.7000  17.7009  17.7015  17.7809  17.7816
    17.7820  17.7824  17.7825  17.7831  17.7984  17.7988  17.7989  17.7990
    17.7994  17.7995  17.8358  17.8365  17.8375  17.8381  18.0105  18.0106
    18.0111  18.0113  18.1003  18.1012  18.5589  18.5594  18.5597  18.5603
    18.5856  18.5858  18.6968  18.6970  18.7012  18.7013  18.7035  18.7042
    18.7311  18.7313  18.7435  18.7438  18.7963  18.7968  18.8011  18.8016
    18.8052  18.8057  18.8087  18.8092  18.9564  18.9567  19.2287  19.2289
    19.2324  19.2325  19.3793  19.3801  19.3856  19.3864  19.5862  19.5863
    19.5958  19.5959  20.0634  20.0640  20.5729  20.5737  21.1199  21.1206
    21.1212  21.1220  21.6366  21.6373  24.0759  24.0762  24.1032  24.1036
    24.5118  24.5124  24.5685  24.5691  24.6210  24.6213  24.6509  24.6512
    27.2940  27.2941  27.7831  27.7832  27.7859  27.7861  28.3134  28.3135
    28.5264  28.5272  28.5645  28.5652  29.1626  29.1634  29.1998  29.2006
    29.4701  29.4708  29.5359  29.5365  30.2322  30.2331  30.3031  30.3040
    30.5182  30.5191

          k = 0.0554 0.1667 0.1667 ( 33118 PWs)   bands (ev):

   -64.9445 -64.9225 -64.9224 -64.9169 -64.9116 -64.9083 -64.9063 -64.9063
   -64.9049 -64.9049 -64.9016 -64.9015 -64.9009 -64.8994 -64.8982 -64.8982
   -64.8980 -64.8979 -64.8961 -64.8960 -64.8942 -64.8941 -64.8921 -64.8849
   -64.8844 -64.8843 -64.8842 -64.8841 -64.8840 -64.8839 -64.8838 -64.8833
   -30.8233 -30.8233 -30.8186 -30.8139 -30.8014 -30.8009 -30.8009 -30.7452
   -30.7451 -30.7427 -30.7427 -30.7336 -30.7335 -30.7335 -30.7306 -30.7306
   -30.7295 -30.7295 -30.7288 -30.7287 -30.7223 -30.7223 -30.7186 -30.7185
   -30.6977 -30.6909 -30.6909 -30.6884 -30.6884 -30.6828 -30.6828 -30.6742
   -30.6742 -30.6643 -30.6608 -30.6370 -30.6332 -30.6332 -30.6196 -30.6196
   -30.6142 -30.6142 -30.6078 -30.6029 -30.6029 -30.6013 -30.6012 -30.5967
   -30.5966 -30.5959 -30.5959 -30.5935 -30.5933 -30.5931 -30.5914 -30.5914
   -30.5892 -30.5892 -30.5777 -30.5776 -30.5715 -30.5495 -30.5495 -30.5460
   -30.5460 -30.5350 -30.5332 -30.5313 -30.5271 -30.5270 -30.5258 -30.5257
   -30.5238 -30.5238 -30.5219 -30.5219 -30.5215 -30.5214 -30.5190 -30.5179
   -30.5179 -30.5151 -30.5132 -30.5131 -30.5127 -30.5122 -30.5122 -30.5119
   -30.5079 -30.5079 -30.5037 -30.5036 -30.4957 -30.4766 -30.4639 -30.4611
    12.3786  14.0152  14.0152  14.0725  14.0725  14.0794  14.0986  14.1396
    14.1797  14.1797  14.3346  14.3346  14.3431  14.3528  14.5371  14.5791
    14.5792  14.9401  14.9402  14.9604  14.9605  14.9827  14.9827  15.0081
    15.0082  15.0270  15.0693  15.0694  15.0962  15.0963  15.2101  15.2235
    15.2236  15.2316  15.2317  15.2798  15.3842  15.4171  15.4171  15.4314
    15.4315  15.4563  15.4563  15.5496  15.5496  15.6894  15.6894  15.7668
    15.7669  15.7769  15.8795  15.8796  15.8967  15.8968  15.9536  15.9537
    15.9649  16.0244  16.0245  16.0351  16.0351  16.0877  16.0877  16.1792
    16.2299  16.2300  16.2814  16.2814  16.2885  16.2885  16.3171  16.3623
    16.3770  16.3880  16.3880  16.3933  16.3933  16.4177  16.4178  16.4444
    16.4539  16.4540  16.4587  16.4735  16.4736  16.4736  16.4762  16.4840
    16.9247  16.9895  16.9895  17.0330  17.1467  17.1467  17.2622  17.2757
    17.2757  17.2788  17.2789  17.3332  17.3333  17.3560  17.3561  17.4216
    17.4217  17.4229  17.5027  17.5789  17.5831  17.5832  17.6051  17.6051
    17.6337  17.8764  17.8765  17.8927  17.8928  17.9153  17.9433  17.9700
    17.9700  17.9834  17.9835  17.9849  17.9970  17.9971  18.0737  18.0738
    18.1075  18.1075  18.2821  18.2821  18.3276  18.3334  18.3334  18.3345
    18.3743  18.3743  18.3785  18.3786  18.4433  18.4434  18.4797  18.5215
    18.6424  18.7503  18.7967  18.7967  18.9230  18.9329  18.9329  18.9488
    19.0382  19.0798  19.0798  19.0967  19.0976  19.0976  19.2696  19.2696
    19.3135  19.3135  19.3135  19.3135  19.3222  19.3223  19.3513  19.7728
    19.9982  20.3848  20.3849  20.4351  20.8733  20.8734  21.0621  21.0621
    21.4667  21.4667  21.9406  21.9406  22.4567  22.4567  22.4798  22.4798
    23.0228  23.1043  26.0904  26.0904  26.2380  26.2381  26.7040  26.7776
    26.7776  26.7883  26.7884  27.1028  27.4093  27.4093  27.8744  27.8746
    28.8254  28.8254  29.1516  29.1516  29.4979  29.5653  29.6879  29.6879
    29.7160  29.7160  29.9761  29.9761  30.1271  30.1272  30.5045  30.5045
    30.7289  30.7860

          k = 0.0554 0.1667 0.2778 ( 33089 PWs)   bands (ev):

   -64.9426 -64.9275 -64.9213 -64.9159 -64.9116 -64.9108 -64.9076 -64.9056
   -64.9046 -64.9038 -64.9018 -64.9015 -64.9012 -64.9000 -64.8999 -64.8976
   -64.8971 -64.8961 -64.8948 -64.8944 -64.8933 -64.8918 -64.8902 -64.8861
   -64.8853 -64.8852 -64.8850 -64.8848 -64.8846 -64.8842 -64.8839 -64.8833
   -30.8180 -30.8166 -30.8090 -30.8028 -30.7953 -30.7953 -30.7915 -30.7625
   -30.7590 -30.7492 -30.7456 -30.7455 -30.7455 -30.7452 -30.7366 -30.7362
   -30.7347 -30.7306 -30.7300 -30.7278 -30.7254 -30.7243 -30.7198 -30.7149
   -30.7059 -30.6945 -30.6909 -30.6858 -30.6825 -30.6809 -30.6752 -30.6731
   -30.6687 -30.6668 -30.6573 -30.6480 -30.6463 -30.6333 -30.6277 -30.6161
   -30.6157 -30.6134 -30.6070 -30.6021 -30.5993 -30.5972 -30.5967 -30.5963
   -30.5924 -30.5924 -30.5917 -30.5871 -30.5829 -30.5813 -30.5808 -30.5782
   -30.5769 -30.5752 -30.5646 -30.5639 -30.5612 -30.5580 -30.5579 -30.5549
   -30.5416 -30.5391 -30.5387 -30.5376 -30.5361 -30.5348 -30.5345 -30.5344
   -30.5287 -30.5263 -30.5262 -30.5238 -30.5233 -30.5231 -30.5201 -30.5196
   -30.5181 -30.5163 -30.5159 -30.5152 -30.5125 -30.5120 -30.5102 -30.5043
   -30.5020 -30.5018 -30.5017 -30.4959 -30.4920 -30.4891 -30.4680 -30.4634
    12.5218  13.6684  14.1169  14.1391  14.1516  14.1608  14.1632  14.2059
    14.2715  14.2838  14.3887  14.4171  14.4206  14.4426  14.5467  14.6094
    14.6807  14.7526  14.7806  14.8112  14.8375  14.8459  14.8520  14.8828
    14.9784  14.9876  15.0106  15.0196  15.0436  15.0670  15.1336  15.1432
    15.1498  15.1764  15.2007  15.2545  15.2872  15.3149  15.3446  15.4395
    15.4488  15.4730  15.5077  15.5815  15.6148  15.6315  15.6407  15.7314
    15.7368  15.7475  15.7572  15.7765  15.8207  15.8946  15.9007  15.9444
    15.9463  15.9554  16.0395  16.0932  16.1343  16.1403  16.1859  16.2102
    16.2172  16.2282  16.2326  16.2479  16.2969  16.2980  16.3182  16.3460
    16.3692  16.3792  16.4397  16.4891  16.5044  16.5156  16.5318  16.5367
    16.5387  16.5548  16.5626  16.5838  16.5972  16.7001  16.7736  16.8189
    16.8323  16.8350  16.8598  16.9496  16.9761  17.0795  17.0871  17.0998
    17.1684  17.1847  17.2008  17.2762  17.2851  17.3541  17.3696  17.4630
    17.4829  17.5052  17.5063  17.5672  17.6051  17.6886  17.7401  17.7452
    17.7622  17.8454  17.8456  17.8608  17.8911  17.9417  17.9725  17.9738
    18.0112  18.0503  18.0530  18.1010  18.1036  18.1152  18.1167  18.1281
    18.1420  18.1686  18.2355  18.2725  18.2976  18.3342  18.3681  18.4266
    18.4361  18.4685  18.4711  18.4722  18.4732  18.4981  18.5033  18.5893
    18.5982  18.6235  18.7101  18.8005  18.8243  18.8474  18.9243  18.9352
    19.0097  19.0439  19.0551  19.0605  19.1456  19.1598  19.1607  19.1637
    19.1831  19.1836  19.2186  19.3137  19.3139  19.3185  19.3306  19.6068
    19.8031  19.9586  20.3218  20.4151  20.4607  20.8258  20.9777  21.3495
    21.5472  21.8497  21.9107  22.0900  22.4458  22.5888  22.9330  23.1298
    23.4759  23.7436  25.2569  25.4436  25.8756  26.0748  26.2412  26.3820
    26.4112  26.9147  27.0833  27.0913  27.1343  27.6094  27.6214  28.2620
    28.4013  28.6547  28.7906  28.9338  29.0561  29.1898  29.3842  29.5272
    29.7129  29.8082  29.9011  30.1044  30.1395  30.3279  30.4254  30.4683
    30.6680  30.8195

          k = 0.0554 0.1667 0.3889 ( 33111 PWs)   bands (ev):

   -64.9399 -64.9322 -64.9195 -64.9146 -64.9144 -64.9102 -64.9095 -64.9060
   -64.9046 -64.9041 -64.9026 -64.9017 -64.9013 -64.9002 -64.8973 -64.8965
   -64.8964 -64.8963 -64.8948 -64.8919 -64.8908 -64.8897 -64.8888 -64.8885
   -64.8869 -64.8866 -64.8862 -64.8856 -64.8848 -64.8842 -64.8839 -64.8833
   -30.8087 -30.8062 -30.7961 -30.7886 -30.7870 -30.7863 -30.7800 -30.7781
   -30.7763 -30.7636 -30.7631 -30.7610 -30.7532 -30.7454 -30.7436 -30.7396
   -30.7391 -30.7389 -30.7376 -30.7339 -30.7248 -30.7196 -30.7185 -30.7087
   -30.7023 -30.6979 -30.6918 -30.6880 -30.6845 -30.6785 -30.6702 -30.6659
   -30.6618 -30.6611 -30.6584 -30.6518 -30.6464 -30.6416 -30.6403 -30.6316
   -30.6262 -30.6161 -30.5974 -30.5966 -30.5922 -30.5915 -30.5909 -30.5903
   -30.5863 -30.5856 -30.5829 -30.5754 -30.5722 -30.5709 -30.5708 -30.5699
   -30.5689 -30.5659 -30.5630 -30.5610 -30.5532 -30.5526 -30.5493 -30.5492
   -30.5483 -30.5482 -30.5481 -30.5467 -30.5464 -30.5461 -30.5456 -30.5361
   -30.5331 -30.5331 -30.5263 -30.5252 -30.5252 -30.5242 -30.5231 -30.5228
   -30.5220 -30.5209 -30.5145 -30.5140 -30.5130 -30.5101 -30.5084 -30.5055
   -30.5054 -30.5024 -30.4965 -30.4912 -30.4910 -30.4850 -30.4740 -30.4683
    12.7317  13.3202  14.2323  14.2447  14.2616  14.2787  14.2929  14.3117
    14.4007  14.4234  14.4557  14.4688  14.5258  14.5404  14.5477  14.5747
    14.6005  14.6327  14.6367  14.6367  14.6998  14.7062  14.7624  14.7691
    14.7940  14.8247  14.9051  14.9233  14.9473  15.0261  15.1347  15.1558
    15.1641  15.1805  15.2131  15.2660  15.2791  15.4017  15.4049  15.4317
    15.4627  15.4713  15.5441  15.5457  15.5716  15.5773  15.5776  15.5848
    15.6248  15.6629  15.7206  15.7513  15.7716  15.8187  15.9039  15.9213
    15.9591  16.0087  16.1081  16.1239  16.1564  16.1695  16.1844  16.1916
    16.1942  16.1953  16.2379  16.2671  16.2846  16.2972  16.3058  16.3193
    16.3702  16.4061  16.4147  16.5532  16.5602  16.6190  16.6215  16.6235
    16.6264  16.6298  16.6662  16.6800  16.7039  16.7723  16.7809  16.7941
    16.8516  16.8717  16.9034  16.9593  16.9971  17.0195  17.0636  17.0800
    17.2494  17.2546  17.2773  17.2889  17.2987  17.3321  17.4231  17.5189
    17.5214  17.5372  17.5935  17.6418  17.6956  17.7030  17.7144  17.7189
    17.7426  17.7464  17.7901  17.8218  17.8638  17.8880  17.8925  17.8994
    17.9509  17.9572  18.0077  18.0261  18.0643  18.1130  18.1403  18.1593
    18.1750  18.1773  18.1811  18.3224  18.3400  18.3414  18.3728  18.3775
    18.4813  18.5228  18.5669  18.6062  18.6376  18.6614  18.6630  18.6637
    18.6734  18.6784  18.7018  18.7604  18.7672  18.8618  18.8698  18.8886
    18.9134  18.9657  18.9687  19.0056  19.0127  19.0144  19.0150  19.0974
    19.1729  19.2510  19.3141  19.3149  19.3164  19.3214  19.5631  19.5922
    19.7134  19.9502  19.9802  20.2266  20.5037  20.5534  20.7538  21.1319
    21.5835  21.8521  21.9385  22.3667  22.7899  23.3128  23.5091  23.8502
    24.0464  24.3935  24.4458  24.7874  24.9705  25.3694  25.4952  26.0485
    26.4447  26.7685  27.3774  27.4253  27.4849  27.6811  27.9235  27.9853
    28.1855  28.2069  28.3853  28.7229  28.8828  29.0778  29.3767  29.4479
    29.6458  29.7686  29.7853  29.9022  30.0630  30.1964  30.2034  30.3309
    30.3767  30.6006

          k = 0.0554 0.1667-0.5000 ( 33108 PWs)   bands (ev):

   -64.9368 -64.9360 -64.9177 -64.9169 -64.9129 -64.9121 -64.9083 -64.9075
   -64.9038 -64.9037 -64.9030 -64.9029 -64.9012 -64.9004 -64.8971 -64.8964
   -64.8959 -64.8952 -64.8927 -64.8919 -64.8896 -64.8889 -64.8888 -64.8882
   -64.8881 -64.8874 -64.8873 -64.8866 -64.8848 -64.8842 -64.8839 -64.8833
   -30.7960 -30.7957 -30.7927 -30.7923 -30.7807 -30.7803 -30.7767 -30.7759
   -30.7751 -30.7744 -30.7718 -30.7714 -30.7608 -30.7600 -30.7428 -30.7426
   -30.7405 -30.7401 -30.7396 -30.7395 -30.7197 -30.7196 -30.7108 -30.7103
   -30.6974 -30.6970 -30.6968 -30.6964 -30.6770 -30.6767 -30.6696 -30.6691
   -30.6590 -30.6584 -30.6519 -30.6511 -30.6489 -30.6486 -30.6383 -30.6379
   -30.6280 -30.6273 -30.5975 -30.5968 -30.5911 -30.5907 -30.5824 -30.5816
   -30.5788 -30.5780 -30.5737 -30.5729 -30.5718 -30.5715 -30.5647 -30.5644
   -30.5623 -30.5618 -30.5592 -30.5591 -30.5590 -30.5587 -30.5584 -30.5580
   -30.5555 -30.5548 -30.5460 -30.5457 -30.5423 -30.5416 -30.5356 -30.5353
   -30.5349 -30.5341 -30.5309 -30.5305 -30.5260 -30.5256 -30.5241 -30.5233
   -30.5223 -30.5216 -30.5181 -30.5177 -30.5141 -30.5134 -30.5071 -30.5063
   -30.5055 -30.5052 -30.4927 -30.4925 -30.4822 -30.4814 -30.4758 -30.4754
    13.0012  13.0021  14.3425  14.3433  14.3773  14.3774  14.4277  14.4283
    14.4390  14.4398  14.4532  14.4540  14.4557  14.4558  14.5652  14.5653
    14.5727  14.5736  14.5951  14.5952  14.6462  14.6468  14.7032  14.7039
    14.7446  14.7452  14.8149  14.8153  14.9981  14.9987  15.0779  15.0781
    15.2727  15.2728  15.2760  15.2765  15.3140  15.3148  15.4112  15.4120
    15.4893  15.4894  15.5112  15.5119  15.5621  15.5624  15.5863  15.5866
    15.6466  15.6467  15.6723  15.6727  15.6734  15.6739  16.0369  16.0374
    16.0536  16.0541  16.0601  16.0608  16.0806  16.0812  16.1335  16.1336
    16.2281  16.2287  16.2475  16.2479  16.3452  16.3457  16.3752  16.3759
    16.4376  16.4377  16.4868  16.4869  16.4943  16.4945  16.6110  16.6112
    16.6626  16.6628  16.7295  16.7302  16.7338  16.7341  16.7522  16.7529
    16.7988  16.7991  16.8215  16.8217  17.2857  17.2862  17.2962  17.2967
    17.3400  17.3402  17.3491  17.3493  17.3756  17.3759  17.4262  17.4265
    17.4765  17.4771  17.6242  17.6249  17.6272  17.6278  17.7005  17.7009
    17.7054  17.7060  17.7322  17.7325  17.7494  17.7500  17.8178  17.8185
    17.9282  17.9289  17.9696  17.9702  18.0382  18.0388  18.0942  18.0950
    18.2315  18.2322  18.2809  18.2816  18.3577  18.3582  18.5211  18.5218
    18.5592  18.5593  18.5792  18.5799  18.7061  18.7065  18.7330  18.7330
    18.7947  18.7953  18.8241  18.8245  18.8317  18.8319  18.8367  18.8370
    18.8459  18.8464  18.8483  18.8487  18.9320  18.9322  18.9811  18.9813
    19.1967  19.1968  19.3145  19.3152  19.3168  19.3175  19.5651  19.5653
    20.0414  20.0416  20.1001  20.1009  20.3970  20.3976  20.6595  20.6602
    21.7482  21.7489  22.2082  22.2089  23.5620  23.5624  24.1096  24.1100
    24.1362  24.1367  24.6410  24.6413  24.6867  24.6873  25.2147  25.2150
    26.8651  26.8653  27.3012  27.3013  27.7537  27.7544  27.8745  27.8752
    28.2959  28.2967  28.3330  28.3331  28.8884  28.8885  29.2572  29.2575
    29.7662  29.7670  29.9486  29.9492  29.9802  29.9807  30.0262  30.0271
    30.8952  30.8969

          k = 0.0554 0.2778 0.2778 ( 33098 PWs)   bands (ev):

   -64.9408 -64.9262 -64.9262 -64.9153 -64.9149 -64.9100 -64.9072 -64.9071
   -64.9036 -64.9035 -64.9031 -64.9008 -64.9007 -64.9006 -64.8964 -64.8964
   -64.8962 -64.8961 -64.8937 -64.8936 -64.8923 -64.8923 -64.8888 -64.8863
   -64.8861 -64.8859 -64.8858 -64.8854 -64.8853 -64.8846 -64.8845 -64.8837
   -30.8129 -30.8129 -30.7986 -30.7908 -30.7892 -30.7870 -30.7870 -30.7628
   -30.7627 -30.7611 -30.7611 -30.7493 -30.7493 -30.7404 -30.7403 -30.7395
   -30.7395 -30.7348 -30.7348 -30.7347 -30.7346 -30.7248 -30.7215 -30.7215
   -30.7185 -30.7185 -30.6892 -30.6831 -30.6772 -30.6772 -30.6712 -30.6712
   -30.6644 -30.6599 -30.6521 -30.6521 -30.6260 -30.6257 -30.6257 -30.6155
   -30.6155 -30.6125 -30.6124 -30.6025 -30.6025 -30.5925 -30.5925 -30.5896
   -30.5896 -30.5886 -30.5885 -30.5875 -30.5822 -30.5821 -30.5747 -30.5746
   -30.5668 -30.5667 -30.5657 -30.5657 -30.5545 -30.5545 -30.5525 -30.5525
   -30.5473 -30.5473 -30.5449 -30.5443 -30.5368 -30.5367 -30.5352 -30.5349
   -30.5345 -30.5335 -30.5335 -30.5310 -30.5240 -30.5240 -30.5228 -30.5201
   -30.5196 -30.5177 -30.5128 -30.5127 -30.5127 -30.5126 -30.5064 -30.5064
   -30.5031 -30.5029 -30.5029 -30.4903 -30.4902 -30.4862 -30.4722 -30.4633
    12.6612  13.7773  13.7774  14.1854  14.2269  14.2308  14.2308  14.2533
    14.3813  14.3813  14.4555  14.4695  14.4695  14.5413  14.5974  14.6301
    14.6467  14.6467  14.6851  14.6851  14.8018  14.8018  14.8022  14.8023
    14.8903  14.8903  14.9116  14.9117  15.0736  15.0766  15.0767  15.0826
    15.0826  15.1764  15.1765  15.2088  15.2088  15.2607  15.2607  15.3346
    15.3346  15.4081  15.5317  15.5317  15.5368  15.5368  15.5538  15.7529
    15.7529  15.7794  15.7795  15.7913  15.7923  15.7923  15.8102  16.0447
    16.0448  16.1294  16.1294  16.2039  16.2040  16.2072  16.2072  16.2550
    16.2550  16.2586  16.2827  16.2828  16.2865  16.3794  16.4091  16.4226
    16.4227  16.5151  16.5152  16.5458  16.5710  16.5810  16.6001  16.6167
    16.6206  16.6206  16.6578  16.6578  16.6855  16.6898  16.6899  16.7207
    16.8226  16.8226  16.8465  16.8465  17.0229  17.0229  17.0798  17.0799
    17.1584  17.1584  17.2178  17.2603  17.2980  17.2981  17.3283  17.3284
    17.3512  17.3513  17.4240  17.4331  17.5692  17.5693  17.6964  17.7780
    17.7780  17.7957  17.7958  17.8198  17.8353  17.9174  17.9174  17.9739
    18.0332  18.0846  18.0847  18.1374  18.1375  18.1880  18.1881  18.2223
    18.2223  18.3300  18.3301  18.3360  18.3360  18.3520  18.3562  18.3563
    18.3567  18.4190  18.4190  18.5692  18.6123  18.6373  18.6373  18.6399
    18.6400  18.6463  18.6464  18.7475  18.7513  18.7840  18.9079  18.9079
    18.9773  19.0651  19.0651  19.0700  19.0969  19.0970  19.1856  19.1856
    19.1862  19.1863  19.2077  19.2077  19.2572  19.2696  19.5741  19.6108
    19.6108  19.8953  19.8954  20.2792  20.3710  20.3710  21.5802  21.5802
    21.9358  21.9359  22.3174  22.3174  22.5813  22.5814  23.1069  23.1069
    23.8813  24.3726  24.6650  24.6651  25.8959  25.8960  26.2403  26.2403
    26.3499  26.3500  26.8462  26.8462  27.5016  27.5018  27.6475  27.7805
    27.7805  28.1726  28.2939  28.2939  28.3374  29.4313  29.6312  29.6312
    29.7457  29.7458  30.1842  30.2369  30.5157  30.5158  30.6318  30.6319
    30.8926  30.8926

          k = 0.0554 0.2778 0.3889 ( 33117 PWs)   bands (ev):

   -64.9382 -64.9307 -64.9243 -64.9187 -64.9135 -64.9095 -64.9088 -64.9065
   -64.9055 -64.9043 -64.9031 -64.9016 -64.8999 -64.8976 -64.8961 -64.8955
   -64.8951 -64.8940 -64.8929 -64.8929 -64.8913 -64.8904 -64.8887 -64.8875
   -64.8874 -64.8873 -64.8870 -64.8863 -64.8854 -64.8852 -64.8845 -64.8837
   -30.8053 -30.8042 -30.7851 -30.7803 -30.7803 -30.7795 -30.7774 -30.7757
   -30.7750 -30.7611 -30.7602 -30.7602 -30.7555 -30.7519 -30.7490 -30.7486
   -30.7480 -30.7418 -30.7403 -30.7398 -30.7330 -30.7318 -30.7231 -30.7224
   -30.7210 -30.7067 -30.6985 -30.6957 -30.6880 -30.6748 -30.6632 -30.6605
   -30.6568 -30.6455 -30.6447 -30.6377 -30.6374 -30.6366 -30.6290 -30.6246
   -30.6114 -30.6071 -30.6039 -30.5982 -30.5961 -30.5959 -30.5920 -30.5898
   -30.5857 -30.5846 -30.5820 -30.5777 -30.5777 -30.5750 -30.5712 -30.5665
   -30.5660 -30.5656 -30.5646 -30.5635 -30.5608 -30.5555 -30.5519 -30.5518
   -30.5509 -30.5498 -30.5448 -30.5445 -30.5422 -30.5404 -30.5396 -30.5391
   -30.5331 -30.5329 -30.5320 -30.5287 -30.5276 -30.5273 -30.5259 -30.5256
   -30.5207 -30.5187 -30.5172 -30.5154 -30.5139 -30.5133 -30.5132 -30.5096
   -30.5045 -30.5041 -30.4957 -30.4857 -30.4833 -30.4801 -30.4784 -30.4663
    12.8656  13.4381  13.9342  14.2567  14.3255  14.3270  14.3374  14.3568
    14.3621  14.5031  14.5090  14.5123  14.5221  14.5470  14.5532  14.5902
    14.6130  14.6205  14.6216  14.6620  14.6817  14.7074  14.7514  14.7707
    14.7890  14.8393  14.8664  14.8790  14.9459  14.9724  15.0027  15.0112
    15.0525  15.1482  15.1517  15.1858  15.2263  15.2578  15.2592  15.3075
    15.3236  15.3786  15.4003  15.4380  15.4738  15.5795  15.6297  15.6464
    15.6724  15.7071  15.7779  15.8047  15.8376  15.8618  15.9141  16.0251
    16.0286  16.0386  16.1117  16.1762  16.1762  16.2272  16.2711  16.2809
    16.3104  16.3203  16.3239  16.3565  16.3803  16.4061  16.4349  16.5267
    16.5282  16.5550  16.5772  16.5798  16.6169  16.6341  16.6463  16.6509
    16.6673  16.6853  16.6917  16.7620  16.7640  16.7824  16.7879  16.8106
    16.8111  16.9013  16.9034  16.9068  16.9809  17.0023  17.0730  17.0882
    17.0978  17.1253  17.1570  17.1591  17.1832  17.2162  17.2227  17.3419
    17.4385  17.4520  17.4678  17.4727  17.4809  17.4931  17.5661  17.5832
    17.6120  17.6452  17.6992  17.7156  17.7410  17.8124  17.9795  18.0150
    18.0167  18.0234  18.0553  18.0602  18.1861  18.1942  18.2003  18.2076
    18.2159  18.2638  18.3674  18.3873  18.3912  18.4001  18.4544  18.4640
    18.4658  18.5439  18.5714  18.6034  18.6127  18.6725  18.7007  18.7685
    18.7842  18.7846  18.7957  18.7968  18.8030  18.8057  18.8315  18.8520
    18.9472  18.9952  19.0093  19.0109  19.0123  19.0169  19.0223  19.0257
    19.0711  19.1429  19.1885  19.1930  19.1987  19.2291  19.5014  19.5813
    19.8032  19.9418  20.0923  20.1922  20.2225  20.3116  21.0787  21.5991
    22.2441  22.2639  22.4475  22.5436  22.8691  23.0223  23.3291  23.8328
    23.8358  24.0625  24.4083  25.0204  25.0581  25.4112  25.6680  26.2572
    26.4475  26.5725  26.6873  26.7985  27.0451  27.0791  27.3391  27.5084
    27.7614  27.8352  28.0573  28.2495  28.8067  29.1321  29.6922  29.7246
    29.8004  29.8663  29.9511  30.0088  30.1333  30.2720  30.7653  30.7981
    30.9531  30.9976

          k = 0.0554 0.2778-0.5000 ( 33136 PWs)   bands (ev):

   -64.9352 -64.9344 -64.9221 -64.9213 -64.9121 -64.9113 -64.9077 -64.9069
   -64.9059 -64.9051 -64.9028 -64.9020 -64.8992 -64.8985 -64.8951 -64.8943
   -64.8943 -64.8935 -64.8924 -64.8917 -64.8903 -64.8895 -64.8895 -64.8889
   -64.8887 -64.8882 -64.8867 -64.8862 -64.8859 -64.8855 -64.8845 -64.8838
   -30.7941 -30.7938 -30.7923 -30.7920 -30.7719 -30.7712 -30.7694 -30.7694
   -30.7690 -30.7687 -30.7596 -30.7589 -30.7585 -30.7581 -30.7561 -30.7561
   -30.7553 -30.7551 -30.7465 -30.7460 -30.7279 -30.7274 -30.7252 -30.7246
   -30.7094 -30.7090 -30.6970 -30.6970 -30.6910 -30.6907 -30.6499 -30.6497
   -30.6494 -30.6491 -30.6430 -30.6426 -30.6358 -30.6351 -30.6262 -30.6260
   -30.6233 -30.6225 -30.5913 -30.5907 -30.5879 -30.5872 -30.5860 -30.5852
   -30.5829 -30.5827 -30.5827 -30.5825 -30.5774 -30.5774 -30.5772 -30.5766
   -30.5651 -30.5646 -30.5609 -30.5607 -30.5560 -30.5555 -30.5555 -30.5551
   -30.5469 -30.5461 -30.5451 -30.5446 -30.5416 -30.5414 -30.5392 -30.5389
   -30.5335 -30.5328 -30.5310 -30.5303 -30.5302 -30.5297 -30.5282 -30.5278
   -30.5227 -30.5220 -30.5201 -30.5197 -30.5159 -30.5152 -30.5079 -30.5076
   -30.5072 -30.5065 -30.4866 -30.4859 -30.4832 -30.4831 -30.4721 -30.4718
    13.1277  13.1287  14.1307  14.1316  14.3650  14.3651  14.4377  14.4384
    14.4576  14.4577  14.4597  14.4601  14.5246  14.5254  14.5589  14.5594
    14.6477  14.6486  14.6749  14.6749  14.6900  14.6901  14.7034  14.7036
    14.7492  14.7500  14.8554  14.8558  14.8950  14.8951  14.9615  14.9621
    15.1353  15.1361  15.1472  15.1477  15.2272  15.2274  15.2905  15.2907
    15.2958  15.2966  15.4786  15.4793  15.5206  15.5206  15.5253  15.5260
    15.7911  15.7911  15.7979  15.7984  15.8997  15.9000  15.9241  15.9246
    15.9463  15.9470  16.0578  16.0583  16.2504  16.2510  16.3487  16.3492
    16.3569  16.3570  16.3746  16.3751  16.4277  16.4280  16.4339  16.4340
    16.4803  16.4805  16.6371  16.6373  16.6733  16.6739  16.7059  16.7061
    16.7070  16.7070  16.7338  16.7344  16.7604  16.7609  16.7783  16.7786
    16.9147  16.9150  16.9379  16.9382  17.0996  17.0997  17.1126  17.1130
    17.1242  17.1247  17.1804  17.1805  17.1915  17.1917  17.2072  17.2074
    17.2744  17.2750  17.5286  17.5292  17.5317  17.5321  17.5764  17.5769
    17.6054  17.6058  17.6269  17.6272  17.6421  17.6428  17.9238  17.9245
    17.9324  17.9329  18.1040  18.1047  18.1449  18.1454  18.1543  18.1550
    18.3151  18.3158  18.4412  18.4419  18.4469  18.4476  18.5659  18.5666
    18.5913  18.5919  18.6317  18.6317  18.6776  18.6778  18.6787  18.6790
    18.7994  18.8000  18.8262  18.8263  18.8569  18.8573  18.9062  18.9065
    18.9085  18.9089  18.9237  18.9239  18.9296  18.9298  18.9380  18.9380
    19.1351  19.1353  19.1922  19.1929  19.2056  19.2061  19.5327  19.5329
    19.6895  19.6902  20.2509  20.2516  20.5825  20.5827  20.8702  20.8707
    22.4425  22.4432  22.8163  22.8170  23.0206  23.0211  23.4586  23.4591
    24.1473  24.1476  24.6214  24.6216  25.0133  25.0139  25.8045  25.8047
    26.5207  26.5207  26.8779  26.8780  26.9550  26.9557  27.2275  27.2282
    27.4243  27.4250  28.6184  28.6185  28.9335  28.9336  29.5080  29.5081
    29.7479  29.7488  29.8844  29.8853  30.3343  30.3351  30.5446  30.5446
    31.2074  31.2081

          k = 0.0554 0.3889 0.3889 ( 33137 PWs)   bands (ev):

   -64.9357 -64.9286 -64.9286 -64.9224 -64.9123 -64.9087 -64.9086 -64.9078
   -64.9059 -64.9049 -64.9048 -64.9028 -64.8956 -64.8955 -64.8940 -64.8940
   -64.8938 -64.8937 -64.8919 -64.8918 -64.8913 -64.8912 -64.8887 -64.8885
   -64.8883 -64.8882 -64.8877 -64.8876 -64.8866 -64.8851 -64.8848 -64.8841
   -30.7983 -30.7983 -30.7758 -30.7757 -30.7751 -30.7750 -30.7718 -30.7712
   -30.7704 -30.7703 -30.7601 -30.7599 -30.7599 -30.7572 -30.7572 -30.7475
   -30.7475 -30.7427 -30.7426 -30.7414 -30.7414 -30.7388 -30.7387 -30.7269
   -30.7245 -30.7244 -30.7097 -30.6968 -30.6908 -30.6755 -30.6754 -30.6497
   -30.6427 -30.6427 -30.6295 -30.6295 -30.6246 -30.6162 -30.6162 -30.6104
   -30.6104 -30.6101 -30.6100 -30.6047 -30.6046 -30.5862 -30.5861 -30.5843
   -30.5843 -30.5831 -30.5830 -30.5801 -30.5800 -30.5791 -30.5766 -30.5766
   -30.5726 -30.5726 -30.5627 -30.5627 -30.5592 -30.5592 -30.5570 -30.5545
   -30.5545 -30.5439 -30.5439 -30.5420 -30.5419 -30.5417 -30.5417 -30.5393
   -30.5335 -30.5332 -30.5331 -30.5312 -30.5312 -30.5282 -30.5268 -30.5213
   -30.5211 -30.5183 -30.5174 -30.5174 -30.5173 -30.5141 -30.5138 -30.5066
   -30.5066 -30.5024 -30.5024 -30.4846 -30.4783 -30.4768 -30.4768 -30.4668
    13.0616  13.6093  13.6094  14.0808  14.3014  14.3948  14.4071  14.4590
    14.4591  14.4852  14.4862  14.4862  14.6030  14.6030  14.6272  14.6497
    14.6497  14.6639  14.6639  14.6662  14.6663  14.6923  14.6924  14.8121
    14.8122  14.8280  14.8402  14.8777  14.8777  14.9814  14.9814  14.9843
    14.9843  15.0072  15.0073  15.0551  15.0552  15.1919  15.1920  15.2002
    15.2002  15.2290  15.2290  15.4631  15.4632  15.5213  15.7048  15.7049
    15.7102  15.7103  15.7995  15.8682  15.9167  15.9167  15.9183  15.9184
    15.9252  16.1257  16.2227  16.2228  16.2695  16.3883  16.4035  16.4035
    16.4508  16.4509  16.4530  16.4530  16.4564  16.4565  16.4956  16.4956
    16.5099  16.5231  16.6923  16.6954  16.6979  16.7021  16.7021  16.7273
    16.7675  16.7675  16.7712  16.7763  16.7773  16.7774  16.9077  16.9078
    16.9226  16.9226  16.9243  16.9244  16.9251  16.9251  17.0401  17.0401
    17.0469  17.0679  17.1165  17.1165  17.1320  17.2053  17.2366  17.2367
    17.2404  17.2470  17.2470  17.2632  17.2633  17.2877  17.2878  17.4601
    17.5679  17.5680  17.5760  17.5760  17.6975  17.7550  17.7550  17.7699
    17.9376  18.0686  18.1766  18.1766  18.2214  18.2214  18.3002  18.3003
    18.3827  18.3828  18.4287  18.4288  18.4871  18.4872  18.4899  18.5918
    18.5918  18.6843  18.7125  18.7135  18.7136  18.7178  18.7178  18.7183
    18.7246  18.7246  18.7908  18.8575  18.8923  18.8923  18.8975  18.8976
    18.9003  18.9965  18.9966  19.0157  19.0158  19.0204  19.0230  19.0230
    19.0437  19.0437  19.0488  19.0489  19.1464  19.2223  19.3413  19.4158
    19.4159  19.9016  19.9016  19.9934  20.6997  20.6998  21.7403  21.7403
    22.1334  22.1334  22.8844  22.8845  23.2648  23.2649  23.3046  23.3046
    23.7220  23.7220  24.8914  24.8959  24.8960  25.7173  26.0770  26.0771
    26.2660  26.2661  26.5174  26.5174  26.6760  26.6760  27.0821  27.0821
    27.1614  27.2354  27.2357  28.5215  28.8859  29.4625  29.7412  29.7427
    29.7429  29.8786  30.3513  30.3514  30.4850  30.4850  30.9375  30.9375
    31.3309  31.3311

          k = 0.0554 0.3889-0.5000 ( 33138 PWs)   bands (ev):

   -64.9328 -64.9321 -64.9262 -64.9254 -64.9110 -64.9102 -64.9078 -64.9070
   -64.9068 -64.9060 -64.9043 -64.9035 -64.8952 -64.8944 -64.8932 -64.8928
   -64.8924 -64.8921 -64.8920 -64.8913 -64.8909 -64.8903 -64.8902 -64.8900
   -64.8896 -64.8893 -64.8885 -64.8878 -64.8860 -64.8853 -64.8849 -64.8842
   -30.7887 -30.7885 -30.7882 -30.7879 -30.7692 -30.7691 -30.7690 -30.7690
   -30.7648 -30.7641 -30.7610 -30.7603 -30.7577 -30.7570 -30.7557 -30.7553
   -30.7513 -30.7507 -30.7429 -30.7427 -30.7425 -30.7421 -30.7379 -30.7371
   -30.7246 -30.7242 -30.7080 -30.7076 -30.6873 -30.6872 -30.6625 -30.6623
   -30.6292 -30.6290 -30.6260 -30.6258 -30.6209 -30.6202 -30.6164 -30.6156
   -30.6033 -30.6032 -30.5974 -30.5967 -30.5965 -30.5958 -30.5955 -30.5954
   -30.5926 -30.5925 -30.5825 -30.5819 -30.5752 -30.5751 -30.5747 -30.5740
   -30.5683 -30.5677 -30.5641 -30.5640 -30.5603 -30.5602 -30.5588 -30.5582
   -30.5513 -30.5511 -30.5508 -30.5507 -30.5384 -30.5383 -30.5377 -30.5376
   -30.5375 -30.5367 -30.5336 -30.5333 -30.5243 -30.5236 -30.5229 -30.5226
   -30.5216 -30.5213 -30.5201 -30.5195 -30.5114 -30.5114 -30.5111 -30.5107
   -30.5102 -30.5095 -30.4932 -30.4924 -30.4762 -30.4761 -30.4706 -30.4705
    13.3125  13.3135  13.8266  13.8275  14.3784  14.3785  14.4784  14.4788
    14.4836  14.4836  14.5204  14.5207  14.5739  14.5747  14.6073  14.6075
    14.6246  14.6254  14.7384  14.7385  14.7601  14.7609  14.8045  14.8046
    14.8085  14.8086  14.8179  14.8187  14.8633  14.8639  14.9348  14.9356
    15.0024  15.0027  15.0212  15.0217  15.0906  15.0914  15.1000  15.1002
    15.1110  15.1111  15.3533  15.3533  15.5687  15.5694  15.5742  15.5750
    15.8010  15.8016  15.8083  15.8090  15.9055  15.9059  16.0373  16.0376
    16.0402  16.0405  16.1820  16.1820  16.2604  16.2610  16.3969  16.3974
    16.4439  16.4439  16.4619  16.4621  16.5793  16.5794  16.6142  16.6144
    16.7000  16.7005  16.7442  16.7447  16.7537  16.7539  16.7624  16.7625
    16.7639  16.7641  16.7917  16.7921  16.8513  16.8515  16.8723  16.8723
    16.9042  16.9044  16.9567  16.9569  16.9667  16.9671  16.9682  16.9685
    16.9825  16.9829  17.0080  17.0082  17.0879  17.0883  17.1075  17.1079
    17.1185  17.1188  17.3207  17.3210  17.4195  17.4199  17.4337  17.4341
    17.4605  17.4607  17.5019  17.5024  17.5187  17.5194  17.6239  17.6246
    18.0645  18.0652  18.1653  18.1658  18.3292  18.3298  18.3407  18.3414
    18.3525  18.3532  18.4644  18.4647  18.5692  18.5698  18.6036  18.6043
    18.6130  18.6132  18.6385  18.6392  18.7453  18.7454  18.8113  18.8119
    18.8186  18.8192  18.8782  18.8785  18.9089  18.9092  18.9217  18.9219
    18.9587  18.9589  18.9618  18.9621  18.9764  18.9766  18.9811  18.9812
    19.0258  19.0266  19.0549  19.0550  19.0869  19.0872  19.3283  19.3290
    19.5244  19.5247  19.8966  19.8972  21.2179  21.2182  21.3919  21.3925
    22.4767  22.4771  22.6947  22.6952  23.1747  23.1753  23.4090  23.4095
    24.1118  24.1119  24.4061  24.4062  25.4575  25.4582  26.3118  26.3118
    26.3849  26.3850  26.4398  26.4401  26.5382  26.5383  26.6504  26.6509
    26.7289  26.7294  27.8644  27.8645  29.5878  29.5879  29.7211  29.7220
    29.7927  29.7936  30.1735  30.1736  30.8847  30.8855  30.9959  30.9961
    31.0567  31.0568

          k = 0.0554-0.5000-0.5000 ( 33084 PWs)   bands (ev):

   -64.9299 -64.9296 -64.9292 -64.9289 -64.9097 -64.9094 -64.9089 -64.9086
   -64.9058 -64.9055 -64.9050 -64.9047 -64.8918 -64.8918 -64.8915 -64.8915
   -64.8915 -64.8914 -64.8913 -64.8912 -64.8911 -64.8910 -64.8907 -64.8907
   -64.8907 -64.8907 -64.8905 -64.8904 -64.8856 -64.8853 -64.8848 -64.8845
   -30.7804 -30.7804 -30.7803 -30.7803 -30.7802 -30.7801 -30.7801 -30.7800
   -30.7551 -30.7551 -30.7548 -30.7548 -30.7545 -30.7545 -30.7542 -30.7542
   -30.7504 -30.7500 -30.7496 -30.7493 -30.7405 -30.7404 -30.7401 -30.7400
   -30.7258 -30.7257 -30.7254 -30.7253 -30.6751 -30.6751 -30.6750 -30.6750
   -30.6100 -30.6100 -30.6100 -30.6100 -30.6099 -30.6099 -30.6099 -30.6099
   -30.6079 -30.6078 -30.6076 -30.6075 -30.6071 -30.6071 -30.6068 -30.6067
   -30.5812 -30.5812 -30.5812 -30.5811 -30.5716 -30.5716 -30.5714 -30.5714
   -30.5711 -30.5710 -30.5708 -30.5707 -30.5688 -30.5688 -30.5687 -30.5687
   -30.5455 -30.5455 -30.5453 -30.5452 -30.5450 -30.5449 -30.5447 -30.5447
   -30.5308 -30.5306 -30.5304 -30.5302 -30.5246 -30.5246 -30.5246 -30.5246
   -30.5163 -30.5163 -30.5162 -30.5162 -30.5157 -30.5154 -30.5152 -30.5151
   -30.5015 -30.5013 -30.5008 -30.5005 -30.4718 -30.4718 -30.4718 -30.4718
    13.5485  13.5492  13.5495  13.5501  14.4166  14.4168  14.4169  14.4170
    14.5335  14.5336  14.5336  14.5337  14.6130  14.6131  14.6132  14.6133
    14.7428  14.7429  14.7433  14.7434  14.7436  14.7436  14.7441  14.7441
    14.9087  14.9087  14.9091  14.9093  14.9094  14.9095  14.9099  14.9100
    14.9494  14.9494  14.9495  14.9495  14.9495  14.9496  14.9496  14.9496
    15.1734  15.1735  15.1736  15.1736  15.6789  15.6789  15.6793  15.6794
    15.6795  15.6796  15.6800  15.6801  15.9872  15.9875  15.9875  15.9877
    16.2211  16.2215  16.2217  16.2221  16.4081  16.4085  16.4088  16.4091
    16.5298  16.5299  16.5301  16.5302  16.5401  16.5402  16.5403  16.5404
    16.7566  16.7569  16.7570  16.7573  16.7978  16.7978  16.7979  16.7979
    16.7979  16.7979  16.7981  16.7981  16.8597  16.8598  16.8598  16.8601
    16.8715  16.8716  16.8719  16.8720  16.9779  16.9780  16.9783  16.9783
    17.0875  17.0875  17.0876  17.0878  17.0879  17.0880  17.0881  17.0882
    17.2356  17.2359  17.2359  17.2362  17.2557  17.2557  17.2559  17.2559
    17.2560  17.2561  17.2562  17.2562  17.5687  17.5689  17.5695  17.5697
    18.2095  18.2097  18.2102  18.2104  18.2896  18.2898  18.2901  18.2903
    18.4936  18.4937  18.4937  18.4939  18.4941  18.4943  18.4943  18.4944
    18.8103  18.8104  18.8107  18.8108  18.8346  18.8346  18.8347  18.8349
    18.8351  18.8353  18.8354  18.8354  18.9485  18.9486  18.9489  18.9490
    18.9851  18.9853  18.9853  18.9855  18.9879  18.9879  18.9879  18.9879
    18.9881  18.9881  18.9881  18.9882  19.0516  19.0518  19.0520  19.0522
    19.6314  19.6317  19.6319  19.6321  21.9315  21.9317  21.9318  21.9319
    21.9320  21.9321  21.9323  21.9324  23.8784  23.8785  23.8785  23.8787
    23.8787  23.8788  23.8789  23.8789  25.9839  25.9844  25.9846  25.9850
    26.3441  26.3441  26.3442  26.3443  26.3443  26.3444  26.3444  26.3444
    27.1404  27.1407  27.1408  27.1408  29.7400  29.7403  29.7409  29.7412
    30.2960  30.2962  30.2962  30.2962  30.8858  30.8859  30.8859  30.8860
    31.4389  31.4393

          k = 0.1661 0.0556 0.0556 ( 33097 PWs)   bands (ev):

   -64.9454 -64.9233 -64.9171 -64.9171 -64.9117 -64.9116 -64.9071 -64.9050
   -64.9050 -64.9019 -64.9016 -64.9015 -64.8999 -64.8991 -64.8991 -64.8989
   -64.8988 -64.8985 -64.8966 -64.8961 -64.8960 -64.8941 -64.8940 -64.8853
   -64.8842 -64.8841 -64.8840 -64.8839 -64.8833 -64.8832 -64.8831 -64.8829
   -30.8260 -30.8243 -30.8243 -30.8212 -30.8056 -30.8056 -30.8026 -30.7441
   -30.7390 -30.7390 -30.7331 -30.7331 -30.7326 -30.7326 -30.7314 -30.7314
   -30.7312 -30.7199 -30.7198 -30.7171 -30.7170 -30.7126 -30.7126 -30.7087
   -30.7086 -30.6979 -30.6978 -30.6919 -30.6919 -30.6840 -30.6795 -30.6795
   -30.6602 -30.6601 -30.6463 -30.6463 -30.6312 -30.6312 -30.6304 -30.6304
   -30.6188 -30.6051 -30.6051 -30.6049 -30.6048 -30.6013 -30.6013 -30.5989
   -30.5989 -30.5972 -30.5971 -30.5961 -30.5951 -30.5950 -30.5949 -30.5948
   -30.5947 -30.5942 -30.5909 -30.5867 -30.5867 -30.5465 -30.5461 -30.5392
   -30.5392 -30.5319 -30.5319 -30.5275 -30.5275 -30.5266 -30.5266 -30.5242
   -30.5241 -30.5221 -30.5195 -30.5195 -30.5192 -30.5192 -30.5183 -30.5157
   -30.5142 -30.5136 -30.5136 -30.5134 -30.5133 -30.5121 -30.5120 -30.5110
   -30.5105 -30.5102 -30.5068 -30.5032 -30.5032 -30.4685 -30.4619 -30.4613
    12.3057  13.9524  14.0254  14.0375  14.0375  14.0858  14.1131  14.1131
    14.1264  14.2927  14.3075  14.3075  14.3127  14.3128  14.5087  14.5088
    14.5171  14.9081  14.9081  14.9697  15.0383  15.0384  15.0453  15.0454
    15.0689  15.1493  15.1493  15.1830  15.1831  15.1883  15.1952  15.1953
    15.3416  15.3417  15.3652  15.3653  15.3741  15.3742  15.4112  15.4112
    15.4564  15.4564  15.5166  15.7087  15.7087  15.7333  15.7334  15.7791
    15.7792  15.7884  15.7885  15.8459  15.8460  15.9337  15.9338  15.9397
    15.9843  15.9844  16.0303  16.0435  16.0436  16.0446  16.0446  16.0901
    16.0902  16.1307  16.1308  16.1623  16.1623  16.3077  16.3324  16.3324
    16.3432  16.3433  16.3580  16.3635  16.3636  16.3690  16.4093  16.4186
    16.4195  16.4362  16.4362  16.4505  16.4666  16.4690  16.4690  16.4719
    17.0409  17.0409  17.1442  17.1510  17.1759  17.1760  17.2298  17.2298
    17.2468  17.2952  17.3047  17.3047  17.4245  17.4357  17.4357  17.4484
    17.4485  17.4861  17.4861  17.4907  17.4907  17.7062  17.7063  17.7189
    17.7304  17.7305  17.8020  17.8021  17.8827  17.8828  17.8887  17.8888
    17.8914  17.8915  17.8959  17.9743  17.9795  17.9795  17.9835  18.0152
    18.0991  18.0992  18.1109  18.1109  18.1409  18.1409  18.2015  18.2128
    18.2128  18.2435  18.3664  18.4957  18.4957  18.6245  18.6245  18.6299
    18.6635  18.6774  18.6775  18.8931  18.9967  18.9968  19.0137  19.0376
    19.0727  19.0771  19.0771  19.1001  19.1001  19.2642  19.3124  19.3124
    19.3140  19.3140  19.3302  19.3984  19.3985  19.4003  19.4003  20.0575
    20.4167  20.4167  20.5405  20.5405  20.7701  20.8678  20.8986  20.8987
    21.3852  21.3852  21.9190  21.9496  21.9496  22.1079  22.4893  22.4894
    22.8177  22.8177  26.2392  26.3984  26.3985  26.6596  26.6597  26.6841
    26.6841  26.6931  27.2527  27.2527  27.5572  27.5573  28.2418  28.2420
    28.7257  28.7257  29.5636  29.5636  29.6288  29.6688  29.6688  29.8178
    29.8179  29.8861  29.8861  30.0473  30.1087  30.1087  30.1727  30.1727
    30.6573  30.6575

          k = 0.1661 0.0556 0.1667 ( 33105 PWs)   bands (ev):

   -64.9445 -64.9227 -64.9224 -64.9166 -64.9112 -64.9084 -64.9068 -64.9063
   -64.9049 -64.9048 -64.9015 -64.9014 -64.9008 -64.8994 -64.8983 -64.8982
   -64.8980 -64.8978 -64.8962 -64.8961 -64.8943 -64.8942 -64.8920 -64.8853
   -64.8846 -64.8845 -64.8842 -64.8841 -64.8839 -64.8838 -64.8835 -64.8830
   -30.8233 -30.8232 -30.8187 -30.8140 -30.8025 -30.8009 -30.7998 -30.7466
   -30.7450 -30.7442 -30.7423 -30.7347 -30.7330 -30.7317 -30.7316 -30.7306
   -30.7299 -30.7293 -30.7286 -30.7281 -30.7212 -30.7207 -30.7205 -30.7187
   -30.6953 -30.6893 -30.6890 -30.6882 -30.6872 -30.6844 -30.6825 -30.6766
   -30.6744 -30.6654 -30.6617 -30.6378 -30.6329 -30.6326 -30.6191 -30.6187
   -30.6157 -30.6147 -30.6099 -30.6028 -30.6025 -30.6020 -30.5997 -30.5956
   -30.5950 -30.5950 -30.5945 -30.5943 -30.5938 -30.5929 -30.5920 -30.5911
   -30.5902 -30.5899 -30.5779 -30.5773 -30.5724 -30.5515 -30.5493 -30.5442
   -30.5439 -30.5361 -30.5340 -30.5329 -30.5272 -30.5271 -30.5266 -30.5255
   -30.5239 -30.5230 -30.5229 -30.5228 -30.5224 -30.5214 -30.5180 -30.5169
   -30.5164 -30.5161 -30.5143 -30.5134 -30.5130 -30.5122 -30.5111 -30.5111
   -30.5069 -30.5068 -30.5036 -30.5025 -30.4969 -30.4764 -30.4639 -30.4611
    12.3782  14.0052  14.0149  14.0720  14.0721  14.0791  14.0986  14.1397
    14.1794  14.1795  14.3345  14.3348  14.3524  14.3533  14.5470  14.5697
    14.5786  14.9313  14.9395  14.9507  14.9606  14.9825  14.9828  14.9999
    15.0086  15.0251  15.0790  15.0792  15.0951  15.0961  15.2202  15.2206
    15.2234  15.2293  15.2319  15.2836  15.3965  15.4230  15.4243  15.4246
    15.4281  15.4564  15.4579  15.5346  15.5501  15.6847  15.6914  15.7730
    15.7742  15.7847  15.8726  15.8784  15.8875  15.8921  15.9498  15.9543
    15.9623  16.0159  16.0254  16.0295  16.0372  16.0815  16.0898  16.1863
    16.2315  16.2346  16.2664  16.2748  16.2851  16.2859  16.3369  16.3493
    16.3907  16.3918  16.3937  16.3955  16.3961  16.4064  16.4137  16.4278
    16.4561  16.4632  16.4637  16.4671  16.4708  16.4879  16.4966  16.5003
    16.9384  16.9866  16.9994  17.0474  17.1430  17.1559  17.2525  17.2674
    17.2723  17.2833  17.2854  17.3317  17.3401  17.3548  17.3636  17.4083
    17.4112  17.4250  17.4986  17.5685  17.5803  17.5822  17.5985  17.6006
    17.6198  17.8781  17.8786  17.8904  17.8925  17.8988  17.9672  17.9679
    17.9702  17.9816  17.9865  17.9922  17.9933  17.9949  18.0745  18.0789
    18.1016  18.1025  18.2801  18.2851  18.3204  18.3321  18.3373  18.3388
    18.3793  18.3800  18.3827  18.3931  18.4401  18.4434  18.4720  18.5110
    18.6342  18.7418  18.7940  18.7974  18.9259  18.9298  18.9319  18.9470
    19.0470  19.0723  19.0733  19.0868  19.0911  19.1060  19.2552  19.2560
    19.3110  19.3157  19.3275  19.3288  19.3301  19.3381  19.3528  19.7751
    19.9874  20.3854  20.3998  20.4381  20.8752  20.8929  21.0628  21.0638
    21.4416  21.4454  21.9372  21.9640  22.3991  22.4533  22.4777  22.5064
    23.0727  23.0793  26.0351  26.0657  26.2373  26.2388  26.6995  26.7493
    26.8010  26.8206  26.8448  27.1000  27.3818  27.4339  27.8187  27.8455
    28.8531  28.8827  29.1092  29.1544  29.5463  29.6483  29.6496  29.6934
    29.7826  29.7857  29.9840  30.0099  30.0386  30.1275  30.4598  30.4828
    30.7448  30.7977

          k = 0.1661 0.0556 0.2778 ( 33098 PWs)   bands (ev):

   -64.9426 -64.9275 -64.9215 -64.9156 -64.9117 -64.9104 -64.9075 -64.9060
   -64.9045 -64.9037 -64.9017 -64.9014 -64.9012 -64.9002 -64.8998 -64.8977
   -64.8972 -64.8962 -64.8947 -64.8945 -64.8935 -64.8920 -64.8901 -64.8861
   -64.8855 -64.8853 -64.8851 -64.8850 -64.8843 -64.8843 -64.8838 -64.8830
   -30.8179 -30.8164 -30.8093 -30.8030 -30.7963 -30.7941 -30.7915 -30.7623
   -30.7586 -30.7483 -30.7466 -30.7465 -30.7462 -30.7456 -30.7370 -30.7350
   -30.7348 -30.7297 -30.7287 -30.7266 -30.7261 -30.7228 -30.7221 -30.7148
   -30.7081 -30.6931 -30.6919 -30.6844 -30.6801 -30.6791 -30.6764 -30.6745
   -30.6711 -30.6668 -30.6573 -30.6493 -30.6456 -30.6323 -30.6295 -30.6175
   -30.6145 -30.6132 -30.6062 -30.6017 -30.5997 -30.5984 -30.5952 -30.5943
   -30.5941 -30.5936 -30.5908 -30.5859 -30.5831 -30.5819 -30.5809 -30.5780
   -30.5772 -30.5748 -30.5643 -30.5641 -30.5633 -30.5586 -30.5560 -30.5548
   -30.5406 -30.5398 -30.5392 -30.5380 -30.5357 -30.5351 -30.5347 -30.5334
   -30.5300 -30.5263 -30.5263 -30.5237 -30.5235 -30.5228 -30.5195 -30.5186
   -30.5181 -30.5167 -30.5162 -30.5162 -30.5126 -30.5113 -30.5104 -30.5044
   -30.5026 -30.5015 -30.5009 -30.4952 -30.4929 -30.4888 -30.4682 -30.4634
    12.5214  13.6681  14.1077  14.1387  14.1517  14.1606  14.1628  14.2062
    14.2712  14.2837  14.3890  14.4177  14.4298  14.4413  14.5462  14.6185
    14.6718  14.7528  14.7801  14.8114  14.8343  14.8464  14.8523  14.8844
    14.9725  14.9877  15.0106  15.0205  15.0343  15.0601  15.1415  15.1490
    15.1586  15.1705  15.2044  15.2513  15.2958  15.3123  15.3437  15.4459
    15.4593  15.4667  15.5096  15.5688  15.6158  15.6341  15.6367  15.7319
    15.7331  15.7444  15.7614  15.7754  15.8272  15.8839  15.8985  15.9402
    15.9418  15.9514  16.0381  16.0939  16.1341  16.1443  16.1886  16.2007
    16.2098  16.2177  16.2383  16.2614  16.2938  16.3148  16.3201  16.3447
    16.3710  16.4033  16.4501  16.4649  16.5002  16.5130  16.5165  16.5196
    16.5587  16.5728  16.5744  16.5838  16.6039  16.7043  16.7835  16.8061
    16.8312  16.8460  16.8747  16.9646  16.9712  17.0642  17.0797  17.0947
    17.1673  17.1849  17.2065  17.2768  17.2800  17.3581  17.3583  17.4682
    17.4806  17.4983  17.5108  17.5555  17.6024  17.6860  17.7406  17.7408
    17.7594  17.8361  17.8470  17.8628  17.8957  17.9392  17.9797  17.9830
    18.0081  18.0542  18.0600  18.0981  18.1074  18.1161  18.1190  18.1287
    18.1348  18.1662  18.2372  18.2742  18.3006  18.3320  18.3615  18.4279
    18.4371  18.4632  18.4672  18.4738  18.4833  18.4998  18.5012  18.5857
    18.6048  18.6167  18.7131  18.7901  18.8240  18.8461  18.9225  18.9442
    19.0115  19.0500  19.0508  19.0542  19.1392  19.1489  19.1489  19.1552
    19.1938  19.1975  19.2299  19.3101  19.3174  19.3259  19.3265  19.5999
    19.8035  19.9700  20.3224  20.4315  20.4631  20.8277  20.9554  21.3482
    21.5474  21.8459  21.9072  22.0666  22.4437  22.6136  22.8774  23.1574
    23.5316  23.7109  25.2325  25.3890  25.8996  26.1307  26.2416  26.4025
    26.4140  26.8932  27.0654  27.1084  27.1290  27.5910  27.6063  28.2648
    28.3492  28.6137  28.7962  28.9793  29.0862  29.1510  29.4321  29.6044
    29.7831  29.8842  29.8954  30.0204  30.1212  30.3782  30.4654  30.4977
    30.7108  30.7524

          k = 0.1661 0.0556 0.3889 ( 33113 PWs)   bands (ev):

   -64.9399 -64.9322 -64.9198 -64.9147 -64.9142 -64.9100 -64.9092 -64.9057
   -64.9050 -64.9041 -64.9025 -64.9020 -64.9012 -64.9002 -64.8974 -64.8965
   -64.8964 -64.8964 -64.8949 -64.8917 -64.8910 -64.8900 -64.8888 -64.8883
   -64.8869 -64.8867 -64.8865 -64.8853 -64.8852 -64.8844 -64.8837 -64.8830
   -30.8086 -30.8060 -30.7965 -30.7888 -30.7873 -30.7859 -30.7798 -30.7780
   -30.7760 -30.7635 -30.7626 -30.7618 -30.7535 -30.7460 -30.7440 -30.7391
   -30.7390 -30.7383 -30.7373 -30.7332 -30.7242 -30.7209 -30.7161 -30.7109
   -30.7005 -30.6984 -30.6939 -30.6891 -30.6862 -30.6773 -30.6686 -30.6637
   -30.6635 -30.6633 -30.6576 -30.6520 -30.6451 -30.6422 -30.6415 -30.6299
   -30.6271 -30.6155 -30.5951 -30.5943 -30.5936 -30.5933 -30.5921 -30.5920
   -30.5858 -30.5845 -30.5827 -30.5747 -30.5743 -30.5717 -30.5709 -30.5696
   -30.5669 -30.5659 -30.5629 -30.5612 -30.5534 -30.5525 -30.5497 -30.5493
   -30.5489 -30.5486 -30.5483 -30.5462 -30.5460 -30.5456 -30.5455 -30.5351
   -30.5332 -30.5327 -30.5264 -30.5253 -30.5251 -30.5241 -30.5238 -30.5227
   -30.5217 -30.5203 -30.5150 -30.5136 -30.5132 -30.5105 -30.5086 -30.5054
   -30.5052 -30.5019 -30.4964 -30.4918 -30.4916 -30.4846 -30.4744 -30.4683
    12.7313  13.3199  14.2319  14.2449  14.2536  14.2786  14.2927  14.3120
    14.4004  14.4232  14.4553  14.4691  14.5337  14.5419  14.5480  14.5723
    14.6001  14.6319  14.6330  14.6371  14.7002  14.7139  14.7622  14.7729
    14.7939  14.8166  14.9092  14.9267  14.9426  15.0238  15.1376  15.1508
    15.1554  15.1763  15.2173  15.2733  15.2762  15.3990  15.4114  15.4309
    15.4593  15.4782  15.5345  15.5537  15.5683  15.5794  15.5810  15.5891
    15.6156  15.6672  15.7204  15.7530  15.7587  15.8197  15.9041  15.9223
    15.9558  16.0007  16.1075  16.1171  16.1423  16.1682  16.1890  16.1892
    16.1929  16.1971  16.2358  16.2872  16.2877  16.2929  16.3148  16.3338
    16.3882  16.4085  16.4267  16.5419  16.5555  16.6026  16.6061  16.6283
    16.6341  16.6444  16.6819  16.6875  16.7039  16.7671  16.7708  16.7802
    16.8704  16.8851  16.8865  16.9719  16.9977  17.0191  17.0562  17.0762
    17.2354  17.2558  17.2780  17.2925  17.3053  17.3245  17.4229  17.5130
    17.5159  17.5328  17.5972  17.6457  17.6939  17.7081  17.7171  17.7173
    17.7378  17.7414  17.7919  17.8239  17.8626  17.8860  17.8905  17.8958
[...]
    23.4628  23.4628  24.1946  24.1949  24.3407  24.3409  24.9693  24.9695
    26.5236  26.5238  26.6698  26.6699  26.8639  26.8641  27.3939  27.3940
    27.6981  27.6983  28.1734  28.1735  28.4713  28.4714  29.1035  29.1037
    29.2936  29.2937  29.9072  29.9073  30.1917  30.1917  30.4201  30.4203
    31.3105  31.3107

          k =-0.4983 0.2778-0.5000 ( 33104 PWs)   bands (ev):

   -64.9279 -64.9277 -64.9272 -64.9270 -64.9170 -64.9168 -64.9163 -64.9161
   -64.8980 -64.8978 -64.8973 -64.8971 -64.8922 -64.8920 -64.8919 -64.8917
   -64.8916 -64.8915 -64.8914 -64.8914 -64.8913 -64.8912 -64.8911 -64.8909
   -64.8909 -64.8907 -64.8906 -64.8905 -64.8871 -64.8869 -64.8863 -64.8861
   -30.7761 -30.7761 -30.7760 -30.7760 -30.7754 -30.7754 -30.7750 -30.7750
   -30.7620 -30.7619 -30.7617 -30.7616 -30.7616 -30.7614 -30.7611 -30.7610
   -30.7595 -30.7594 -30.7591 -30.7589 -30.7583 -30.7582 -30.7577 -30.7576
   -30.6894 -30.6894 -30.6891 -30.6890 -30.6499 -30.6499 -30.6498 -30.6497
   -30.6101 -30.6100 -30.6100 -30.6099 -30.6099 -30.6099 -30.6095 -30.6094
   -30.6094 -30.6093 -30.6093 -30.6092 -30.6089 -30.6088 -30.6084 -30.6083
   -30.6055 -30.6054 -30.6053 -30.6053 -30.5674 -30.5673 -30.5671 -30.5670
   -30.5664 -30.5664 -30.5664 -30.5664 -30.5653 -30.5652 -30.5645 -30.5645
   -30.5640 -30.5638 -30.5637 -30.5635 -30.5492 -30.5492 -30.5485 -30.5485
   -30.5477 -30.5475 -30.5474 -30.5472 -30.5424 -30.5424 -30.5424 -30.5424
   -30.5008 -30.5008 -30.5007 -30.5007 -30.4937 -30.4935 -30.4932 -30.4931
   -30.4921 -30.4920 -30.4915 -30.4914 -30.4767 -30.4767 -30.4767 -30.4767
    13.6486  13.6490  13.6495  13.6498  14.1417  14.1419  14.1422  14.1424
    14.6615  14.6616  14.6616  14.6616  14.6789  14.6790  14.6792  14.6793
    14.6807  14.6808  14.6815  14.6815  14.6870  14.6870  14.6871  14.6871
    14.8328  14.8330  14.8331  14.8331  14.8331  14.8333  14.8336  14.8336
    15.1456  15.1456  15.1464  15.1464  15.1476  15.1476  15.1480  15.1480
    15.2496  15.2496  15.2497  15.2497  15.6858  15.6862  15.6865  15.6868
    15.6883  15.6886  15.6890  15.6892  15.8158  15.8161  15.8164  15.8166
    16.1239  16.1241  16.1242  16.1242  16.5347  16.5348  16.5351  16.5352
    16.6691  16.6692  16.6692  16.6692  16.6710  16.6712  16.6713  16.6715
    16.7194  16.7194  16.7198  16.7198  16.7333  16.7334  16.7336  16.7337
    16.7363  16.7363  16.7364  16.7366  16.7465  16.7467  16.7469  16.7471
    16.7664  16.7665  16.7666  16.7668  17.0311  17.0312  17.0312  17.0314
    17.0413  17.0414  17.0419  17.0420  17.1245  17.1247  17.1248  17.1250
    17.2431  17.2432  17.2435  17.2436  17.3894  17.3895  17.3897  17.3898
    17.3950  17.3951  17.3953  17.3954  17.7597  17.7598  17.7603  17.7604
    17.9610  17.9611  17.9615  17.9616  18.0000  18.0001  18.0002  18.0003
    18.0061  18.0061  18.0068  18.0068  18.2189  18.2190  18.2193  18.2195
    18.2720  18.2720  18.2723  18.2724  18.4737  18.4738  18.4742  18.4743
    19.0816  19.0816  19.0817  19.0817  19.0848  19.0849  19.0851  19.0852
    19.1051  19.1053  19.1054  19.1055  19.1245  19.1246  19.1250  19.1251
    19.1301  19.1302  19.1303  19.1304  19.1431  19.1431  19.1434  19.1435
    21.0719  21.0721  21.0724  21.0726  22.1734  22.1735  22.1739  22.1740
    22.1973  22.1976  22.1978  22.1980  23.4060  23.4060  23.4066  23.4067
    23.4320  23.4322  23.4322  23.4324  24.5883  24.5885  24.5889  24.5891
    26.9895  26.9896  26.9901  26.9902  27.0174  27.0175  27.0175  27.0177
    27.4625  27.4627  27.4628  27.4628  29.1559  29.1560  29.1561  29.1561
    29.7106  29.7106  29.7114  29.7115  29.7402  29.7403  29.7404  29.7405
    31.4113  31.4119

          k =-0.4983 0.3889 0.3889 ( 33084 PWs)   bands (ev):

   -64.9283 -64.9281 -64.9224 -64.9223 -64.9222 -64.9221 -64.9173 -64.9171
   -64.8947 -64.8946 -64.8945 -64.8943 -64.8939 -64.8939 -64.8937 -64.8936
   -64.8922 -64.8920 -64.8919 -64.8917 -64.8913 -64.8911 -64.8910 -64.8908
   -64.8891 -64.8890 -64.8889 -64.8888 -64.8884 -64.8883 -64.8882 -64.8880
   -30.7778 -30.7778 -30.7744 -30.7743 -30.7741 -30.7741 -30.7670 -30.7670
   -30.7669 -30.7668 -30.7654 -30.7654 -30.7652 -30.7652 -30.7642 -30.7642
   -30.7641 -30.7641 -30.7600 -30.7599 -30.7587 -30.7587 -30.7586 -30.7585
   -30.6893 -30.6892 -30.6472 -30.6472 -30.6471 -30.6471 -30.6318 -30.6318
   -30.6318 -30.6318 -30.6279 -30.6279 -30.6278 -30.6278 -30.6136 -30.6136
   -30.6135 -30.6135 -30.6063 -30.6063 -30.6052 -30.6051 -30.6038 -30.6037
   -30.5904 -30.5904 -30.5903 -30.5903 -30.5874 -30.5874 -30.5874 -30.5874
   -30.5673 -30.5673 -30.5672 -30.5671 -30.5631 -30.5629 -30.5578 -30.5578
   -30.5577 -30.5577 -30.5561 -30.5561 -30.5560 -30.5559 -30.5533 -30.5533
   -30.5532 -30.5532 -30.5460 -30.5459 -30.5459 -30.5459 -30.5456 -30.5454
   -30.4976 -30.4976 -30.4950 -30.4949 -30.4949 -30.4948 -30.4897 -30.4896
   -30.4844 -30.4844 -30.4844 -30.4844 -30.4832 -30.4830 -30.4792 -30.4792
    13.5813  13.5816  13.9314  13.9315  13.9316  13.9317  14.0805  14.0806
    14.6123  14.6126  14.6365  14.6365  14.6365  14.6365  14.7186  14.7186
    14.7187  14.7187  14.7295  14.7295  14.7297  14.7297  14.7667  14.7669
    14.7771  14.7771  14.7771  14.7772  14.7802  14.7802  14.7805  14.7805
    15.1307  15.1311  15.1765  15.1765  15.1765  15.1765  15.4651  15.4652
    15.4652  15.4653  15.4734  15.4735  15.4738  15.4739  15.4917  15.4918
    15.4919  15.4919  15.7119  15.7123  15.7543  15.7544  15.7546  15.7546
    16.1885  16.1886  16.2851  16.2851  16.2852  16.2853  16.6132  16.6133
    16.6780  16.6781  16.7129  16.7130  16.7256  16.7257  16.7257  16.7257
    16.7370  16.7370  16.7371  16.7371  16.7419  16.7421  16.7474  16.7475
    16.7476  16.7476  16.7487  16.7487  16.7488  16.7488  16.7492  16.7493
    16.8076  16.8077  16.8077  16.8077  16.8242  16.8243  16.8489  16.8490
    16.8491  16.8491  17.1537  17.1538  17.1539  17.1539  17.1899  17.1901
    17.3032  17.3033  17.3034  17.3034  17.3331  17.3332  17.5842  17.5843
    17.5843  17.5844  17.6551  17.6552  17.6552  17.6553  17.6853  17.6853
    17.6854  17.6854  17.8785  17.8787  17.9075  17.9076  17.9544  17.9545
    17.9545  17.9545  17.9546  17.9546  17.9546  17.9547  18.0789  18.0791
    18.1801  18.1801  18.3197  18.3198  18.3198  18.3199  18.4251  18.4253
    19.1068  19.1068  19.1069  19.1069  19.1207  19.1207  19.1256  19.1256
    19.1256  19.1256  19.1563  19.1563  19.1564  19.1564  19.1572  19.1573
    19.1574  19.1574  19.1901  19.1902  19.1903  19.1903  19.2094  19.2094
    21.6207  21.6208  21.6209  21.6209  22.0452  22.0453  22.2091  22.2092
    22.2093  22.2093  22.8500  22.8501  22.8501  22.8502  23.2960  23.2961
    23.3276  23.3276  23.3278  23.3278  24.0330  24.0331  24.0332  24.0333
    26.9648  26.9649  27.1593  27.1594  27.1595  27.1595  27.9776  27.9777
    27.9780  27.9781  28.2878  28.2880  28.2880  28.2882  28.5010  28.5011
    28.5012  28.5013  29.3850  29.3850  29.3851  29.3851  29.6538  29.6540
    32.0624  32.0624

          k =-0.4983 0.3889-0.5000 ( 33120 PWs)   bands (ev):

   -64.9260 -64.9258 -64.9252 -64.9250 -64.9204 -64.9202 -64.9197 -64.9195
   -64.8947 -64.8945 -64.8939 -64.8937 -64.8922 -64.8920 -64.8919 -64.8917
   -64.8916 -64.8915 -64.8914 -64.8914 -64.8913 -64.8912 -64.8911 -64.8909
   -64.8909 -64.8907 -64.8906 -64.8905 -64.8890 -64.8888 -64.8883 -64.8881
   -30.7725 -30.7724 -30.7724 -30.7723 -30.7715 -30.7715 -30.7710 -30.7710
   -30.7670 -30.7668 -30.7665 -30.7665 -30.7664 -30.7663 -30.7660 -30.7658
   -30.7637 -30.7635 -30.7633 -30.7632 -30.7624 -30.7623 -30.7618 -30.7617
   -30.6683 -30.6682 -30.6680 -30.6679 -30.6306 -30.6306 -30.6304 -30.6304
   -30.6251 -30.6251 -30.6249 -30.6249 -30.6102 -30.6101 -30.6100 -30.6100
   -30.6098 -30.6097 -30.6096 -30.6095 -30.6095 -30.6094 -30.6094 -30.6094
   -30.6093 -30.6093 -30.6092 -30.6091 -30.5883 -30.5882 -30.5880 -30.5879
   -30.5622 -30.5622 -30.5621 -30.5621 -30.5613 -30.5613 -30.5605 -30.5605
   -30.5596 -30.5594 -30.5594 -30.5592 -30.5528 -30.5527 -30.5520 -30.5520
   -30.5509 -30.5507 -30.5507 -30.5505 -30.5499 -30.5499 -30.5499 -30.5498
   -30.4933 -30.4933 -30.4932 -30.4932 -30.4882 -30.4881 -30.4879 -30.4878
   -30.4878 -30.4877 -30.4873 -30.4872 -30.4810 -30.4810 -30.4810 -30.4810
    13.7451  13.7454  13.7459  13.7462  13.9989  13.9992  13.9995  13.9997
    14.6825  14.6826  14.6828  14.6829  14.6846  14.6846  14.6854  14.6854
    14.6932  14.6932  14.6932  14.6932  14.7149  14.7150  14.7151  14.7151
    14.7649  14.7652  14.7652  14.7654  14.7661  14.7661  14.7667  14.7667
    15.3038  15.3039  15.3047  15.3047  15.3067  15.3069  15.3071  15.3073
    15.3399  15.3400  15.3401  15.3402  15.6060  15.6062  15.6067  15.6068
    15.6069  15.6071  15.6072  15.6076  15.6272  15.6274  15.6277  15.6278
    16.2524  16.2526  16.2526  16.2526  16.5004  16.5005  16.5007  16.5007
    16.6822  16.6823  16.6824  16.6825  16.7045  16.7046  16.7051  16.7052
    16.7129  16.7130  16.7130  16.7132  16.7357  16.7358  16.7358  16.7360
    16.7709  16.7710  16.7710  16.7711  16.7809  16.7810  16.7812  16.7813
    16.7912  16.7913  16.7916  16.7917  16.9678  16.9679  16.9679  16.9681
    16.9819  16.9820  16.9824  16.9826  17.0136  17.0138  17.0139  17.0140
    17.4139  17.4140  17.4143  17.4144  17.4766  17.4767  17.4769  17.4770
    17.4870  17.4871  17.4874  17.4874  17.7709  17.7711  17.7712  17.7713
    17.7818  17.7819  17.7823  17.7824  17.7826  17.7827  17.7831  17.7832
    17.9218  17.9220  17.9224  17.9225  18.1225  18.1226  18.1229  18.1230
    18.1548  18.1549  18.1552  18.1554  18.2882  18.2883  18.2887  18.2888
    19.1455  19.1456  19.1457  19.1457  19.1497  19.1498  19.1499  19.1500
    19.1624  19.1625  19.1626  19.1627  19.1848  19.1849  19.1852  19.1853
    19.1860  19.1860  19.1863  19.1864  19.1902  19.1903  19.1904  19.1905
    21.8934  21.8936  21.8940  21.8942  22.4308  22.4310  22.4314  22.4315
    22.4569  22.4571  22.4573  22.4575  23.0750  23.0751  23.0756  23.0757
    23.1029  23.1031  23.1032  23.1034  23.6761  23.6763  23.6768  23.6770
    27.5355  27.5356  27.5362  27.5363  27.5660  27.5662  27.5662  27.5664
    27.7828  27.7829  27.7831  27.7831  28.6440  28.6441  28.6443  28.6443
    28.9104  28.9104  28.9112  28.9112  28.9409  28.9410  28.9411  28.9412
    32.4818  32.4823

          k =-0.4983-0.5000-0.5000 ( 33072 PWs)   bands (ev):

   -64.9236 -64.9234 -64.9233 -64.9231 -64.9228 -64.9226 -64.9225 -64.9223
   -64.8924 -64.8922 -64.8921 -64.8919 -64.8918 -64.8917 -64.8916 -64.8915
   -64.8914 -64.8914 -64.8914 -64.8913 -64.8912 -64.8911 -64.8911 -64.8910
   -64.8909 -64.8908 -64.8907 -64.8906 -64.8906 -64.8905 -64.8904 -64.8902
   -30.7684 -30.7683 -30.7683 -30.7683 -30.7682 -30.7681 -30.7681 -30.7680
   -30.7680 -30.7679 -30.7678 -30.7678 -30.7678 -30.7677 -30.7677 -30.7677
   -30.7669 -30.7668 -30.7667 -30.7666 -30.7664 -30.7663 -30.7662 -30.7661
   -30.6466 -30.6466 -30.6465 -30.6464 -30.6464 -30.6463 -30.6463 -30.6462
   -30.6101 -30.6101 -30.6100 -30.6099 -30.6098 -30.6098 -30.6097 -30.6097
   -30.6097 -30.6097 -30.6097 -30.6096 -30.6096 -30.6096 -30.6095 -30.6095
   -30.6095 -30.6095 -30.6094 -30.6094 -30.6093 -30.6093 -30.6093 -30.6092
   -30.5570 -30.5569 -30.5569 -30.5569 -30.5567 -30.5567 -30.5567 -30.5567
   -30.5564 -30.5564 -30.5564 -30.5564 -30.5562 -30.5562 -30.5561 -30.5561
   -30.5549 -30.5549 -30.5549 -30.5549 -30.5547 -30.5547 -30.5547 -30.5547
   -30.4872 -30.4872 -30.4871 -30.4870 -30.4868 -30.4868 -30.4865 -30.4865
   -30.4860 -30.4860 -30.4859 -30.4859 -30.4858 -30.4858 -30.4858 -30.4857
    13.8639  13.8643  13.8645  13.8647  13.8647  13.8650  13.8652  13.8654
    14.7124  14.7124  14.7125  14.7126  14.7127  14.7127  14.7128  14.7129
    14.7142  14.7142  14.7142  14.7143  14.7143  14.7144  14.7144  14.7145
    14.7147  14.7148  14.7148  14.7149  14.7149  14.7149  14.7150  14.7150
    15.4659  15.4660  15.4662  15.4662  15.4663  15.4663  15.4664  15.4665
    15.4667  15.4667  15.4667  15.4669  15.4670  15.4671  15.4671  15.4671
    15.4686  15.4689  15.4690  15.4690  15.4692  15.4693  15.4694  15.4696
    16.3936  16.3939  16.3939  16.3939  16.3939  16.3940  16.3940  16.3940
    16.6875  16.6876  16.6876  16.6877  16.6878  16.6878  16.6878  16.6880
    16.7140  16.7140  16.7141  16.7141  16.7142  16.7143  16.7143  16.7145
    16.8754  16.8756  16.8756  16.8757  16.8757  16.8758  16.8758  16.8760
    16.8902  16.8903  16.8904  16.8905  16.8905  16.8906  16.8906  16.8906
    16.8907  16.8907  16.8907  16.8908  16.8908  16.8909  16.8910  16.8911
    17.5962  17.5963  17.5963  17.5963  17.5964  17.5964  17.5965  17.5966
    17.5966  17.5966  17.5967  17.5967  17.5968  17.5968  17.5968  17.5969
    17.6092  17.6092  17.6093  17.6094  17.6096  17.6097  17.6098  17.6099
    18.0992  18.0994  18.0994  18.0995  18.0996  18.0998  18.0998  18.0999
    18.1079  18.1081  18.1081  18.1082  18.1085  18.1086  18.1086  18.1087
    19.1868  19.1868  19.1869  19.1869  19.1870  19.1871  19.1872  19.1872
    19.1916  19.1917  19.1917  19.1917  19.1917  19.1918  19.1918  19.1919
    19.1919  19.1919  19.1920  19.1920  19.1920  19.1920  19.1921  19.1921
    22.7398  22.7400  22.7402  22.7403  22.7404  22.7406  22.7408  22.7409
    22.7673  22.7674  22.7675  22.7676  22.7676  22.7677  22.7678  22.7678
    22.7679  22.7680  22.7681  22.7681  22.7682  22.7683  22.7683  22.7684
    28.1810  28.1812  28.1812  28.1813  28.1813  28.1814  28.1816  28.1816
    28.1816  28.1817  28.1819  28.1820  28.1820  28.1821  28.1821  28.1822
    28.2121  28.2124  28.2124  28.2124  28.2125  28.2125  28.2126  28.2127
    33.4869  33.4875

     the Fermi energy is    19.2120 ev

!    total energy              =  -16384.95907233 Ry
     Harris-Foulkes estimate   =  -16384.95906134 Ry
     estimated scf accuracy    <       0.00000051 Ry

     total all-electron energy =   -322945.812779 Ry

     The total energy is the sum of the following terms:

     one-electron contribution =   -2495.56898067 Ry
     hartree contribution      =    1664.04333967 Ry
     xc contribution           =    -986.44915609 Ry
     ewald contribution        =   -6399.59534177 Ry
     one-center paw contrib.   =   -8167.42292488 Ry
     smearing contrib. (-TS)   =       0.03399141 Ry

     convergence has been achieved in  11 iterations

     Forces acting on atoms (cartesian axes, Ry/au):

     atom    1 type  1   force =     0.00000000    0.00000000    0.00000000
     atom    2 type  1   force =     0.00000520    0.00007430    0.00000000
     atom    3 type  1   force =     0.00000520   -0.00000000    0.00007430
     atom    4 type  1   force =     0.00000000    0.00005377    0.00005377
     atom    5 type  1   force =     0.00000000    0.00000000    0.00000000
     atom    6 type  1   force =     0.00005993    0.00010081   -0.00000000
     atom    7 type  1   force =     0.00000520    0.00000000   -0.00007430
     atom    8 type  1   force =     0.00000000    0.00005377   -0.00005377
     atom    9 type  1   force =     0.00000000    0.00000000    0.00000000
     atom   10 type  1   force =     0.00000520   -0.00007430    0.00000000
     atom   11 type  1   force =     0.00005993   -0.00000000    0.00010081
     atom   12 type  1   force =     0.00000000   -0.00005377    0.00005377
     atom   13 type  1   force =     0.00000000    0.00000000    0.00000000
     atom   14 type  1   force =     0.00005993   -0.00010081    0.00000000
     atom   15 type  1   force =     0.00005993    0.00000000   -0.00010081
     atom   16 type  1   force =     0.00000000   -0.00005377   -0.00005377
     atom   17 type  1   force =     0.00000000    0.00000000    0.00000000
     atom   18 type  1   force =    -0.00000520    0.00007430   -0.00000000
     atom   19 type  1   force =    -0.00000520   -0.00000000    0.00007430
     atom   20 type  1   force =     0.00000000    0.00013516    0.00013516
     atom   21 type  1   force =     0.00000000    0.00000000    0.00000000
     atom   22 type  1   force =    -0.00005993    0.00010081    0.00000000
     atom   23 type  1   force =    -0.00000520    0.00000000   -0.00007430
     atom   24 type  1   force =     0.00000000    0.00013516   -0.00013516
     atom   25 type  1   force =     0.00000000    0.00000000   -0.00000000
     atom   26 type  1   force =    -0.00000520   -0.00007430    0.00000000
     atom   27 type  1   force =    -0.00005993   -0.00000000    0.00010081
     atom   28 type  1   force =     0.00000000   -0.00013516    0.00013516
     atom   29 type  1   force =     0.00000000    0.00000000    0.00000000
     atom   30 type  1   force =    -0.00005993   -0.00010081    0.00000000
     atom   31 type  1   force =    -0.00005993    0.00000000   -0.00010081
     atom   32 type  1   force =     0.00000000   -0.00013516   -0.00013516

     Total force =     0.000569     Total SCF correction =     0.004899
     SCF correction compared to forces is large: reduce conv_thr to get better values


     Computing stress (Cartesian axis) and pressure

          total   stress  (Ry/bohr**3)                   (kbar)     P=   -4.68
  -0.00004327   0.00000000   0.00000000         -6.37      0.00      0.00
   0.00000000  -0.00002611   0.00000000          0.00     -3.84      0.00
   0.00000000   0.00000000  -0.00002611          0.00      0.00     -3.84


     Writing output data file WuSqVhLHVdTeoCRV.save/
 
     init_run     :     40.96s CPU     44.44s WALL (       1 calls)
     electrons    :   1948.57s CPU   2053.86s WALL (       1 calls)
     forces       :     18.47s CPU     19.19s WALL (       1 calls)
     stress       :    182.01s CPU    182.78s WALL (       1 calls)

     Called by init_run:
     wfcinit      :     40.19s CPU     43.59s WALL (       1 calls)
     potinit      :      0.36s CPU      0.38s WALL (       1 calls)
     hinit0       :      0.23s CPU      0.25s WALL (       1 calls)

     Called by electrons:
     c_bands      :   1769.27s CPU   1855.45s WALL (      12 calls)
     sum_band     :    175.28s CPU    193.99s WALL (      12 calls)
     v_of_rho     :      0.35s CPU      0.37s WALL (      12 calls)
     newd         :      0.82s CPU      1.09s WALL (      12 calls)
     PAW_pot      :      3.03s CPU      3.11s WALL (      12 calls)
     mix_rho      :      0.08s CPU      0.10s WALL (      12 calls)

     Called by c_bands:
     init_us_2    :     10.81s CPU     10.87s WALL (    2025 calls)
     cegterg      :   1710.17s CPU   1795.86s WALL (     900 calls)

     Called by sum_band:
     sum_band:bec :      1.38s CPU      1.40s WALL (     900 calls)
     addusdens    :      0.86s CPU      1.16s WALL (      12 calls)

     Called by *egterg:
     h_psi        :    708.91s CPU    786.92s WALL (    2569 calls)
     s_psi        :     85.50s CPU     85.73s WALL (    2569 calls)
     g_psi        :      2.50s CPU      2.51s WALL (    1594 calls)
     cdiaghg      :    643.07s CPU    644.86s WALL (    2419 calls)

     Called by h_psi:
     h_psi:pot    :    701.42s CPU    779.15s WALL (    2569 calls)
     h_psi:calbec :     89.36s CPU     93.62s WALL (    2569 calls)
     vloc_psi     :    526.66s CPU    599.70s WALL (    2569 calls)
     add_vuspsi   :     85.38s CPU     85.81s WALL (    2569 calls)

     General routines
     calbec       :    150.75s CPU    157.74s WALL (    3844 calls)
     fft          :      0.34s CPU      0.37s WALL (     181 calls)
     ffts         :      0.03s CPU      0.03s WALL (      24 calls)
     fftw         :    611.53s CPU    695.81s WALL ( 1706840 calls)
     interpolate  :      0.04s CPU      0.04s WALL (      12 calls)
 
     Parallel routines
     fft_scatt_xy :     48.93s CPU     54.88s WALL ( 1707045 calls)
     fft_scatt_yz :    407.17s CPU    466.95s WALL ( 1707045 calls)
 
     PWSCF        : 36m36.72s CPU    39m58.88s WALL

 
   This run was terminated on:  12:38: 0  11Nov2020            

=------------------------------------------------------------------------------=
   JOB DONE.
=------------------------------------------------------------------------------=
