--------------------------------------------------------------------------
WARNING: No preset parameters were found for the device that Open MPI
detected:

  Local host:            bear-pg0206u14b
  Device name:           mlx5_0
  Device vendor ID:      0x02c9
  Device vendor part ID: 4123

Default device parameters will be used, which may result in lower
performance.  You can edit any of the files specified by the
btl_openib_device_param_files MCA parameter to set values for your
device.

NOTE: You can turn off this warning by setting the MCA parameter
      btl_openib_warn_no_device_params_found to 0.
--------------------------------------------------------------------------
--------------------------------------------------------------------------
WARNING: There was an error initializing an OpenFabrics device.

  Local host:   bear-pg0206u14b
  Local device: mlx5_0
--------------------------------------------------------------------------

     Program PWSCF v.6.3 starts on 11Nov2020 at 11:18:11 

     This program is part of the open-source Quantum ESPRESSO suite
     for quantum simulation of materials; please cite
         "P. Giannozzi et al., J. Phys.:Condens. Matter 21 395502 (2009);
         "P. Giannozzi et al., J. Phys.:Condens. Matter 29 465901 (2017);
          URL http://www.quantum-espresso.org", 
     in publications or presentations arising from this work. More details at
     http://www.quantum-espresso.org/quote

     Parallel version (MPI & OpenMP), running on      20 processor cores
     Number of MPI processes:                20
     Threads/MPI process:                     1

     MPI processes distributed on     1 nodes
     R & G space division:  proc/nbgrp/npool/nimage =      20
     Reading input from wd/ec/ec_1_004.in
Warning: card &IONS ignored
Warning: card ION_DYNAMICS = 'BFGS', ignored
Warning: card / ignored
Warning: card &CELL ignored
Warning: card CELL_DYNAMICS = 'BFGS', ignored
Warning: card CELL_FACTOR = 2.0, ignored
Warning: card PRESS = 0.0, ignored
Warning: card / ignored

     Current dimensions of program PWSCF are:
     Max number of different atomic species (ntypx) = 10
     Max number of k-points (npk) =  40000
     Max angular momentum in pseudopotentials (lmaxx) =  3
               file Pd.pbe-spn-kjpaw_psl.1.0.0.UPF: wavefunction(s)  4S 5S 4D renormalized

     Subspace diagonalization in iterative solution of the eigenvalue problem:
     a serial algorithm will be used

 
     Parallelization info
     --------------------
     sticks:   dense  smooth     PW     G-vecs:    dense   smooth      PW
     Min         377     249     67                24653    13234    1875
     Max         378     251     68                24658    13236    1880
     Sum        7551    4985   1353               493091   264699   37545
 


     bravais-lattice index     =            0
     lattice parameter (alat)  =      14.8394  a.u.
     unit-cell volume          =    3275.9340 (a.u.)^3
     number of atoms/cell      =           32
     number of atomic types    =            1
     number of electrons       =       576.00
     number of Kohn-Sham states=          346
     kinetic-energy cutoff     =      71.0000  Ry
     charge density cutoff     =     430.0000  Ry
     convergence threshold     =      1.0E-06
     mixing beta               =       0.1000
     number of iterations used =           10  plain     mixing
     Exchange-correlation      = SLA PW PBX PBC ( 1  4  3  4 0 0)

     celldm(1)=  14.839420  celldm(2)=   0.000000  celldm(3)=   0.000000
     celldm(4)=   0.000000  celldm(5)=   0.000000  celldm(6)=   0.000000

     crystal axes: (cart. coord. in units of alat)
               a(1) = (   1.002500   0.000000   0.000000 )  
               a(2) = (   0.000000   1.000000   0.000000 )  
               a(3) = (   0.000000   0.000000   1.000000 )  

     reciprocal axes: (cart. coord. in units 2 pi/alat)
               b(1) = (  0.997506  0.000000  0.000000 )  
               b(2) = (  0.000000  1.000000  0.000000 )  
               b(3) = (  0.000000  0.000000  1.000000 )  


     PseudoPot. # 1 for Pd read from file:
     /rds/homes/b/bxp912/pp/Pd.pbe-spn-kjpaw_psl.1.0.0.UPF
     MD5 check sum: 790f2ebce206edfd9790dcb9844eca51
     Pseudo is Projector augmented-wave + core cor, Zval = 18.0
     Generated using "atomic" code by A. Dal Corso v.6.3
     Shape of augmentation charge: PSQ
     Using radial grid of 1235 points,  6 beta functions with: 
                l(1) =   0
                l(2) =   0
                l(3) =   1
                l(4) =   1
                l(5) =   2
                l(6) =   2
     Q(r) pseudized with 0 coefficients 


     atomic species   valence    mass     pseudopotential
        Pd            18.00   106.42000     Pd( 1.00)

     16 Sym. Ops., with inversion, found



   Cartesian axes

     site n.     atom                  positions (alat units)
         1           Pd  tau(   1) = (   0.0000000   0.0000000   0.0000000  )
         2           Pd  tau(   2) = (   0.2506295   0.2500045   0.0000000  )
         3           Pd  tau(   3) = (   0.2506295   0.0000000   0.2500040  )
         4           Pd  tau(   4) = (   0.0000000   0.2500045   0.2500040  )
         5           Pd  tau(   5) = (   0.0000000   0.0000000   0.4999990  )
         6           Pd  tau(   6) = (   0.2506366   0.2500116   0.4999990  )
         7           Pd  tau(   7) = (   0.2506295   0.0000000   0.7499950  )
         8           Pd  tau(   8) = (   0.0000000   0.2500045   0.7499950  )
         9           Pd  tau(   9) = (   0.0000000   0.4999998   0.0000000  )
        10           Pd  tau(  10) = (   0.2506295   0.7499952   0.0000000  )
        11           Pd  tau(  11) = (   0.2506366   0.4999998   0.2500109  )
        12           Pd  tau(  12) = (   0.0000000   0.7499952   0.2500040  )
        13           Pd  tau(  13) = (   0.0000000   0.4999998   0.4999990  )
        14           Pd  tau(  14) = (   0.2506366   0.7499881   0.4999990  )
        15           Pd  tau(  15) = (   0.2506366   0.4999998   0.7499881  )
        16           Pd  tau(  16) = (   0.0000000   0.7499952   0.7499950  )
        17           Pd  tau(  17) = (   0.5012498   0.0000000   0.0000000  )
        18           Pd  tau(  18) = (   0.7518702   0.2500045   0.0000000  )
        19           Pd  tau(  19) = (   0.7518702   0.0000000   0.2500040  )
        20           Pd  tau(  20) = (   0.5012498   0.2500116   0.2500109  )
        21           Pd  tau(  21) = (   0.5012498   0.0000000   0.4999990  )
        22           Pd  tau(  22) = (   0.7518631   0.2500116   0.4999990  )
        23           Pd  tau(  23) = (   0.7518702   0.0000000   0.7499950  )
        24           Pd  tau(  24) = (   0.5012498   0.2500116   0.7499881  )
        25           Pd  tau(  25) = (   0.5012498   0.4999998   0.0000000  )
        26           Pd  tau(  26) = (   0.7518702   0.7499952   0.0000000  )
        27           Pd  tau(  27) = (   0.7518631   0.4999998   0.2500109  )
        28           Pd  tau(  28) = (   0.5012498   0.7499881   0.2500109  )
        29           Pd  tau(  29) = (   0.5012498   0.4999998   0.4999990  )
        30           Pd  tau(  30) = (   0.7518631   0.7499881   0.4999990  )
        31           Pd  tau(  31) = (   0.7518631   0.4999998   0.7499881  )
        32           Pd  tau(  32) = (   0.5012498   0.7499881   0.7499881  )

     number of k points=    75  Marzari-Vanderbilt smearing, width (Ry)=  0.0400
                       cart. coord. in units 2pi/alat
        k(    1) = (   0.0554170   0.0555556   0.0555556), wk =   0.0219479
        k(    2) = (   0.0554170   0.0555556   0.1666667), wk =   0.0438957
        k(    3) = (   0.0554170   0.0555556   0.2777778), wk =   0.0438957
        k(    4) = (   0.0554170   0.0555556   0.3888889), wk =   0.0438957
        k(    5) = (   0.0554170   0.0555556  -0.5000000), wk =   0.0219479
        k(    6) = (   0.0554170   0.1666667   0.1666667), wk =   0.0219479
        k(    7) = (   0.0554170   0.1666667   0.2777778), wk =   0.0438957
        k(    8) = (   0.0554170   0.1666667   0.3888889), wk =   0.0438957
        k(    9) = (   0.0554170   0.1666667  -0.5000000), wk =   0.0219479
        k(   10) = (   0.0554170   0.2777778   0.2777778), wk =   0.0219479
        k(   11) = (   0.0554170   0.2777778   0.3888889), wk =   0.0438957
        k(   12) = (   0.0554170   0.2777778  -0.5000000), wk =   0.0219479
        k(   13) = (   0.0554170   0.3888889   0.3888889), wk =   0.0219479
        k(   14) = (   0.0554170   0.3888889  -0.5000000), wk =   0.0219479
        k(   15) = (   0.0554170  -0.5000000  -0.5000000), wk =   0.0054870
        k(   16) = (   0.1662510   0.0555556   0.0555556), wk =   0.0219479
        k(   17) = (   0.1662510   0.0555556   0.1666667), wk =   0.0438957
        k(   18) = (   0.1662510   0.0555556   0.2777778), wk =   0.0438957
        k(   19) = (   0.1662510   0.0555556   0.3888889), wk =   0.0438957
        k(   20) = (   0.1662510   0.0555556  -0.5000000), wk =   0.0219479
        k(   21) = (   0.1662510   0.1666667   0.1666667), wk =   0.0219479
        k(   22) = (   0.1662510   0.1666667   0.2777778), wk =   0.0438957
        k(   23) = (   0.1662510   0.1666667   0.3888889), wk =   0.0438957
        k(   24) = (   0.1662510   0.1666667  -0.5000000), wk =   0.0219479
        k(   25) = (   0.1662510   0.2777778   0.2777778), wk =   0.0219479
        k(   26) = (   0.1662510   0.2777778   0.3888889), wk =   0.0438957
        k(   27) = (   0.1662510   0.2777778  -0.5000000), wk =   0.0219479
        k(   28) = (   0.1662510   0.3888889   0.3888889), wk =   0.0219479
        k(   29) = (   0.1662510   0.3888889  -0.5000000), wk =   0.0219479
        k(   30) = (   0.1662510  -0.5000000  -0.5000000), wk =   0.0054870
        k(   31) = (   0.2770851   0.0555556   0.0555556), wk =   0.0219479
        k(   32) = (   0.2770851   0.0555556   0.1666667), wk =   0.0438957
        k(   33) = (   0.2770851   0.0555556   0.2777778), wk =   0.0438957
        k(   34) = (   0.2770851   0.0555556   0.3888889), wk =   0.0438957
        k(   35) = (   0.2770851   0.0555556  -0.5000000), wk =   0.0219479
        k(   36) = (   0.2770851   0.1666667   0.1666667), wk =   0.0219479
        k(   37) = (   0.2770851   0.1666667   0.2777778), wk =   0.0438957
        k(   38) = (   0.2770851   0.1666667   0.3888889), wk =   0.0438957
        k(   39) = (   0.2770851   0.1666667  -0.5000000), wk =   0.0219479
        k(   40) = (   0.2770851   0.2777778   0.2777778), wk =   0.0219479
        k(   41) = (   0.2770851   0.2777778   0.3888889), wk =   0.0438957
        k(   42) = (   0.2770851   0.2777778  -0.5000000), wk =   0.0219479
        k(   43) = (   0.2770851   0.3888889   0.3888889), wk =   0.0219479
        k(   44) = (   0.2770851   0.3888889  -0.5000000), wk =   0.0219479
        k(   45) = (   0.2770851  -0.5000000  -0.5000000), wk =   0.0054870
        k(   46) = (   0.3879191   0.0555556   0.0555556), wk =   0.0219479
        k(   47) = (   0.3879191   0.0555556   0.1666667), wk =   0.0438957
        k(   48) = (   0.3879191   0.0555556   0.2777778), wk =   0.0438957
        k(   49) = (   0.3879191   0.0555556   0.3888889), wk =   0.0438957
        k(   50) = (   0.3879191   0.0555556  -0.5000000), wk =   0.0219479
        k(   51) = (   0.3879191   0.1666667   0.1666667), wk =   0.0219479
        k(   52) = (   0.3879191   0.1666667   0.2777778), wk =   0.0438957
        k(   53) = (   0.3879191   0.1666667   0.3888889), wk =   0.0438957
        k(   54) = (   0.3879191   0.1666667  -0.5000000), wk =   0.0219479
        k(   55) = (   0.3879191   0.2777778   0.2777778), wk =   0.0219479
        k(   56) = (   0.3879191   0.2777778   0.3888889), wk =   0.0438957
        k(   57) = (   0.3879191   0.2777778  -0.5000000), wk =   0.0219479
        k(   58) = (   0.3879191   0.3888889   0.3888889), wk =   0.0219479
        k(   59) = (   0.3879191   0.3888889  -0.5000000), wk =   0.0219479
        k(   60) = (   0.3879191  -0.5000000  -0.5000000), wk =   0.0054870
        k(   61) = (  -0.4987531   0.0555556   0.0555556), wk =   0.0109739
        k(   62) = (  -0.4987531   0.0555556   0.1666667), wk =   0.0219479
        k(   63) = (  -0.4987531   0.0555556   0.2777778), wk =   0.0219479
        k(   64) = (  -0.4987531   0.0555556   0.3888889), wk =   0.0219479
        k(   65) = (  -0.4987531   0.0555556  -0.5000000), wk =   0.0109739
        k(   66) = (  -0.4987531   0.1666667   0.1666667), wk =   0.0109739
        k(   67) = (  -0.4987531   0.1666667   0.2777778), wk =   0.0219479
        k(   68) = (  -0.4987531   0.1666667   0.3888889), wk =   0.0219479
        k(   69) = (  -0.4987531   0.1666667  -0.5000000), wk =   0.0109739
        k(   70) = (  -0.4987531   0.2777778   0.2777778), wk =   0.0109739
        k(   71) = (  -0.4987531   0.2777778   0.3888889), wk =   0.0219479
        k(   72) = (  -0.4987531   0.2777778  -0.5000000), wk =   0.0109739
        k(   73) = (  -0.4987531   0.3888889   0.3888889), wk =   0.0109739
        k(   74) = (  -0.4987531   0.3888889  -0.5000000), wk =   0.0109739
        k(   75) = (  -0.4987531  -0.5000000  -0.5000000), wk =   0.0027435

     Dense  grid:   493091 G-vectors     FFT dimensions: ( 100, 100, 100)

     Smooth grid:   264699 G-vectors     FFT dimensions: (  80,  80,  80)

     Estimated max dynamical RAM per process >     892.74 MB

     Estimated total dynamical RAM >      17.44 GB

     Check: negative/imaginary core charge=   -0.000002    0.000000

     Initial potential from superposition of free atoms

     starting charge  575.98776, renormalised to  576.00000
     Starting wfcs are  320 randomized atomic wfcs +   26 random wfcs
     Checking if some PAW data can be deallocated... 

     total cpu time spent up to now is       45.1 secs

     Self-consistent Calculation

     iteration #  1     ecut=    71.00 Ry     beta= 0.10
     Davidson diagonalization with overlap
     ethr =  1.00E-02,  avg # of iterations =  3.1

     Threshold (ethr) on eigenvalues was too large:
     Diagonalizing with lowered threshold

     Davidson diagonalization with overlap
     ethr =  8.44E-05,  avg # of iterations =  3.1

     total cpu time spent up to now is      488.5 secs

     total energy              =  -16385.02177507 Ry
     Harris-Foulkes estimate   =  -16385.09027681 Ry
     estimated scf accuracy    <       0.48045190 Ry

     iteration #  2     ecut=    71.00 Ry     beta= 0.10
     Davidson diagonalization with overlap
     ethr =  8.34E-05,  avg # of iterations =  1.0

     total cpu time spent up to now is      624.6 secs

     total energy              =  -16384.92823621 Ry
     Harris-Foulkes estimate   =  -16385.02959954 Ry
     estimated scf accuracy    <       0.26106597 Ry

     iteration #  3     ecut=    71.00 Ry     beta= 0.10
     Davidson diagonalization with overlap
     ethr =  4.53E-05,  avg # of iterations =  2.1

     total cpu time spent up to now is      814.3 secs

     total energy              =  -16384.96278539 Ry
     Harris-Foulkes estimate   =  -16384.96717280 Ry
     estimated scf accuracy    <       0.06112351 Ry

     iteration #  4     ecut=    71.00 Ry     beta= 0.10
     Davidson diagonalization with overlap
     ethr =  1.06E-05,  avg # of iterations =  1.7

     total cpu time spent up to now is      968.7 secs

     total energy              =  -16384.96258988 Ry
     Harris-Foulkes estimate   =  -16384.96496283 Ry
     estimated scf accuracy    <       0.02188269 Ry

     iteration #  5     ecut=    71.00 Ry     beta= 0.10
     Davidson diagonalization with overlap
     ethr =  3.80E-06,  avg # of iterations =  1.2

     total cpu time spent up to now is     1109.4 secs

     total energy              =  -16384.95778336 Ry
     Harris-Foulkes estimate   =  -16384.96278951 Ry
     estimated scf accuracy    <       0.01438693 Ry

     iteration #  6     ecut=    71.00 Ry     beta= 0.10
     Davidson diagonalization with overlap
     ethr =  2.50E-06,  avg # of iterations =  1.0

     total cpu time spent up to now is     1245.6 secs

     total energy              =  -16384.95880024 Ry
     Harris-Foulkes estimate   =  -16384.95883182 Ry
     estimated scf accuracy    <       0.00024489 Ry

     iteration #  7     ecut=    71.00 Ry     beta= 0.10
     Davidson diagonalization with overlap
     ethr =  4.25E-08,  avg # of iterations =  3.0

     total cpu time spent up to now is     1489.3 secs

     total energy              =  -16384.95887863 Ry
     Harris-Foulkes estimate   =  -16384.95889683 Ry
     estimated scf accuracy    <       0.00023194 Ry

     iteration #  8     ecut=    71.00 Ry     beta= 0.10
     Davidson diagonalization with overlap
     ethr =  4.03E-08,  avg # of iterations =  1.1

     total cpu time spent up to now is     1627.2 secs

     total energy              =  -16384.95888291 Ry
     Harris-Foulkes estimate   =  -16384.95888578 Ry
     estimated scf accuracy    <       0.00005182 Ry

     iteration #  9     ecut=    71.00 Ry     beta= 0.10
     Davidson diagonalization with overlap
     ethr =  9.00E-09,  avg # of iterations =  1.0

     total cpu time spent up to now is     1761.4 secs

     total energy              =  -16384.95888339 Ry
     Harris-Foulkes estimate   =  -16384.95888409 Ry
     estimated scf accuracy    <       0.00003355 Ry

     iteration # 10     ecut=    71.00 Ry     beta= 0.10
     Davidson diagonalization with overlap
     ethr =  5.82E-09,  avg # of iterations =  2.0

     total cpu time spent up to now is     1951.2 secs

     total energy              =  -16384.95889012 Ry
     Harris-Foulkes estimate   =  -16384.95888728 Ry
     estimated scf accuracy    <       0.00000363 Ry

     iteration # 11     ecut=    71.00 Ry     beta= 0.10
     Davidson diagonalization with overlap
     ethr =  6.29E-10,  avg # of iterations =  1.0

     total cpu time spent up to now is     2086.9 secs

     End of self-consistent calculation

          k = 0.0554 0.0556 0.0556 ( 33063 PWs)   bands (ev):

   -64.9273 -64.8987 -64.8984 -64.8984 -64.8932 -64.8929 -64.8929 -64.8829
   -64.8828 -64.8827 -64.8805 -64.8802 -64.8800 -64.8799 -64.8798 -64.8798
   -64.8797 -64.8795 -64.8795 -64.8790 -64.8773 -64.8772 -64.8771 -64.8651
   -64.8644 -64.8644 -64.8642 -64.8641 -64.8640 -64.8639 -64.8638 -64.8634
   -30.8102 -30.8102 -30.8101 -30.8083 -30.7901 -30.7901 -30.7892 -30.7138
   -30.7121 -30.7121 -30.7095 -30.7095 -30.7079 -30.7078 -30.7077 -30.7077
   -30.7018 -30.7000 -30.7000 -30.6963 -30.6963 -30.6951 -30.6950 -30.6948
   -30.6947 -30.6779 -30.6779 -30.6764 -30.6764 -30.6762 -30.6762 -30.6364
   -30.6363 -30.6357 -30.6122 -30.6121 -30.6115 -30.6061 -30.6061 -30.6055
   -30.5969 -30.5969 -30.5967 -30.5967 -30.5961 -30.5961 -30.5820 -30.5819
   -30.5819 -30.5816 -30.5813 -30.5812 -30.5811 -30.5810 -30.5808 -30.5801
   -30.5800 -30.5792 -30.5786 -30.5785 -30.5776 -30.5167 -30.5167 -30.5153
   -30.5152 -30.5152 -30.5150 -30.5043 -30.5042 -30.5031 -30.5031 -30.5030
   -30.5030 -30.5003 -30.5003 -30.4993 -30.4964 -30.4958 -30.4957 -30.4952
   -30.4952 -30.4951 -30.4948 -30.4944 -30.4944 -30.4942 -30.4941 -30.4941
   -30.4937 -30.4927 -30.4882 -30.4881 -30.4872 -30.4426 -30.4403 -30.4402
    12.2481  14.0063  14.0064  14.0065  14.0735  14.0872  14.0872  14.0872
    14.2689  14.2774  14.2775  14.2805  14.2806  14.2806  14.4644  14.4727
    14.4727  15.0107  15.0107  15.0191  15.0192  15.0193  15.0194  15.1638
    15.1722  15.1723  15.3173  15.3178  15.3179  15.3485  15.3587  15.3588
    15.3993  15.3993  15.4006  15.4007  15.4009  15.4009  15.4009  15.4032
    15.4033  15.7397  15.7397  15.7449  15.7449  15.7466  15.7467  15.8451
    15.8534  15.8534  15.8666  15.8666  15.8750  15.8751  15.8762  15.8762
    15.9229  15.9325  15.9325  16.0936  16.0936  16.0995  16.0995  16.1019
    16.1020  16.2020  16.2021  16.2068  16.2069  16.2071  16.2072  16.2073
    16.2107  16.2107  16.3151  16.3151  16.3164  16.3689  16.3813  16.3813
    16.3896  16.4090  16.4090  16.4110  16.4216  16.4228  16.4466  16.4554
    17.2340  17.2465  17.2466  17.3011  17.3011  17.3066  17.3735  17.3735
    17.3742  17.3743  17.3785  17.3785  17.3800  17.3801  17.3841  17.4202
    17.4339  17.4340  17.5290  17.5291  17.5382  17.6496  17.6497  17.6521
    17.7723  17.7724  17.7807  17.8300  17.8301  17.8374  17.9041  17.9042
    17.9064  17.9064  17.9067  17.9067  17.9244  17.9244  17.9254  17.9603
    17.9775  17.9775  17.9779  17.9779  17.9838  17.9843  17.9843  18.0865
    18.0865  18.0929  18.4710  18.4710  18.4814  18.5728  18.5729  18.5817
    18.9555  18.9556  18.9625  19.0807  19.0807  19.0819  19.1030  19.1127
    19.1231  19.1305  19.1305  19.3558  19.3570  19.3570  19.4067  19.4068
    19.4073  19.4074  19.4134  19.4158  19.4159  19.4197  19.4197  20.0849
    20.3897  20.3898  20.3899  20.9026  20.9026  20.9167  21.4105  21.4105
    21.4114  21.4114  21.4279  21.4279  21.9385  21.9386  21.9579  22.5001
    22.5472  22.5472  26.2692  26.2692  26.2696  26.4262  27.4021  27.4022
    27.4238  27.4238  27.4455  27.4456  28.0938  28.0939  28.1142  28.1142
    28.1375  28.1376  29.5092  29.5092  29.5182  29.5182  29.5394  29.5394
    29.6396  29.7055  29.7055  30.6195  30.6729  30.6730  30.6805  30.6806
    30.6966  30.6967

          k = 0.0554 0.0556 0.1667 ( 33065 PWs)   bands (ev):

   -64.9263 -64.9039 -64.8982 -64.8979 -64.8928 -64.8925 -64.8874 -64.8858
   -64.8857 -64.8828 -64.8823 -64.8822 -64.8806 -64.8805 -64.8798 -64.8796
   -64.8793 -64.8790 -64.8772 -64.8768 -64.8767 -64.8748 -64.8747 -64.8651
   -64.8651 -64.8647 -64.8646 -64.8644 -64.8644 -64.8643 -64.8641 -64.8634
   -30.8075 -30.8058 -30.8057 -30.8026 -30.7868 -30.7860 -30.7849 -30.7237
   -30.7186 -30.7184 -30.7156 -30.7146 -30.7141 -30.7131 -30.7130 -30.7126
   -30.7105 -30.7028 -30.7009 -30.6998 -30.6988 -30.6950 -30.6936 -30.6917
   -30.6898 -30.6806 -30.6794 -30.6745 -30.6729 -30.6660 -30.6584 -30.6583
   -30.6412 -30.6404 -30.6274 -30.6265 -30.6123 -30.6118 -30.6116 -30.6108
   -30.6001 -30.5863 -30.5860 -30.5840 -30.5830 -30.5814 -30.5813 -30.5809
   -30.5806 -30.5793 -30.5791 -30.5771 -30.5764 -30.5760 -30.5758 -30.5750
   -30.5749 -30.5744 -30.5721 -30.5670 -30.5666 -30.5289 -30.5273 -30.5181
   -30.5180 -30.5136 -30.5123 -30.5078 -30.5067 -30.5057 -30.5057 -30.5045
   -30.5035 -30.5015 -30.5007 -30.5002 -30.4997 -30.4995 -30.4988 -30.4959
   -30.4958 -30.4953 -30.4952 -30.4949 -30.4943 -30.4926 -30.4924 -30.4921
   -30.4916 -30.4911 -30.4883 -30.4836 -30.4828 -30.4490 -30.4424 -30.4417
    12.3215  13.9783  14.0408  14.0527  14.0528  14.1013  14.1286  14.1287
    14.1420  14.3084  14.3204  14.3225  14.3227  14.3286  14.5165  14.5246
    14.5421  14.9331  14.9335  14.9940  15.0459  15.0524  15.0539  15.0606
    15.0869  15.1679  15.1680  15.1902  15.1980  15.2075  15.2127  15.2133
    15.3594  15.3597  15.3707  15.3802  15.3882  15.3912  15.4233  15.4290
    15.4712  15.4732  15.5482  15.7308  15.7331  15.7426  15.7479  15.7878
    15.7935  15.7973  15.8033  15.8555  15.8646  15.9446  15.9505  15.9664
    16.0113  16.0138  16.0590  16.0600  16.0643  16.0682  16.0706  16.0982
    16.1044  16.1465  16.1498  16.1752  16.1777  16.3433  16.3505  16.3569
    16.3572  16.3674  16.3764  16.3778  16.3978  16.4009  16.4230  16.4233
    16.4329  16.4365  16.4503  16.4535  16.4661  16.4801  16.4860  16.4898
    17.0459  17.0526  17.1603  17.1709  17.1812  17.1893  17.2401  17.2403
    17.2581  17.3024  17.3263  17.3315  17.4462  17.4560  17.4607  17.4703
    17.4729  17.5088  17.5116  17.5181  17.5239  17.7281  17.7347  17.7527
    17.7554  17.7617  17.8225  17.8227  17.9007  17.9028  17.9100  17.9109
    17.9123  17.9161  17.9353  17.9844  17.9886  18.0023  18.0030  18.0261
    18.1189  18.1204  18.1258  18.1263  18.1617  18.1668  18.2168  18.2341
    18.2395  18.2699  18.3725  18.5166  18.5256  18.6436  18.6461  18.6525
    18.6755  18.6928  18.6994  18.9081  19.0199  19.0203  19.0435  19.0573
    19.0980  19.1029  19.1058  19.1238  19.1337  19.2876  19.3365  19.3367
    19.3477  19.3485  19.3541  19.4044  19.4061  19.4078  19.4099  20.0739
    20.4403  20.4517  20.5582  20.5583  20.7887  20.8741  20.9219  20.9369
    21.3881  21.3890  21.9200  21.9783  21.9968  22.1845  22.5176  22.5386
    22.7923  22.8378  26.2683  26.4281  26.4291  26.6860  26.7146  26.7233
    26.7290  26.7348  27.3064  27.3272  27.5348  27.5568  28.2178  28.2391
    28.7329  28.7743  29.5505  29.5743  29.6263  29.6912  29.6961  29.8007
    29.8473  29.8857  29.9232  30.0943  30.1303  30.1601  30.2376  30.2397
    30.6414  30.7519

          k = 0.0554 0.0556 0.2778 ( 33061 PWs)   bands (ev):

   -64.9244 -64.9091 -64.8971 -64.8969 -64.8919 -64.8916 -64.8886 -64.8885
   -64.8847 -64.8846 -64.8827 -64.8822 -64.8811 -64.8805 -64.8798 -64.8796
   -64.8790 -64.8788 -64.8773 -64.8740 -64.8739 -64.8725 -64.8723 -64.8669
   -64.8657 -64.8655 -64.8655 -64.8652 -64.8650 -64.8643 -64.8641 -64.8635
   -30.8005 -30.7974 -30.7974 -30.7928 -30.7806 -30.7799 -30.7752 -30.7408
   -30.7351 -30.7350 -30.7301 -30.7296 -30.7269 -30.7170 -30.7158 -30.7148
   -30.7137 -30.7048 -30.7043 -30.6956 -30.6947 -30.6940 -30.6939 -30.6921
   -30.6812 -30.6801 -30.6796 -30.6777 -30.6686 -30.6670 -30.6498 -30.6487
   -30.6419 -30.6411 -30.6411 -30.6408 -30.6259 -30.6248 -30.6232 -30.6222
   -30.5902 -30.5896 -30.5818 -30.5812 -30.5802 -30.5795 -30.5774 -30.5751
   -30.5723 -30.5696 -30.5695 -30.5668 -30.5665 -30.5663 -30.5658 -30.5648
   -30.5647 -30.5568 -30.5529 -30.5525 -30.5471 -30.5406 -30.5387 -30.5234
   -30.5233 -30.5172 -30.5161 -30.5155 -30.5146 -30.5118 -30.5109 -30.5109
   -30.5085 -30.5076 -30.5073 -30.5071 -30.5013 -30.4998 -30.4969 -30.4959
   -30.4953 -30.4952 -30.4950 -30.4945 -30.4944 -30.4920 -30.4917 -30.4914
   -30.4887 -30.4816 -30.4809 -30.4805 -30.4796 -30.4602 -30.4465 -30.4455
    12.4666  13.6282  14.1070  14.1430  14.1430  14.1706  14.2109  14.2110
    14.2371  14.3634  14.4061  14.4068  14.4200  14.4276  14.5103  14.6175
    14.6250  14.7856  14.7861  14.8285  14.8403  14.9180  14.9180  14.9696
    15.0750  15.0771  15.1120  15.1185  15.1342  15.1416  15.1436  15.1481
    15.2424  15.2490  15.2593  15.2610  15.3707  15.3739  15.4141  15.4222
    15.5350  15.5381  15.6746  15.6771  15.7103  15.7137  15.7261  15.7292
    15.7347  15.7451  15.7505  15.7757  15.7769  15.8861  15.8900  15.9586
    15.9594  16.0136  16.0156  16.0177  16.0872  16.0907  16.1051  16.1118
    16.1127  16.1173  16.1855  16.1942  16.1958  16.2864  16.3160  16.3225
    16.3279  16.3758  16.3762  16.3862  16.4752  16.5047  16.5169  16.5260
    16.5295  16.5498  16.6904  16.6938  16.7092  16.7590  16.8422  16.8463
    16.8977  16.9087  16.9162  16.9215  16.9884  17.0674  17.0738  17.0740
    17.0913  17.0980  17.4003  17.4144  17.4182  17.5120  17.5160  17.5783
    17.5815  17.5946  17.5963  17.6527  17.6545  17.6828  17.6876  17.7465
    17.7513  17.8589  17.8884  17.8898  17.8901  17.8933  17.9129  17.9149
    17.9206  17.9208  18.0150  18.1180  18.1690  18.1699  18.1847  18.1849
    18.1945  18.2776  18.2801  18.2826  18.3233  18.3239  18.3253  18.3278
    18.3720  18.3746  18.3991  18.4145  18.4179  18.4874  18.6621  18.6673
    18.7215  18.7334  18.7387  18.7769  18.8766  18.8772  18.9263  18.9263
    18.9331  19.0069  19.0138  19.0196  19.0295  19.1536  19.2047  19.2052
    19.2136  19.2149  19.2402  19.4034  19.4054  19.4081  19.4094  20.0140
    20.0227  20.2445  20.4624  20.4750  20.7797  20.7802  20.8154  21.1573
    21.3404  21.3413  21.5738  21.8768  22.6134  22.6331  23.1584  23.1804
    23.2811  23.3250  25.8320  25.8520  25.9620  26.0047  26.3902  26.4118
    26.4398  26.7436  26.7451  27.1485  27.7819  27.8060  28.4554  28.4785
    28.8015  29.2360  29.2516  29.3453  29.3474  29.5656  29.5992  29.6004
    29.6628  29.7240  29.7359  29.9044  29.9594  30.0121  30.1280  30.1444
    30.1744  30.1777

          k = 0.0554 0.0556 0.3889 ( 33070 PWs)   bands (ev):

   -64.9217 -64.9139 -64.8956 -64.8954 -64.8913 -64.8911 -64.8906 -64.8904
   -64.8869 -64.8867 -64.8825 -64.8814 -64.8805 -64.8798 -64.8796 -64.8790
   -64.8785 -64.8775 -64.8775 -64.8715 -64.8713 -64.8703 -64.8701 -64.8696
   -64.8672 -64.8670 -64.8667 -64.8665 -64.8650 -64.8644 -64.8641 -64.8635
   -30.7897 -30.7855 -30.7854 -30.7796 -30.7715 -30.7708 -30.7609 -30.7587
   -30.7532 -30.7531 -30.7458 -30.7454 -30.7454 -30.7196 -30.7168 -30.7160
   -30.7118 -30.7111 -30.7099 -30.7098 -30.7005 -30.7001 -30.6837 -30.6819
   -30.6759 -30.6747 -30.6659 -30.6641 -30.6606 -30.6606 -30.6592 -30.6591
   -30.6551 -30.6540 -30.6390 -30.6377 -30.6368 -30.6354 -30.6252 -30.6251
   -30.5994 -30.5989 -30.5810 -30.5802 -30.5792 -30.5778 -30.5689 -30.5663
   -30.5618 -30.5542 -30.5540 -30.5533 -30.5531 -30.5528 -30.5525 -30.5515
   -30.5514 -30.5513 -30.5492 -30.5402 -30.5398 -30.5395 -30.5312 -30.5312
   -30.5281 -30.5279 -30.5273 -30.5272 -30.5257 -30.5203 -30.5192 -30.5190
   -30.5185 -30.5184 -30.5113 -30.5027 -30.5022 -30.4994 -30.4978 -30.4959
   -30.4953 -30.4950 -30.4944 -30.4938 -30.4935 -30.4908 -30.4894 -30.4892
   -30.4891 -30.4819 -30.4815 -30.4760 -30.4698 -30.4688 -30.4525 -30.4515
    12.6793  13.2757  14.1994  14.2720  14.2722  14.2809  14.3332  14.3333
    14.3706  14.4207  14.4448  14.5311  14.5325  14.5604  14.5670  14.6092
    14.6096  14.6186  14.6797  14.6900  14.6901  14.7420  14.7599  14.7666
    14.9012  14.9044  14.9079  14.9117  15.1069  15.1106  15.1984  15.2024
    15.2519  15.2582  15.3197  15.3245  15.3413  15.3437  15.4765  15.4824
    15.5364  15.5377  15.5434  15.5436  15.6417  15.6418  15.6807  15.6828
    15.6977  15.7030  15.7381  15.7428  15.7835  15.7918  15.9119  15.9276
    15.9295  15.9611  15.9624  16.0746  16.1110  16.1117  16.1184  16.1193
    16.1483  16.1529  16.2123  16.2180  16.2531  16.2668  16.2752  16.2954
    16.2970  16.3523  16.4245  16.4254  16.5628  16.6037  16.6126  16.6255
    16.6323  16.6447  16.6628  16.6654  16.6711  16.6746  16.8242  16.8666
    16.8739  16.9048  16.9210  16.9215  17.1044  17.1064  17.1080  17.1223
    17.3415  17.3535  17.4813  17.4835  17.4917  17.5066  17.5087  17.6757
    17.6768  17.7114  17.7126  17.7199  17.7221  17.7359  17.7391  17.7503
    17.7732  17.7745  17.8581  17.8595  17.8922  17.8993  17.9009  17.9032
    17.9036  17.9143  17.9172  17.9315  17.9332  18.0156  18.0617  18.1310
    18.1318  18.1961  18.2723  18.2852  18.3719  18.3727  18.4059  18.4454
    18.5276  18.5299  18.5306  18.5885  18.5958  18.5962  18.6173  18.6179
    18.7696  18.7697  18.7850  18.8762  18.8837  18.8880  18.9143  18.9145
    18.9229  18.9237  18.9636  19.0266  19.0284  19.0335  19.0343  19.1008
    19.2187  19.2227  19.3588  19.4034  19.4047  19.4083  19.4092  19.6176
    19.6234  20.0255  20.0354  20.4338  20.7239  20.8420  20.9829  20.9838
    21.2615  21.2625  21.4515  21.7965  23.3217  23.3421  23.8678  23.8812
    23.8903  23.9242  24.9452  24.9655  25.2435  25.2861  25.4927  25.5148
    26.7927  27.2086  27.2105  27.6911  27.9998  28.1320  28.1582  28.5289
    28.5311  28.7895  28.8148  29.0473  29.0785  29.0827  29.4361  29.4665
    29.5624  29.6203  29.6576  29.6882  30.1008  30.1200  30.1441  30.1547
    30.3279  30.3759

          k = 0.0554 0.0556-0.5000 ( 33094 PWs)   bands (ev):

   -64.9185 -64.9177 -64.8940 -64.8938 -64.8932 -64.8930 -64.8893 -64.8891
   -64.8885 -64.8883 -64.8824 -64.8816 -64.8805 -64.8798 -64.8796 -64.8790
   -64.8783 -64.8776 -64.8736 -64.8728 -64.8695 -64.8693 -64.8688 -64.8687
   -64.8686 -64.8685 -64.8680 -64.8678 -64.8651 -64.8644 -64.8641 -64.8635
   -30.7757 -30.7753 -30.7710 -30.7706 -30.7702 -30.7698 -30.7636 -30.7632
   -30.7603 -30.7596 -30.7595 -30.7588 -30.7424 -30.7417 -30.7145 -30.7142
   -30.7141 -30.7137 -30.7067 -30.7065 -30.7065 -30.7063 -30.6724 -30.6720
   -30.6709 -30.6705 -30.6670 -30.6664 -30.6658 -30.6651 -30.6515 -30.6512
   -30.6510 -30.6503 -30.6500 -30.6496 -30.6496 -30.6489 -30.6116 -30.6113
   -30.6109 -30.6106 -30.5810 -30.5804 -30.5789 -30.5782 -30.5613 -30.5605
   -30.5588 -30.5580 -30.5429 -30.5426 -30.5417 -30.5416 -30.5413 -30.5409
   -30.5409 -30.5409 -30.5408 -30.5405 -30.5404 -30.5401 -30.5398 -30.5394
   -30.5347 -30.5344 -30.5339 -30.5336 -30.5286 -30.5285 -30.5278 -30.5277
   -30.5247 -30.5244 -30.4990 -30.4983 -30.4977 -30.4976 -30.4973 -30.4972
   -30.4965 -30.4959 -30.4959 -30.4952 -30.4950 -30.4944 -30.4904 -30.4896
   -30.4848 -30.4847 -30.4845 -30.4844 -30.4608 -30.4600 -30.4597 -30.4591
    12.9524  12.9534  14.3087  14.3094  14.4308  14.4309  14.4311  14.4317
    14.4319  14.4325  14.4933  14.4934  14.4942  14.4942  14.5401  14.5402
    14.5505  14.5513  14.6961  14.6969  14.6984  14.6992  14.7286  14.7294
    14.7340  14.7348  14.9300  14.9307  14.9354  14.9362  15.2840  15.2843
    15.2844  15.2847  15.3969  15.3977  15.4011  15.4018  15.4205  15.4211
    15.4231  15.4237  15.5540  15.5546  15.5572  15.5578  15.7093  15.7096
    15.7118  15.7120  15.7152  15.7154  15.7228  15.7229  15.9290  15.9291
    15.9297  15.9298  16.0730  16.0737  16.1133  16.1139  16.1212  16.1218
    16.1446  16.1452  16.2086  16.2092  16.2147  16.2153  16.3065  16.3070
    16.4600  16.4602  16.4624  16.4625  16.5208  16.5209  16.5224  16.5226
    16.6803  16.6805  16.7296  16.7298  16.7364  16.7367  16.7513  16.7521
    16.7657  16.7660  16.7689  16.7697  17.4991  17.4993  17.5005  17.5008
    17.5008  17.5009  17.5014  17.5015  17.5033  17.5036  17.5471  17.5474
    17.6212  17.6220  17.7184  17.7190  17.7195  17.7202  17.8004  17.8011
    17.8016  17.8022  17.8037  17.8042  17.8164  17.8169  17.8175  17.8178
    17.8181  17.8185  17.8553  17.8559  17.8566  17.8572  18.0300  18.0302
    18.0307  18.0309  18.1223  18.1231  18.5794  18.5800  18.5802  18.5808
    18.6062  18.6064  18.7181  18.7183  18.7214  18.7216  18.7249  18.7256
    18.7523  18.7525  18.7643  18.7645  18.8177  18.8183  18.8213  18.8219
    18.8264  18.8269  18.8291  18.8296  18.9782  18.9785  19.2507  19.2508
    19.2534  19.2535  19.4036  19.4043  19.4083  19.4091  19.6091  19.6092
    19.6162  19.6164  20.0809  20.0815  20.5964  20.5972  21.1439  21.1447
    21.1449  21.1457  21.6607  21.6614  24.1017  24.1021  24.1223  24.1226
    24.5440  24.5446  24.5865  24.5871  24.6474  24.6477  24.6699  24.6702
    27.3201  27.3203  27.8097  27.8099  27.8119  27.8121  28.3400  28.3401
    28.5612  28.5620  28.5898  28.5906  29.1978  29.1986  29.2257  29.2265
    29.5111  29.5118  29.5603  29.5610  30.2727  30.2735  30.3259  30.3268
    30.5576  30.5584

          k = 0.0554 0.1667 0.1667 ( 33089 PWs)   bands (ev):

   -64.9254 -64.9033 -64.9033 -64.8976 -64.8923 -64.8891 -64.8871 -64.8871
   -64.8857 -64.8856 -64.8823 -64.8822 -64.8816 -64.8802 -64.8789 -64.8789
   -64.8787 -64.8786 -64.8768 -64.8767 -64.8749 -64.8748 -64.8728 -64.8655
   -64.8651 -64.8650 -64.8649 -64.8648 -64.8647 -64.8646 -64.8645 -64.8639
   -30.8047 -30.8047 -30.8000 -30.7953 -30.7829 -30.7822 -30.7822 -30.7265
   -30.7265 -30.7240 -30.7240 -30.7148 -30.7147 -30.7143 -30.7114 -30.7114
   -30.7109 -30.7109 -30.7102 -30.7101 -30.7032 -30.7032 -30.6999 -30.6999
   -30.6784 -30.6717 -30.6716 -30.6694 -30.6693 -30.6639 -30.6639 -30.6555
   -30.6554 -30.6454 -30.6419 -30.6180 -30.6140 -30.6140 -30.6003 -30.6003
   -30.5952 -30.5952 -30.5889 -30.5836 -30.5836 -30.5819 -30.5819 -30.5772
   -30.5772 -30.5765 -30.5764 -30.5745 -30.5741 -30.5740 -30.5722 -30.5722
   -30.5701 -30.5701 -30.5584 -30.5583 -30.5523 -30.5303 -30.5302 -30.5263
   -30.5263 -30.5157 -30.5139 -30.5120 -30.5075 -30.5074 -30.5065 -30.5064
   -30.5042 -30.5042 -30.5026 -30.5026 -30.5022 -30.5019 -30.4993 -30.4982
   -30.4982 -30.4958 -30.4938 -30.4937 -30.4930 -30.4926 -30.4926 -30.4926
   -30.4882 -30.4882 -30.4840 -30.4840 -30.4763 -30.4570 -30.4442 -30.4414
    12.3940  14.0307  14.0308  14.0873  14.0874  14.0943  14.1140  14.1551
    14.1952  14.1952  14.3498  14.3498  14.3613  14.3680  14.5550  14.5944
    14.5944  14.9552  14.9553  14.9755  14.9756  14.9992  14.9993  15.0235
    15.0236  15.0436  15.0870  15.0870  15.1127  15.1128  15.2281  15.2399
    15.2400  15.2481  15.2482  15.2970  15.4028  15.4349  15.4349  15.4472
    15.4473  15.4734  15.4734  15.5651  15.5652  15.7062  15.7062  15.7851
    15.7851  15.7953  15.8960  15.8961  15.9127  15.9128  15.9705  15.9706
    15.9819  16.0416  16.0417  16.0519  16.0520  16.1049  16.1049  16.1979
    16.2480  16.2481  16.2997  16.2998  16.3034  16.3034  16.3383  16.3784
    16.3984  16.4063  16.4064  16.4115  16.4115  16.4343  16.4344  16.4588
    16.4738  16.4738  16.4774  16.4907  16.4945  16.4945  16.4959  16.4996
    16.9456  17.0088  17.0089  17.0541  17.1660  17.1660  17.2796  17.2950
    17.2950  17.2974  17.2975  17.3527  17.3528  17.3756  17.3757  17.4398
    17.4402  17.4403  17.5213  17.5966  17.6022  17.6023  17.6236  17.6236
    17.6510  17.8965  17.8966  17.9131  17.9131  17.9315  17.9671  17.9897
    17.9897  18.0040  18.0041  18.0051  18.0165  18.0166  18.0943  18.0944
    18.1268  18.1268  18.3026  18.3026  18.3469  18.3541  18.3542  18.3555
    18.3956  18.3956  18.4005  18.4006  18.4636  18.4636  18.4988  18.5406
    18.6620  18.7697  18.8176  18.8176  18.9458  18.9535  18.9535  18.9699
    19.0612  19.1002  19.1002  19.1178  19.1178  19.1199  19.2892  19.2892
    19.3364  19.3364  19.3371  19.3371  19.3461  19.3461  19.3736  19.7937
    20.0188  20.4088  20.4089  20.4567  20.8982  20.8982  21.0837  21.0837
    21.4863  21.4863  21.9660  21.9660  22.4738  22.4738  22.5058  22.5059
    23.0546  23.1234  26.1093  26.1094  26.2660  26.2660  26.7312  26.8032
    26.8032  26.8215  26.8216  27.1304  27.4356  27.4356  27.8939  27.8941
    28.8593  28.8594  29.1762  29.1762  29.5340  29.6092  29.7132  29.7132
    29.7560  29.7560  30.0084  30.0084  30.1497  30.1497  30.5279  30.5279
    30.7686  30.8105

          k = 0.0554 0.1667 0.2778 ( 33065 PWs)   bands (ev):

   -64.9235 -64.9084 -64.9021 -64.8966 -64.8924 -64.8915 -64.8884 -64.8864
   -64.8853 -64.8845 -64.8825 -64.8822 -64.8820 -64.8807 -64.8806 -64.8784
   -64.8779 -64.8769 -64.8756 -64.8751 -64.8741 -64.8726 -64.8709 -64.8669
   -64.8659 -64.8659 -64.8657 -64.8655 -64.8653 -64.8648 -64.8646 -64.8639
   -30.7994 -30.7981 -30.7905 -30.7843 -30.7768 -30.7765 -30.7728 -30.7438
   -30.7403 -30.7304 -30.7269 -30.7268 -30.7267 -30.7266 -30.7177 -30.7171
   -30.7161 -30.7115 -30.7109 -30.7088 -30.7062 -30.7056 -30.7012 -30.6959
   -30.6872 -30.6754 -30.6720 -30.6666 -30.6631 -30.6616 -30.6564 -30.6544
   -30.6499 -30.6479 -30.6384 -30.6291 -30.6271 -30.6140 -30.6088 -30.5972
   -30.5963 -30.5942 -30.5879 -30.5828 -30.5802 -30.5776 -30.5774 -30.5768
   -30.5733 -30.5729 -30.5727 -30.5677 -30.5637 -30.5622 -30.5615 -30.5589
   -30.5576 -30.5558 -30.5452 -30.5446 -30.5420 -30.5387 -30.5382 -30.5357
   -30.5220 -30.5198 -30.5196 -30.5183 -30.5165 -30.5155 -30.5151 -30.5150
   -30.5094 -30.5068 -30.5067 -30.5043 -30.5038 -30.5037 -30.5004 -30.5000
   -30.4987 -30.4969 -30.4964 -30.4958 -30.4930 -30.4924 -30.4907 -30.4847
   -30.4824 -30.4823 -30.4821 -30.4762 -30.4726 -30.4694 -30.4484 -30.4438
    12.5372  13.6840  14.1325  14.1540  14.1671  14.1757  14.1781  14.2215
    14.2870  14.2994  14.4040  14.4326  14.4385  14.4578  14.5618  14.6272
    14.6960  14.7688  14.7958  14.8263  14.8538  14.8613  14.8683  14.8995
    14.9938  15.0038  15.0268  15.0363  15.0588  15.0827  15.1510  15.1604
    15.1674  15.1920  15.2177  15.2707  15.3052  15.3314  15.3612  15.4573
    15.4673  15.4886  15.5250  15.5974  15.6320  15.6485  15.6574  15.7470
    15.7532  15.7639  15.7752  15.7935  15.8387  15.9102  15.9169  15.9617
    15.9622  15.9728  16.0574  16.1105  16.1523  16.1575  16.2046  16.2254
    16.2352  16.2429  16.2498  16.2678  16.3138  16.3176  16.3350  16.3639
    16.3880  16.3999  16.4596  16.5043  16.5220  16.5348  16.5517  16.5529
    16.5559  16.5760  16.5833  16.6021  16.6161  16.7189  16.7942  16.8358
    16.8518  16.8558  16.8803  16.9703  16.9952  17.0974  17.1057  17.1189
    17.1880  17.2045  17.2195  17.2945  17.3024  17.3730  17.3864  17.4824
    17.5010  17.5241  17.5248  17.5844  17.6239  17.7075  17.7590  17.7641
    17.7810  17.8629  17.8653  17.8807  17.9113  17.9613  17.9929  17.9964
    18.0306  18.0710  18.0738  18.1206  18.1241  18.1358  18.1369  18.1481
    18.1609  18.1883  18.2567  18.2946  18.3186  18.3543  18.3873  18.4472
    18.4566  18.4882  18.4914  18.4937  18.4942  18.5187  18.5239  18.6120
    18.6170  18.6435  18.7316  18.8204  18.8453  18.8684  18.9454  18.9574
    19.0313  19.0667  19.0755  19.0806  19.1648  19.1796  19.1805  19.1839
    19.2055  19.2067  19.2418  19.3367  19.3375  19.3427  19.3528  19.6277
    19.8249  19.9820  20.3456  20.4393  20.4830  20.8504  20.9975  21.3717
    21.5694  21.8671  21.9358  22.1093  22.4715  22.6144  22.9505  23.1560
    23.5078  23.7626  25.2759  25.4624  25.9010  26.1077  26.2689  26.4078
    26.4390  26.9362  27.1144  27.1171  27.1610  27.6366  27.6474  28.2871
    28.4215  28.6795  28.8163  28.9693  29.0905  29.2152  29.4178  29.5699
    29.7535  29.8495  29.9261  30.1273  30.1681  30.3647  30.4658  30.4940
    30.7043  30.8427

          k = 0.0554 0.1667 0.3889 ( 33083 PWs)   bands (ev):

   -64.9208 -64.9131 -64.9004 -64.8954 -64.8952 -64.8909 -64.8903 -64.8867
   -64.8854 -64.8849 -64.8833 -64.8824 -64.8820 -64.8810 -64.8780 -64.8773
   -64.8771 -64.8770 -64.8756 -64.8726 -64.8715 -64.8705 -64.8696 -64.8692
   -64.8676 -64.8673 -64.8669 -64.8663 -64.8655 -64.8648 -64.8646 -64.8639
   -30.7901 -30.7875 -30.7776 -30.7700 -30.7683 -30.7679 -30.7614 -30.7593
   -30.7576 -30.7448 -30.7445 -30.7425 -30.7346 -30.7266 -30.7247 -30.7206
   -30.7202 -30.7200 -30.7186 -30.7149 -30.7058 -30.7009 -30.6993 -30.6901
   -30.6832 -30.6790 -30.6731 -30.6692 -30.6657 -30.6592 -30.6509 -30.6466
   -30.6430 -30.6422 -30.6392 -30.6329 -30.6271 -30.6227 -30.6214 -30.6122
   -30.6073 -30.5970 -30.5778 -30.5770 -30.5729 -30.5725 -30.5720 -30.5710
   -30.5668 -30.5664 -30.5636 -30.5560 -30.5529 -30.5518 -30.5516 -30.5506
   -30.5492 -30.5467 -30.5438 -30.5417 -30.5339 -30.5333 -30.5298 -30.5298
   -30.5291 -30.5289 -30.5288 -30.5272 -30.5269 -30.5268 -30.5262 -30.5165
   -30.5137 -30.5137 -30.5069 -30.5059 -30.5056 -30.5048 -30.5037 -30.5032
   -30.5024 -30.5012 -30.4950 -30.4945 -30.4934 -30.4906 -30.4888 -30.4859
   -30.4858 -30.4828 -30.4770 -30.4716 -30.4715 -30.4653 -30.4545 -30.4487
    12.7472  13.3357  14.2473  14.2604  14.2773  14.2937  14.3079  14.3273
    14.4163  14.4391  14.4708  14.4841  14.5435  14.5562  14.5637  14.5899
    14.6156  14.6478  14.6527  14.6528  14.7152  14.7237  14.7783  14.7862
    14.8100  14.8401  14.9217  14.9403  14.9628  15.0419  15.1514  15.1718
    15.1794  15.1965  15.2300  15.2834  15.2952  15.4182  15.4227  15.4485
    15.4791  15.4892  15.5596  15.5641  15.5882  15.5944  15.5946  15.6023
    15.6411  15.6805  15.7381  15.7689  15.7869  15.8365  15.9195  15.9387
    15.9751  16.0244  16.1255  16.1394  16.1715  16.1873  16.2029  16.2085
    16.2100  16.2125  16.2561  16.2869  16.3038  16.3147  16.3236  16.3396
    16.3896  16.4254  16.4348  16.5726  16.5767  16.6395  16.6414  16.6417
    16.6460  16.6466  16.6872  16.7005  16.7235  16.7908  16.7989  16.8107
    16.8735  16.8919  16.9205  16.9800  17.0161  17.0389  17.0819  17.0993
    17.2666  17.2726  17.2952  17.3101  17.3160  17.3491  17.4413  17.5365
    17.5388  17.5552  17.6129  17.6613  17.7142  17.7232  17.7344  17.7380
    17.7601  17.7652  17.8098  17.8415  17.8830  17.9071  17.9120  17.9185
    17.9708  17.9773  18.0270  18.0484  18.0835  18.1328  18.1602  18.1773
    18.1973  18.1994  18.2015  18.3427  18.3605  18.3622  18.3929  18.3978
    18.5032  18.5442  18.5878  18.6256  18.6579  18.6816  18.6841  18.6848
    18.6940  18.6989  18.7226  18.7820  18.7880  18.8836  18.8908  18.9110
    18.9357  18.9861  18.9888  19.0281  19.0345  19.0345  19.0351  19.1197
    19.1949  19.2722  19.3375  19.3380  19.3405  19.3437  19.5857  19.6122
    19.7318  19.9728  20.0037  20.2501  20.5235  20.5765  20.7781  21.1495
    21.6064  21.8765  21.9616  22.3916  22.8091  23.3384  23.5271  23.8764
    24.0785  24.4125  24.4647  24.8060  24.9960  25.4020  25.5212  26.0674
    26.4718  26.7958  27.4028  27.4593  27.5106  27.7073  27.9494  28.0115
    28.2104  28.2338  28.4203  28.7484  28.9055  29.1031  29.4116  29.4871
    29.6719  29.8072  29.8158  29.9437  30.0868  30.2374  30.2394  30.3534
    30.4050  30.6385

          k = 0.0554 0.1667-0.5000 ( 33094 PWs)   bands (ev):

   -64.9177 -64.9169 -64.8985 -64.8977 -64.8936 -64.8928 -64.8890 -64.8882
   -64.8845 -64.8844 -64.8838 -64.8837 -64.8819 -64.8811 -64.8779 -64.8771
   -64.8766 -64.8759 -64.8734 -64.8727 -64.8703 -64.8696 -64.8695 -64.8689
   -64.8689 -64.8682 -64.8680 -64.8672 -64.8655 -64.8648 -64.8646 -64.8639
   -30.7774 -30.7771 -30.7740 -30.7737 -30.7621 -30.7617 -30.7579 -30.7572
   -30.7567 -30.7559 -30.7532 -30.7528 -30.7419 -30.7412 -30.7239 -30.7238
   -30.7215 -30.7211 -30.7207 -30.7206 -30.7008 -30.7007 -30.6916 -30.6912
   -30.6786 -30.6781 -30.6781 -30.6777 -30.6582 -30.6579 -30.6503 -30.6499
   -30.6397 -30.6391 -30.6330 -30.6322 -30.6295 -30.6292 -30.6194 -30.6190
   -30.6091 -30.6084 -30.5778 -30.5772 -30.5721 -30.5717 -30.5631 -30.5623
   -30.5592 -30.5585 -30.5545 -30.5538 -30.5525 -30.5523 -30.5454 -30.5451
   -30.5430 -30.5425 -30.5401 -30.5399 -30.5397 -30.5393 -30.5390 -30.5387
   -30.5363 -30.5355 -30.5266 -30.5263 -30.5230 -30.5223 -30.5162 -30.5159
   -30.5156 -30.5148 -30.5114 -30.5110 -30.5064 -30.5060 -30.5045 -30.5037
   -30.5027 -30.5020 -30.4986 -30.4982 -30.4946 -30.4938 -30.4875 -30.4868
   -30.4860 -30.4857 -30.4732 -30.4730 -30.4626 -30.4618 -30.4562 -30.4558
    13.0167  13.0176  14.3575  14.3583  14.3931  14.3932  14.4427  14.4434
    14.4549  14.4557  14.4682  14.4690  14.4716  14.4716  14.5810  14.5810
    14.5881  14.5889  14.6109  14.6110  14.6636  14.6642  14.7193  14.7201
    14.7599  14.7605  14.8322  14.8326  15.0137  15.0143  15.0942  15.0943
    15.2889  15.2891  15.2925  15.2930  15.3296  15.3304  15.4284  15.4292
    15.5059  15.5060  15.5291  15.5298  15.5799  15.5802  15.6041  15.6044
    15.6619  15.6620  15.6902  15.6904  15.6908  15.6909  16.0527  16.0532
    16.0708  16.0713  16.0758  16.0765  16.0960  16.0965  16.1511  16.1512
    16.2472  16.2478  16.2648  16.2652  16.3636  16.3642  16.3955  16.3961
    16.4573  16.4574  16.5053  16.5054  16.5141  16.5143  16.6305  16.6306
    16.6802  16.6804  16.7505  16.7507  16.7518  16.7525  16.7687  16.7694
    16.8196  16.8199  16.8418  16.8421  17.3033  17.3038  17.3137  17.3142
    17.3589  17.3591  17.3686  17.3688  17.3950  17.3953  17.4452  17.4454
    17.4943  17.4949  17.6416  17.6423  17.6455  17.6461  17.7181  17.7185
    17.7249  17.7255  17.7540  17.7543  17.7690  17.7696  17.8371  17.8378
    17.9479  17.9486  17.9888  17.9894  18.0579  18.0586  18.1163  18.1171
    18.2517  18.2524  18.3012  18.3019  18.3770  18.3775  18.5416  18.5423
    18.5804  18.5805  18.5997  18.6003  18.7286  18.7289  18.7548  18.7548
    18.8164  18.8170  18.8451  18.8456  18.8519  18.8520  18.8572  18.8574
    18.8662  18.8667  18.8686  18.8691  18.9535  18.9537  19.0031  19.0033
    19.2185  19.2187  19.3384  19.3391  19.3394  19.3400  19.5880  19.5881
    20.0613  20.0615  20.1233  20.1240  20.4149  20.4155  20.6833  20.6840
    21.7719  21.7727  22.2323  22.2330  23.5810  23.5814  24.1352  24.1356
    24.1544  24.1550  24.6672  24.6674  24.7190  24.7196  25.2335  25.2338
    26.8915  26.8917  27.3279  27.3281  27.7789  27.7796  27.9089  27.9097
    28.3216  28.3224  28.3588  28.3589  28.9149  28.9150  29.2877  29.2880
    29.8016  29.8024  29.9798  29.9804  30.0062  30.0067  30.0676  30.0684
    30.9337  30.9352

          k = 0.0554 0.2778 0.2778 ( 33072 PWs)   bands (ev):

   -64.9217 -64.9071 -64.9070 -64.8961 -64.8957 -64.8907 -64.8879 -64.8879
   -64.8843 -64.8842 -64.8839 -64.8815 -64.8814 -64.8814 -64.8771 -64.8771
   -64.8769 -64.8768 -64.8744 -64.8743 -64.8731 -64.8730 -64.8695 -64.8671
   -64.8669 -64.8667 -64.8666 -64.8661 -64.8660 -64.8653 -64.8651 -64.8643
   -30.7943 -30.7943 -30.7800 -30.7722 -30.7707 -30.7682 -30.7682 -30.7440
   -30.7440 -30.7424 -30.7424 -30.7305 -30.7305 -30.7217 -30.7217 -30.7206
   -30.7205 -30.7161 -30.7161 -30.7157 -30.7157 -30.7058 -30.7029 -30.7028
   -30.6995 -30.6995 -30.6704 -30.6644 -30.6582 -30.6582 -30.6520 -30.6519
   -30.6450 -30.6411 -30.6332 -30.6332 -30.6071 -30.6065 -30.6065 -30.5962
   -30.5962 -30.5935 -30.5934 -30.5834 -30.5834 -30.5728 -30.5728 -30.5701
   -30.5701 -30.5692 -30.5690 -30.5685 -30.5631 -30.5630 -30.5554 -30.5553
   -30.5476 -30.5476 -30.5464 -30.5464 -30.5348 -30.5348 -30.5332 -30.5332
   -30.5281 -30.5280 -30.5256 -30.5252 -30.5174 -30.5174 -30.5157 -30.5153
   -30.5150 -30.5140 -30.5139 -30.5117 -30.5044 -30.5044 -30.5031 -30.5008
   -30.5002 -30.4985 -30.4934 -30.4932 -30.4932 -30.4930 -30.4869 -30.4869
   -30.4835 -30.4833 -30.4832 -30.4707 -30.4706 -30.4668 -30.4526 -30.4437
    12.6767  13.7929  13.7930  14.2010  14.2420  14.2457  14.2457  14.2690
    14.3969  14.3969  14.4732  14.4850  14.4850  14.5565  14.6136  14.6477
    14.6619  14.6620  14.7015  14.7016  14.8176  14.8177  14.8182  14.8183
    14.9055  14.9055  14.9272  14.9273  15.0903  15.0928  15.0929  15.0989
    15.0990  15.1936  15.1937  15.2261  15.2261  15.2760  15.2761  15.3513
    15.3513  15.4261  15.5482  15.5482  15.5536  15.5536  15.5723  15.7688
    15.7689  15.7959  15.7960  15.8084  15.8085  15.8091  15.8255  16.0627
    16.0627  16.1445  16.1445  16.2229  16.2230  16.2246  16.2246  16.2728
    16.2728  16.2746  16.3002  16.3003  16.3076  16.4009  16.4297  16.4415
    16.4416  16.5337  16.5337  16.5603  16.5868  16.6035  16.6148  16.6366
    16.6391  16.6392  16.6787  16.6787  16.7063  16.7069  16.7070  16.7417
    16.8433  16.8433  16.8671  16.8671  17.0410  17.0410  17.0974  17.0975
    17.1766  17.1766  17.2346  17.2765  17.3177  17.3178  17.3482  17.3483
    17.3699  17.3700  17.4415  17.4495  17.5873  17.5873  17.7154  17.7984
    17.7984  17.8156  17.8156  17.8362  17.8539  17.9365  17.9366  17.9974
    18.0521  18.1045  18.1045  18.1580  18.1581  18.2076  18.2077  18.2434
    18.2434  18.3522  18.3522  18.3563  18.3563  18.3747  18.3772  18.3773
    18.3776  18.4378  18.4378  18.5891  18.6323  18.6576  18.6576  18.6612
    18.6613  18.6669  18.6669  18.7683  18.7719  18.8058  18.9293  18.9293
    19.0000  19.0853  19.0853  19.0930  19.1170  19.1170  19.2085  19.2085
    19.2089  19.2090  19.2313  19.2313  19.2785  19.2916  19.5958  19.6301
    19.6301  19.9185  19.9186  20.3018  20.3950  20.3951  21.5996  21.5996
    21.9582  21.9583  22.3352  22.3352  22.6064  22.6065  23.1325  23.1326
    23.9133  24.3915  24.6839  24.6840  25.9209  25.9210  26.2680  26.2680
    26.3831  26.3831  26.8725  26.8726  27.5208  27.5210  27.6739  27.8057
    27.8058  28.1996  28.3196  28.3197  28.3725  29.4693  29.6656  29.6656
    29.7877  29.7877  30.2253  30.2607  30.5406  30.5407  30.6659  30.6659
    30.9157  30.9157

          k = 0.0554 0.2778 0.3889 ( 33097 PWs)   bands (ev):

   -64.9191 -64.9116 -64.9051 -64.8995 -64.8943 -64.8903 -64.8895 -64.8872
   -64.8862 -64.8851 -64.8839 -64.8823 -64.8807 -64.8784 -64.8769 -64.8762
   -64.8758 -64.8747 -64.8737 -64.8736 -64.8720 -64.8711 -64.8694 -64.8682
   -64.8681 -64.8680 -64.8678 -64.8670 -64.8661 -64.8658 -64.8651 -64.8643
   -30.7866 -30.7856 -30.7666 -30.7618 -30.7615 -30.7609 -30.7587 -30.7571
   -30.7562 -30.7423 -30.7415 -30.7414 -30.7370 -30.7333 -30.7301 -30.7297
   -30.7291 -30.7227 -30.7213 -30.7211 -30.7144 -30.7127 -30.7040 -30.7038
   -30.7021 -30.6879 -30.6796 -30.6770 -30.6690 -30.6560 -30.6443 -30.6412
   -30.6375 -30.6261 -30.6258 -30.6185 -30.6184 -30.6177 -30.6097 -30.6056
   -30.5924 -30.5877 -30.5846 -30.5792 -30.5768 -30.5768 -30.5724 -30.5702
   -30.5660 -30.5656 -30.5630 -30.5586 -30.5582 -30.5559 -30.5521 -30.5467
   -30.5467 -30.5463 -30.5451 -30.5442 -30.5415 -30.5362 -30.5327 -30.5326
   -30.5315 -30.5302 -30.5253 -30.5251 -30.5228 -30.5209 -30.5203 -30.5198
   -30.5136 -30.5135 -30.5125 -30.5092 -30.5080 -30.5077 -30.5065 -30.5063
   -30.5011 -30.4993 -30.4978 -30.4959 -30.4944 -30.4939 -30.4938 -30.4900
   -30.4850 -30.4845 -30.4762 -30.4661 -30.4639 -30.4605 -30.4588 -30.4467
    12.8811  13.4536  13.9500  14.2725  14.3405  14.3422  14.3532  14.3728
    14.3771  14.5204  14.5252  14.5280  14.5379  14.5625  14.5683  14.6060
    14.6292  14.6369  14.6372  14.6793  14.6969  14.7225  14.7680  14.7863
    14.8043  14.8551  14.8825  14.8950  14.9625  14.9888  15.0180  15.0272
    15.0678  15.1642  15.1679  15.2022  15.2435  15.2740  15.2759  15.3245
    15.3401  15.3938  15.4171  15.4547  15.4911  15.5974  15.6463  15.6632
    15.6875  15.7256  15.7943  15.8222  15.8537  15.8777  15.9301  16.0406
    16.0464  16.0539  16.1297  16.1923  16.1939  16.2467  16.2918  16.2985
    16.3299  16.3379  16.3420  16.3757  16.4013  16.4259  16.4531  16.5440
    16.5464  16.5759  16.5980  16.6005  16.6319  16.6512  16.6623  16.6733
    16.6875  16.7004  16.7091  16.7828  16.7845  16.8032  16.8086  16.8298
    16.8327  16.9206  16.9215  16.9237  16.9995  17.0202  17.0902  17.1054
    17.1153  17.1450  17.1758  17.1769  17.1993  17.2336  17.2440  17.3583
    17.4583  17.4695  17.4865  17.4925  17.5008  17.5130  17.5834  17.6010
    17.6309  17.6640  17.7189  17.7354  17.7578  17.8317  17.9977  18.0364
    18.0375  18.0462  18.0747  18.0799  18.2057  18.2130  18.2211  18.2299
    18.2364  18.2839  18.3879  18.4083  18.4111  18.4206  18.4754  18.4857
    18.4878  18.5649  18.5926  18.6249  18.6333  18.6934  18.7210  18.7894
    18.8046  18.8049  18.8161  18.8170  18.8247  18.8267  18.8533  18.8741
    18.9687  19.0178  19.0311  19.0320  19.0325  19.0373  19.0425  19.0473
    19.0939  19.1650  19.2120  19.2151  19.2224  19.2510  19.5239  19.6035
    19.8262  19.9653  20.1117  20.2109  20.2455  20.3354  21.0981  21.6172
    22.2671  22.2831  22.4705  22.5681  22.8873  23.0472  23.3542  23.8517
    23.8614  24.0812  24.4406  25.0454  25.0769  25.4362  25.7009  26.2846
    26.4749  26.5947  26.7134  26.8288  27.0709  27.1053  27.3645  27.5347
    27.7960  27.8611  28.0767  28.2755  28.8333  29.1585  29.7175  29.7667
    29.8426  29.9018  29.9860  30.0505  30.1669  30.2981  30.8011  30.8238
    30.9834  31.0341

          k = 0.0554 0.2778-0.5000 ( 33110 PWs)   bands (ev):

   -64.9161 -64.9153 -64.9029 -64.9022 -64.8928 -64.8921 -64.8884 -64.8876
   -64.8866 -64.8859 -64.8835 -64.8827 -64.8800 -64.8792 -64.8758 -64.8750
   -64.8750 -64.8743 -64.8732 -64.8724 -64.8710 -64.8702 -64.8702 -64.8697
   -64.8695 -64.8689 -64.8673 -64.8669 -64.8665 -64.8662 -64.8651 -64.8644
   -30.7754 -30.7751 -30.7737 -30.7733 -30.7532 -30.7524 -30.7509 -30.7508
   -30.7504 -30.7501 -30.7407 -30.7401 -30.7399 -30.7395 -30.7372 -30.7372
   -30.7365 -30.7363 -30.7275 -30.7271 -30.7088 -30.7083 -30.7065 -30.7059
   -30.6907 -30.6903 -30.6780 -30.6780 -30.6723 -30.6719 -30.6310 -30.6307
   -30.6302 -30.6299 -30.6237 -30.6233 -30.6169 -30.6161 -30.6067 -30.6065
   -30.6043 -30.6036 -30.5717 -30.5710 -30.5688 -30.5681 -30.5669 -30.5661
   -30.5639 -30.5637 -30.5635 -30.5633 -30.5582 -30.5580 -30.5576 -30.5569
   -30.5456 -30.5451 -30.5419 -30.5417 -30.5366 -30.5361 -30.5361 -30.5357
   -30.5276 -30.5268 -30.5256 -30.5251 -30.5220 -30.5218 -30.5198 -30.5195
   -30.5142 -30.5134 -30.5114 -30.5108 -30.5107 -30.5101 -30.5088 -30.5084
   -30.5033 -30.5026 -30.5007 -30.5003 -30.4964 -30.4956 -30.4884 -30.4881
   -30.4877 -30.4869 -30.4671 -30.4663 -30.4637 -30.4636 -30.4525 -30.4522
    13.1433  13.1442  14.1466  14.1474  14.3809  14.3811  14.4527  14.4535
    14.4736  14.4736  14.4749  14.4754  14.5396  14.5404  14.5760  14.5764
    14.6633  14.6641  14.6908  14.6908  14.7059  14.7060  14.7203  14.7206
    14.7654  14.7662  14.8706  14.8710  14.9111  14.9112  14.9770  14.9776
    15.1509  15.1517  15.1636  15.1641  15.2434  15.2436  15.3070  15.3072
    15.3130  15.3138  15.4955  15.4961  15.5357  15.5357  15.5425  15.5433
    15.8090  15.8090  15.8149  15.8153  15.9180  15.9183  15.9398  15.9404
    15.9619  15.9625  16.0738  16.0743  16.2706  16.2712  16.3661  16.3667
    16.3748  16.3749  16.3948  16.3953  16.4455  16.4458  16.4542  16.4543
    16.5006  16.5008  16.6555  16.6556  16.6943  16.6948  16.7217  16.7219
    16.7274  16.7274  16.7559  16.7566  16.7767  16.7773  16.7938  16.7941
    16.9353  16.9356  16.9585  16.9588  17.1185  17.1186  17.1295  17.1299
    17.1407  17.1412  17.1992  17.1993  17.2109  17.2111  17.2264  17.2267
    17.2912  17.2917  17.5462  17.5469  17.5495  17.5498  17.5961  17.5966
    17.6251  17.6256  17.6488  17.6491  17.6592  17.6599  17.9433  17.9440
    17.9512  17.9517  18.1265  18.1272  18.1644  18.1650  18.1746  18.1753
    18.3355  18.3362  18.4619  18.4626  18.4673  18.4680  18.5869  18.5876
    18.6117  18.6124  18.6532  18.6532  18.6997  18.6998  18.7006  18.7008
    18.8213  18.8219  18.8483  18.8484  18.8779  18.8782  18.9265  18.9269
    18.9289  18.9292  18.9440  18.9442  18.9498  18.9500  18.9600  18.9601
    19.1570  19.1571  19.2158  19.2165  19.2275  19.2280  19.5555  19.5557
    19.7121  19.7129  20.2743  20.2750  20.6019  20.6022  20.8885  20.8891
    22.4662  22.4669  22.8402  22.8408  23.0397  23.0401  23.4771  23.4776
    24.1724  24.1727  24.6468  24.6470  25.0459  25.0465  25.8233  25.8235
    26.5474  26.5474  26.9048  26.9049  26.9807  26.9813  27.2616  27.2623
    27.4502  27.4510  28.6391  28.6392  28.9591  28.9593  29.5344  29.5345
    29.7890  29.7898  29.9264  29.9273  30.3697  30.3705  30.5753  30.5753
    31.2353  31.2360

          k = 0.0554 0.3889 0.3889 ( 33103 PWs)   bands (ev):

   -64.9166 -64.9095 -64.9094 -64.9033 -64.8930 -64.8894 -64.8893 -64.8885
   -64.8867 -64.8856 -64.8855 -64.8835 -64.8764 -64.8763 -64.8748 -64.8747
   -64.8745 -64.8744 -64.8727 -64.8726 -64.8720 -64.8719 -64.8694 -64.8692
   -64.8690 -64.8689 -64.8684 -64.8683 -64.8672 -64.8657 -64.8654 -64.8647
   -30.7797 -30.7796 -30.7570 -30.7569 -30.7563 -30.7562 -30.7533 -30.7526
   -30.7515 -30.7515 -30.7415 -30.7410 -30.7410 -30.7383 -30.7383 -30.7290
   -30.7289 -30.7236 -30.7236 -30.7225 -30.7224 -30.7201 -30.7201 -30.7082
   -30.7057 -30.7057 -30.6910 -30.6778 -30.6721 -30.6565 -30.6565 -30.6307
   -30.6234 -30.6234 -30.6106 -30.6106 -30.6051 -30.5969 -30.5969 -30.5911
   -30.5911 -30.5910 -30.5910 -30.5856 -30.5856 -30.5671 -30.5671 -30.5646
   -30.5646 -30.5636 -30.5635 -30.5607 -30.5605 -30.5600 -30.5574 -30.5574
   -30.5536 -30.5535 -30.5431 -30.5431 -30.5399 -30.5398 -30.5379 -30.5350
   -30.5350 -30.5245 -30.5245 -30.5224 -30.5224 -30.5222 -30.5222 -30.5197
   -30.5139 -30.5136 -30.5136 -30.5118 -30.5118 -30.5089 -30.5072 -30.5019
   -30.5018 -30.4990 -30.4979 -30.4979 -30.4978 -30.4948 -30.4940 -30.4871
   -30.4870 -30.4829 -30.4829 -30.4650 -30.4588 -30.4573 -30.4572 -30.4472
    13.0771  13.6250  13.6251  14.0967  14.3174  14.4108  14.4224  14.4740
    14.4741  14.5021  14.5026  14.5027  14.6194  14.6194  14.6442  14.6656
    14.6656  14.6797  14.6797  14.6818  14.6819  14.7076  14.7076  14.8274
    14.8275  14.8431  14.8564  14.8936  14.8937  14.9975  14.9976  15.0005
    15.0006  15.0239  15.0239  15.0709  15.0709  15.2070  15.2071  15.2167
    15.2167  15.2454  15.2454  15.4801  15.4802  15.5363  15.7212  15.7213
    15.7264  15.7265  15.8175  15.8855  15.9323  15.9323  15.9348  15.9348
    15.9437  16.1420  16.2419  16.2420  16.2903  16.4097  16.4239  16.4239
    16.4688  16.4688  16.4719  16.4719  16.4746  16.4746  16.5135  16.5135
    16.5310  16.5442  16.7071  16.7139  16.7177  16.7207  16.7208  16.7483
    16.7861  16.7862  16.7862  16.7977  16.7988  16.7988  16.9252  16.9254
    16.9390  16.9390  16.9410  16.9411  16.9457  16.9457  17.0567  17.0567
    17.0634  17.0834  17.1380  17.1380  17.1507  17.2211  17.2551  17.2552
    17.2592  17.2665  17.2665  17.2832  17.2833  17.3078  17.3079  17.4772
    17.5851  17.5852  17.5959  17.5959  17.7141  17.7732  17.7733  17.7923
    17.9571  18.0915  18.1965  18.1966  18.2413  18.2413  18.3225  18.3226
    18.4027  18.4028  18.4500  18.4501  18.5081  18.5082  18.5102  18.6132
    18.6132  18.7061  18.7334  18.7351  18.7352  18.7392  18.7393  18.7396
    18.7457  18.7457  18.8114  18.8788  18.9127  18.9127  18.9178  18.9179
    18.9225  19.0169  19.0169  19.0386  19.0386  19.0430  19.0433  19.0433
    19.0667  19.0667  19.0703  19.0704  19.1681  19.2447  19.3631  19.4382
    19.4383  19.9248  19.9249  20.0162  20.7186  20.7187  21.7594  21.7594
    22.1518  22.1518  22.9075  22.9076  23.2837  23.2837  23.3290  23.3291
    23.7466  23.7467  24.9203  24.9203  24.9240  25.7360  26.1102  26.1103
    26.2934  26.2934  26.5440  26.5441  26.7022  26.7022  27.1085  27.1085
    27.1955  27.2543  27.2546  28.5416  28.9117  29.4889  29.7829  29.7853
    29.7854  29.9209  30.3765  30.3766  30.5195  30.5195  30.9634  30.9635
    31.3660  31.3662

          k = 0.0554 0.3889-0.5000 ( 33110 PWs)   bands (ev):

   -64.9137 -64.9129 -64.9070 -64.9062 -64.8917 -64.8910 -64.8886 -64.8878
   -64.8875 -64.8868 -64.8850 -64.8843 -64.8759 -64.8752 -64.8739 -64.8735
   -64.8731 -64.8728 -64.8728 -64.8720 -64.8717 -64.8711 -64.8709 -64.8708
   -64.8703 -64.8700 -64.8693 -64.8685 -64.8666 -64.8659 -64.8655 -64.8648
   -30.7700 -30.7698 -30.7695 -30.7692 -30.7504 -30.7504 -30.7502 -30.7502
   -30.7459 -30.7453 -30.7425 -30.7417 -30.7388 -30.7381 -30.7371 -30.7367
   -30.7323 -30.7318 -30.7243 -30.7239 -30.7236 -30.7231 -30.7193 -30.7186
   -30.7060 -30.7056 -30.6893 -30.6889 -30.6683 -30.6682 -30.6435 -30.6434
   -30.6099 -30.6098 -30.6067 -30.6065 -30.6019 -30.6012 -30.5974 -30.5967
   -30.5838 -30.5837 -30.5784 -30.5776 -30.5775 -30.5767 -30.5762 -30.5761
   -30.5734 -30.5733 -30.5629 -30.5623 -30.5562 -30.5561 -30.5551 -30.5544
   -30.5488 -30.5482 -30.5451 -30.5450 -30.5408 -30.5407 -30.5392 -30.5387
   -30.5319 -30.5317 -30.5313 -30.5312 -30.5189 -30.5187 -30.5182 -30.5181
   -30.5181 -30.5173 -30.5141 -30.5139 -30.5049 -30.5042 -30.5036 -30.5032
   -30.5022 -30.5018 -30.5007 -30.5001 -30.4920 -30.4919 -30.4916 -30.4912
   -30.4907 -30.4900 -30.4736 -30.4729 -30.4567 -30.4566 -30.4510 -30.4509
    13.3281  13.3291  13.8424  13.8433  14.3945  14.3946  14.4951  14.4954
    14.4997  14.4998  14.5358  14.5361  14.5890  14.5898  14.6240  14.6241
    14.6398  14.6406  14.7543  14.7544  14.7759  14.7768  14.8205  14.8206
    14.8245  14.8247  14.8341  14.8349  14.8787  14.8794  14.9502  14.9510
    15.0175  15.0178  15.0375  15.0380  15.1072  15.1081  15.1163  15.1165
    15.1273  15.1275  15.3683  15.3684  15.5854  15.5860  15.5909  15.5917
    15.8170  15.8176  15.8243  15.8249  15.9225  15.9228  16.0538  16.0541
    16.0583  16.0585  16.2004  16.2004  16.2807  16.2814  16.4179  16.4184
    16.4647  16.4647  16.4830  16.4831  16.5976  16.5977  16.6325  16.6327
    16.7177  16.7183  16.7662  16.7667  16.7749  16.7752  16.7794  16.7796
    16.7802  16.7802  16.8079  16.8083  16.8695  16.8696  16.8907  16.8907
    16.9207  16.9208  16.9759  16.9762  16.9846  16.9849  16.9882  16.9886
    16.9981  16.9985  17.0271  17.0273  17.1083  17.1086  17.1233  17.1238
    17.1387  17.1390  17.3386  17.3389  17.4394  17.4398  17.4536  17.4540
    17.4825  17.4828  17.5203  17.5208  17.5358  17.5365  17.6407  17.6414
    18.0842  18.0849  18.1879  18.1884  18.3492  18.3498  18.3608  18.3615
    18.3731  18.3738  18.4865  18.4868  18.5897  18.5903  18.6246  18.6253
    18.6344  18.6346  18.6599  18.6606  18.7669  18.7670  18.8334  18.8340
    18.8402  18.8408  18.9003  18.9006  18.9299  18.9301  18.9439  18.9441
    18.9791  18.9793  18.9821  18.9824  18.9968  18.9970  19.0013  19.0015
    19.0488  19.0496  19.0767  19.0768  19.1084  19.1087  19.3504  19.3511
    19.5472  19.5474  19.9196  19.9203  21.2369  21.2373  21.4105  21.4111
    22.4956  22.4961  22.7134  22.7139  23.1984  23.1990  23.4327  23.4332
    24.1361  24.1362  24.4304  24.4305  25.4905  25.4911  26.3388  26.3388
    26.4069  26.4070  26.4663  26.4667  26.5652  26.5653  26.6808  26.6812
    26.7554  26.7560  27.8834  27.8835  29.6133  29.6134  29.7638  29.7647
    29.8352  29.8361  30.1997  30.1998  30.9196  30.9204  31.0293  31.0294
    31.0818  31.0819

          k = 0.0554-0.5000-0.5000 ( 33040 PWs)   bands (ev):

   -64.9108 -64.9105 -64.9100 -64.9097 -64.8904 -64.8901 -64.8897 -64.8894
   -64.8865 -64.8862 -64.8858 -64.8855 -64.8726 -64.8725 -64.8723 -64.8722
   -64.8722 -64.8722 -64.8721 -64.8719 -64.8718 -64.8718 -64.8715 -64.8715
   -64.8714 -64.8714 -64.8713 -64.8711 -64.8662 -64.8659 -64.8654 -64.8651
   -30.7616 -30.7616 -30.7615 -30.7615 -30.7614 -30.7613 -30.7613 -30.7613
   -30.7362 -30.7362 -30.7359 -30.7359 -30.7356 -30.7356 -30.7353 -30.7353
   -30.7318 -30.7315 -30.7311 -30.7307 -30.7219 -30.7218 -30.7215 -30.7214
   -30.7072 -30.7070 -30.7068 -30.7066 -30.6561 -30.6561 -30.6561 -30.6560
   -30.5906 -30.5906 -30.5906 -30.5906 -30.5906 -30.5906 -30.5906 -30.5906
   -30.5889 -30.5888 -30.5886 -30.5885 -30.5881 -30.5881 -30.5878 -30.5877
   -30.5617 -30.5617 -30.5616 -30.5616 -30.5521 -30.5520 -30.5518 -30.5518
   -30.5515 -30.5514 -30.5512 -30.5512 -30.5498 -30.5497 -30.5497 -30.5497
   -30.5259 -30.5259 -30.5257 -30.5257 -30.5254 -30.5253 -30.5251 -30.5251
   -30.5112 -30.5111 -30.5108 -30.5107 -30.5054 -30.5054 -30.5054 -30.5053
   -30.4970 -30.4970 -30.4969 -30.4969 -30.4961 -30.4958 -30.4956 -30.4955
   -30.4821 -30.4818 -30.4813 -30.4810 -30.4523 -30.4522 -30.4522 -30.4522
    13.5642  13.5649  13.5652  13.5658  14.4330  14.4332  14.4333  14.4334
    14.5499  14.5500  14.5500  14.5501  14.6287  14.6288  14.6289  14.6290
    14.7580  14.7581  14.7586  14.7587  14.7588  14.7589  14.7593  14.7594
    14.9249  14.9249  14.9254  14.9255  14.9256  14.9258  14.9262  14.9262
    14.9655  14.9656  14.9656  14.9656  14.9657  14.9657  14.9658  14.9658
    15.1885  15.1885  15.1886  15.1887  15.6952  15.6952  15.6956  15.6957
    15.6959  15.6959  15.6963  15.6964  16.0040  16.0043  16.0043  16.0044
    16.2403  16.2407  16.2409  16.2413  16.4285  16.4289  16.4291  16.4295
    16.5493  16.5495  16.5496  16.5498  16.5602  16.5603  16.5604  16.5605
    16.7783  16.7786  16.7788  16.7790  16.8164  16.8165  16.8166  16.8166
    16.8166  16.8166  16.8168  16.8168  16.8759  16.8759  16.8759  16.8763
    16.8866  16.8867  16.8869  16.8870  16.9932  16.9933  16.9936  16.9937
    17.1055  17.1056  17.1057  17.1058  17.1059  17.1060  17.1061  17.1062
    17.2575  17.2578  17.2578  17.2581  17.2759  17.2759  17.2761  17.2761
    17.2762  17.2763  17.2764  17.2764  17.5856  17.5858  17.5863  17.5865
    18.2294  18.2297  18.2301  18.2304  18.3120  18.3122  18.3125  18.3127
    18.5142  18.5143  18.5143  18.5145  18.5147  18.5149  18.5149  18.5150
    18.8319  18.8320  18.8323  18.8324  18.8568  18.8569  18.8569  18.8571
    18.8573  18.8575  18.8576  18.8576  18.9706  18.9707  18.9710  18.9711
    19.0062  19.0064  19.0064  19.0066  19.0082  19.0083  19.0083  19.0083
    19.0084  19.0085  19.0085  19.0085  19.0733  19.0735  19.0737  19.0739
    19.6542  19.6544  19.6546  19.6549  21.9503  21.9505  21.9506  21.9507
    21.9509  21.9510  21.9511  21.9512  23.9021  23.9022  23.9022  23.9024
    23.9024  23.9026  23.9026  23.9027  26.0171  26.0176  26.0178  26.0182
    26.3711  26.3712  26.3712  26.3713  26.3713  26.3714  26.3715  26.3715
    27.1592  27.1595  27.1596  27.1596  29.7828  29.7831  29.7837  29.7840
    30.3213  30.3215  30.3215  30.3216  30.9118  30.9119  30.9119  30.9120
    31.4730  31.4733

          k = 0.1663 0.0556 0.0556 ( 33069 PWs)   bands (ev):

   -64.9263 -64.9041 -64.8979 -64.8979 -64.8925 -64.8924 -64.8878 -64.8858
   -64.8857 -64.8827 -64.8823 -64.8822 -64.8806 -64.8799 -64.8799 -64.8796
   -64.8795 -64.8792 -64.8773 -64.8768 -64.8767 -64.8748 -64.8747 -64.8658
   -64.8648 -64.8648 -64.8647 -64.8645 -64.8640 -64.8640 -64.8638 -64.8636
   -30.8074 -30.8057 -30.8057 -30.8026 -30.7869 -30.7869 -30.7842 -30.7250
   -30.7199 -30.7199 -30.7141 -30.7140 -30.7140 -30.7139 -30.7129 -30.7128
   -30.7120 -30.7012 -30.7011 -30.6984 -30.6983 -30.6938 -30.6938 -30.6900
   -30.6900 -30.6791 -30.6790 -30.6731 -30.6731 -30.6652 -30.6601 -30.6601
   -30.6411 -30.6410 -30.6271 -30.6271 -30.6120 -30.6120 -30.6113 -30.6113
   -30.5997 -30.5858 -30.5857 -30.5854 -30.5854 -30.5819 -30.5819 -30.5799
   -30.5799 -30.5781 -30.5780 -30.5772 -30.5759 -30.5757 -30.5756 -30.5756
   -30.5754 -30.5751 -30.5717 -30.5673 -30.5673 -30.5274 -30.5269 -30.5194
   -30.5194 -30.5125 -30.5125 -30.5079 -30.5079 -30.5069 -30.5069 -30.5046
   -30.5045 -30.5025 -30.4999 -30.4998 -30.4998 -30.4998 -30.4991 -30.4960
   -30.4949 -30.4943 -30.4943 -30.4941 -30.4940 -30.4925 -30.4924 -30.4917
   -30.4911 -30.4908 -30.4874 -30.4836 -30.4836 -30.4489 -30.4423 -30.4415
    12.3212  13.9705  14.0403  14.0524  14.0525  14.1013  14.1286  14.1286
    14.1419  14.3081  14.3227  14.3227  14.3283  14.3284  14.5242  14.5243
    14.5348  14.9256  14.9257  14.9872  15.0535  15.0536  15.0605  15.0606
    15.0858  15.1663  15.1663  15.1983  15.1984  15.2054  15.2123  15.2124
    15.3587  15.3588  15.3806  15.3807  15.3906  15.3907  15.4276  15.4276
    15.4731  15.4732  15.5360  15.7269  15.7269  15.7494  15.7495  15.7952
    15.7953  15.8046  15.8047  15.8625  15.8626  15.9503  15.9504  15.9587
    16.0036  16.0037  16.0500  16.0610  16.0611  16.0634  16.0634  16.1065
    16.1065  16.1482  16.1482  16.1791  16.1792  16.3288  16.3522  16.3522
    16.3602  16.3603  16.3801  16.3805  16.3805  16.3903  16.4264  16.4339
    16.4358  16.4520  16.4520  16.4651  16.4828  16.4866  16.4866  16.4875
    17.0577  17.0578  17.1646  17.1681  17.1931  17.1932  17.2472  17.2472
    17.2644  17.3121  17.3247  17.3247  17.4441  17.4555  17.4556  17.4683
    17.4684  17.5062  17.5063  17.5120  17.5121  17.7268  17.7269  17.7411
    17.7516  17.7517  17.8219  17.8220  17.9024  17.9025  17.9095  17.9096
    17.9112  17.9113  17.9198  17.9933  17.9998  18.0000  18.0000  18.0336
    18.1193  18.1193  18.1302  18.1302  18.1617  18.1618  18.2209  18.2338
    18.2338  18.2648  18.3844  18.5174  18.5174  18.6462  18.6462  18.6492
    18.6829  18.6977  18.6977  18.9130  19.0186  19.0186  19.0367  19.0589
    19.0959  19.0992  19.0993  19.1230  19.1230  19.2865  19.3358  19.3358
    19.3372  19.3372  19.3524  19.4181  19.4181  19.4196  19.4196  20.0772
    20.4406  20.4407  20.5608  20.5608  20.7907  20.8878  20.9231  20.9232
    21.4050  21.4050  21.9386  21.9759  21.9760  22.1395  22.5161  22.5161
    22.8353  22.8353  26.2674  26.4268  26.4268  26.6927  26.6927  26.7094
    26.7094  26.7215  27.2858  27.2859  27.5766  27.5767  28.2612  28.2613
    28.7528  28.7528  29.5868  29.5868  29.6640  29.6914  29.6914  29.8424
    29.8425  29.9130  29.9130  30.0923  30.1325  30.1325  30.2079  30.2079
    30.6808  30.6809

          k = 0.1663 0.0556 0.1667 ( 33081 PWs)   bands (ev):

   -64.9254 -64.9035 -64.9033 -64.8974 -64.8920 -64.8892 -64.8874 -64.8871
   -64.8856 -64.8855 -64.8823 -64.8821 -64.8816 -64.8801 -64.8791 -64.8790
   -64.8787 -64.8785 -64.8769 -64.8768 -64.8750 -64.8749 -64.8727 -64.8658
   -64.8653 -64.8651 -64.8649 -64.8648 -64.8646 -64.8645 -64.8643 -64.8637
   -30.8047 -30.8047 -30.8001 -30.7954 -30.7838 -30.7822 -30.7814 -30.7276
   -30.7264 -30.7252 -30.7237 -30.7156 -30.7143 -30.7130 -30.7125 -30.7115
   -30.7111 -30.7105 -30.7099 -30.7096 -30.7023 -30.7020 -30.7014 -30.7000
   -30.6766 -30.6704 -30.6702 -30.6692 -30.6685 -30.6651 -30.6637 -30.6572
   -30.6556 -30.6462 -30.6426 -30.6186 -30.6138 -30.6135 -30.5999 -30.5997
   -30.5963 -30.5956 -30.5905 -30.5833 -30.5831 -30.5830 -30.5808 -30.5763
   -30.5759 -30.5758 -30.5753 -30.5753 -30.5746 -30.5738 -30.5726 -30.5719
   -30.5708 -30.5706 -30.5586 -30.5581 -30.5530 -30.5317 -30.5301 -30.5249
   -30.5247 -30.5164 -30.5146 -30.5133 -30.5076 -30.5075 -30.5071 -30.5063
   -30.5043 -30.5035 -30.5033 -30.5033 -30.5030 -30.5020 -30.4985 -30.4975
   -30.4971 -30.4966 -30.4946 -30.4937 -30.4936 -30.4926 -30.4918 -30.4918
   -30.4875 -30.4874 -30.4840 -30.4832 -30.4771 -30.4568 -30.4443 -30.4415
    12.3937  14.0232  14.0305  14.0870  14.0870  14.0941  14.1140  14.1552
    14.1950  14.1950  14.3498  14.3500  14.3677  14.3688  14.5625  14.5873
    14.5940  14.9486  14.9547  14.9682  14.9757  14.9991  14.9993  15.0173
    15.0239  15.0421  15.0943  15.0944  15.1119  15.1127  15.2357  15.2377
    15.2397  15.2463  15.2483  15.2999  15.4120  15.4393  15.4405  15.4418
    15.4447  15.4735  15.4746  15.5539  15.5655  15.7027  15.7077  15.7897
    15.7906  15.8011  15.8908  15.8951  15.9058  15.9092  15.9677  15.9710
    15.9799  16.0352  16.0447  16.0454  16.0536  16.1002  16.1064  16.2032
    16.2492  16.2515  16.2867  16.2932  16.3025  16.3032  16.3535  16.3688
    16.4084  16.4092  16.4120  16.4132  16.4136  16.4258  16.4313  16.4453
    16.4754  16.4807  16.4812  16.4837  16.4894  16.5052  16.5118  16.5160
    16.9559  17.0067  17.0162  17.0649  17.1632  17.1729  17.2723  17.2889
    17.2925  17.3008  17.3024  17.3516  17.3579  17.3747  17.3813  17.4288
    17.4325  17.4428  17.5182  17.5888  17.6001  17.6016  17.6186  17.6202
    17.6405  17.8978  17.8982  17.9129  17.9132  17.9176  17.9852  17.9876
    17.9899  18.0027  18.0063  18.0106  18.0137  18.0149  18.0949  18.0982
    18.1224  18.1230  18.3011  18.3049  18.3415  18.3532  18.3570  18.3587
    18.3993  18.4016  18.4019  18.4115  18.4611  18.4636  18.4929  18.5328
    18.6559  18.7633  18.8156  18.8182  18.9482  18.9512  18.9525  18.9686
    19.0679  19.0945  19.0953  19.1097  19.1129  19.1269  19.2784  19.2790
    19.3346  19.3387  19.3469  19.3495  19.3510  19.3580  19.3747  19.7954
    20.0107  20.4093  20.4201  20.4589  20.8996  20.9129  21.0842  21.0850
    21.4675  21.4703  21.9635  21.9836  22.4305  22.4712  22.5043  22.5258
    23.0971  23.0996  26.0678  26.0908  26.2654  26.2665  26.7278  26.7820
    26.8208  26.8458  26.8639  27.1282  27.4148  27.4540  27.8521  27.8722
    28.8802  28.9024  29.1445  29.1784  29.5703  29.6725  29.6834  29.7173
    29.8061  29.8083  30.0144  30.0336  30.0832  30.1500  30.4946  30.5119
    30.7795  30.8203

          k = 0.1663 0.0556 0.2778 ( 33064 PWs)   bands (ev):

   -64.9235 -64.9084 -64.9023 -64.8964 -64.8925 -64.8912 -64.8883 -64.8867
   -64.8853 -64.8844 -64.8825 -64.8821 -64.8820 -64.8809 -64.8805 -64.8784
   -64.8779 -64.8769 -64.8755 -64.8752 -64.8742 -64.8727 -64.8708 -64.8669
   -64.8661 -64.8660 -64.8658 -64.8657 -64.8650 -64.8649 -64.8645 -64.8637
   -30.7993 -30.7979 -30.7907 -30.7844 -30.7775 -30.7757 -30.7728 -30.7437
   -30.7400 -30.7298 -30.7276 -30.7275 -30.7275 -30.7269 -30.7180 -30.7162
   -30.7160 -30.7109 -30.7100 -30.7078 -30.7070 -30.7043 -30.7029 -30.6958
   -30.6889 -30.6743 -30.6727 -30.6655 -30.6613 -30.6603 -30.6573 -30.6554
   -30.6517 -30.6479 -30.6385 -30.6300 -30.6266 -30.6133 -30.6101 -30.5982
   -30.5954 -30.5940 -30.5873 -30.5825 -30.5805 -30.5787 -30.5761 -30.5752
   -30.5747 -30.5742 -30.5716 -30.5668 -30.5639 -30.5626 -30.5616 -30.5588
   -30.5579 -30.5555 -30.5450 -30.5447 -30.5436 -30.5392 -30.5368 -30.5356
   -30.5211 -30.5205 -30.5199 -30.5186 -30.5162 -30.5156 -30.5155 -30.5142
   -30.5104 -30.5069 -30.5067 -30.5041 -30.5039 -30.5035 -30.5000 -30.4992
   -30.4987 -30.4971 -30.4967 -30.4965 -30.4930 -30.4919 -30.4908 -30.4847
   -30.4829 -30.4820 -30.4815 -30.4757 -30.4733 -30.4692 -30.4485 -30.4437
    12.5369  13.6837  14.1256  14.1537  14.1672  14.1756  14.1778  14.2217
    14.2868  14.2993  14.4042  14.4330  14.4454  14.4569  14.5614  14.6340
    14.6893  14.7690  14.7953  14.8265  14.8514  14.8616  14.8685  14.9008
    14.9894  15.0039  15.0268  15.0370  15.0518  15.0775  15.1569  15.1647
    15.1739  15.1875  15.2204  15.2683  15.3116  15.3295  15.3605  15.4621
    15.4752  15.4839  15.5265  15.5879  15.6328  15.6505  15.6544  15.7473
    15.7504  15.7616  15.7784  15.7927  15.8435  15.9022  15.9153  15.9576
    15.9597  15.9698  16.0564  16.1110  16.1528  16.1598  16.2066  16.2183
    16.2292  16.2356  16.2541  16.2780  16.3108  16.3324  16.3350  16.3630
    16.3893  16.4179  16.4675  16.4862  16.5188  16.5339  16.5376  16.5378
    16.5746  16.5906  16.5909  16.6021  16.6212  16.7221  16.8017  16.8262
    16.8510  16.8641  16.8915  16.9816  16.9915  17.0859  17.1002  17.1150
    17.1872  17.2047  17.2238  17.2961  17.2973  17.3761  17.3778  17.4864
    17.4993  17.5180  17.5290  17.5755  17.6219  17.7055  17.7594  17.7607
    17.7789  17.8559  17.8666  17.8822  17.9147  17.9595  17.9983  18.0032
    18.0283  18.0739  18.0791  18.1184  18.1270  18.1365  18.1386  18.1485
    18.1555  18.1865  18.2580  18.2958  18.3209  18.3526  18.3824  18.4482
    18.4574  18.4842  18.4885  18.4941  18.5025  18.5200  18.5223  18.6075
    18.6236  18.6384  18.7338  18.8125  18.8450  18.8675  18.9440  18.9643
    19.0327  19.0716  19.0733  19.0745  19.1599  19.1714  19.1717  19.1775
    19.2136  19.2171  19.2503  19.3338  19.3402  19.3482  19.3498  19.6226
    19.8252  19.9905  20.3461  20.4516  20.4848  20.8519  20.9807  21.3707
    21.5696  21.8642  21.9331  22.0918  22.4699  22.6330  22.9088  23.1767
    23.5497  23.7380  25.2576  25.4214  25.9191  26.1497  26.2692  26.4233
    26.4410  26.9197  27.0976  27.1336  27.1570  27.6246  27.6343  28.2892
    28.3822  28.6487  28.8205  29.0035  29.1131  29.1861  29.4539  29.6277
    29.8062  29.9065  29.9218  30.0643  30.1544  30.4024  30.4918  30.5202
    30.7365  30.7923

          k = 0.1663 0.0556 0.3889 ( 33088 PWs)   bands (ev):

   -64.9208 -64.9131 -64.9005 -64.8955 -64.8950 -64.8908 -64.8900 -64.8865
   -64.8857 -64.8848 -64.8833 -64.8827 -64.8819 -64.8809 -64.8781 -64.8773
   -64.8771 -64.8771 -64.8756 -64.8725 -64.8717 -64.8706 -64.8696 -64.8690
   -64.8675 -64.8675 -64.8671 -64.8660 -64.8658 -64.8650 -64.8644 -64.8637
   -30.7900 -30.7874 -30.7779 -30.7701 -30.7686 -30.7675 -30.7612 -30.7593
   -30.7574 -30.7448 -30.7441 -30.7431 -30.7348 -30.7270 -30.7250 -30.7202
   -30.7201 -30.7195 -30.7184 -30.7144 -30.7053 -30.7018 -30.6975 -30.6917
   -30.6818 -30.6793 -30.6747 -30.6700 -30.6670 -30.6584 -30.6497 -30.6448
   -30.6442 -30.6439 -30.6386 -30.6331 -30.6262 -30.6228 -30.6226 -30.6109
   -30.6080 -30.5967 -30.5760 -30.5753 -30.5741 -30.5737 -30.5728 -30.5724
   -30.5666 -30.5654 -30.5635 -30.5555 -30.5545 -30.5524 -30.5516 -30.5504
   -30.5477 -30.5466 -30.5438 -30.5418 -30.5341 -30.5332 -30.5302 -30.5299
   -30.5295 -30.5292 -30.5290 -30.5269 -30.5266 -30.5263 -30.5263 -30.5157
   -30.5138 -30.5134 -30.5069 -30.5060 -30.5055 -30.5047 -30.5042 -30.5031
   -30.5021 -30.5008 -30.4954 -30.4942 -30.4936 -30.4909 -30.4889 -30.4858
   -30.4857 -30.4824 -30.4769 -30.4721 -30.4720 -30.4650 -30.4547 -30.4487
    12.7469  13.3355  14.2469  14.2605  14.2713  14.2936  14.3077  14.3276
    14.4161  14.4389  14.4704  14.4843  14.5494  14.5573  14.5639  14.5881
    14.6153  14.6480  14.6492  14.6530  14.7155  14.7296  14.7783  14.7890
    14.8099  14.8341  14.9248  14.9428  14.9592  15.0402  15.1535  15.1681
    15.1729  15.1933  15.2331  15.2888  15.2930  15.4162  15.4276  15.4480
    15.4766  15.4944  15.5524  15.5700  15.5857  15.5958  15.5974  15.6055
    15.6342  15.6837  15.7379  15.7701  15.7773  15.8372  15.9197  15.9395
    15.9727  16.0184  16.1251  16.1344  16.1609  16.1863  16.2066  16.2079
    16.2090  16.2124  16.2546  16.3020  16.3061  16.3116  16.3304  16.3505
    16.4030  16.4272  16.4438  16.5632  16.5743  16.6238  16.6281  16.6468
    16.6524  16.6606  16.6989  16.7061  16.7235  16.7869  16.7914  16.8003
    16.8878  16.9031  16.9066  16.9895  17.0166  17.0386  17.0763  17.0964
    17.2562  17.2736  17.2957  17.3114  17.3224  17.3434  17.4413  17.5325
    17.5341  17.5519  17.6158  17.6642  17.7129  17.7271  17.7366  17.7366
    17.7565  17.7615  17.8112  17.8431  17.8821  17.9056  17.9105  17.9158
[...]
    23.4890  23.4891  24.2164  24.2167  24.3626  24.3628  24.9911  24.9913
    26.5484  26.5485  26.6993  26.6994  26.8933  26.8934  27.4242  27.4243
    27.7203  27.7205  28.2023  28.2024  28.5015  28.5016  29.1251  29.1253
    29.3223  29.3223  29.9366  29.9366  30.2205  30.2206  30.4415  30.4417
    31.3323  31.3324

          k =-0.4988 0.2778-0.5000 ( 33084 PWs)   bands (ev):

   -64.9088 -64.9086 -64.9080 -64.9078 -64.8978 -64.8976 -64.8971 -64.8969
   -64.8788 -64.8786 -64.8780 -64.8778 -64.8728 -64.8726 -64.8726 -64.8724
   -64.8723 -64.8722 -64.8721 -64.8721 -64.8720 -64.8719 -64.8718 -64.8716
   -64.8716 -64.8714 -64.8713 -64.8712 -64.8678 -64.8676 -64.8671 -64.8669
   -30.7574 -30.7574 -30.7573 -30.7573 -30.7568 -30.7568 -30.7564 -30.7564
   -30.7432 -30.7431 -30.7429 -30.7427 -30.7427 -30.7426 -30.7423 -30.7421
   -30.7407 -30.7405 -30.7402 -30.7401 -30.7398 -30.7397 -30.7392 -30.7391
   -30.6704 -30.6704 -30.6701 -30.6700 -30.6308 -30.6308 -30.6307 -30.6306
   -30.5908 -30.5908 -30.5907 -30.5907 -30.5907 -30.5905 -30.5903 -30.5902
   -30.5902 -30.5902 -30.5901 -30.5900 -30.5898 -30.5897 -30.5893 -30.5891
   -30.5863 -30.5863 -30.5862 -30.5861 -30.5481 -30.5480 -30.5478 -30.5477
   -30.5470 -30.5470 -30.5469 -30.5469 -30.5459 -30.5458 -30.5452 -30.5451
   -30.5449 -30.5447 -30.5446 -30.5444 -30.5297 -30.5297 -30.5290 -30.5290
   -30.5285 -30.5283 -30.5282 -30.5281 -30.5229 -30.5229 -30.5229 -30.5229
   -30.4811 -30.4811 -30.4811 -30.4811 -30.4742 -30.4740 -30.4737 -30.4736
   -30.4726 -30.4725 -30.4720 -30.4718 -30.4571 -30.4571 -30.4571 -30.4571
    13.6650  13.6653  13.6659  13.6662  14.1576  14.1578  14.1581  14.1583
    14.6771  14.6771  14.6772  14.6772  14.6950  14.6951  14.6953  14.6954
    14.6963  14.6964  14.6971  14.6971  14.7027  14.7028  14.7029  14.7029
    14.8490  14.8491  14.8492  14.8492  14.8492  14.8495  14.8497  14.8497
    15.1620  15.1620  15.1628  15.1628  15.1636  15.1636  15.1640  15.1640
    15.2665  15.2666  15.2666  15.2666  15.7030  15.7033  15.7037  15.7040
    15.7049  15.7051  15.7055  15.7058  15.8326  15.8328  15.8332  15.8334
    16.1418  16.1420  16.1420  16.1421  16.5520  16.5521  16.5523  16.5525
    16.6863  16.6863  16.6863  16.6863  16.6888  16.6889  16.6892  16.6893
    16.7386  16.7387  16.7390  16.7391  16.7524  16.7525  16.7526  16.7528
    16.7546  16.7547  16.7548  16.7549  16.7654  16.7655  16.7658  16.7659
    16.7841  16.7841  16.7842  16.7844  17.0515  17.0516  17.0517  17.0518
    17.0592  17.0593  17.0598  17.0599  17.1419  17.1421  17.1422  17.1424
    17.2635  17.2636  17.2639  17.2640  17.4086  17.4086  17.4089  17.4089
    17.4128  17.4129  17.4131  17.4132  17.7804  17.7805  17.7810  17.7811
    17.9816  17.9817  17.9821  17.9822  18.0205  18.0207  18.0207  18.0209
    18.0250  18.0251  18.0257  18.0258  18.2384  18.2385  18.2389  18.2390
    18.2922  18.2923  18.2925  18.2926  18.4946  18.4947  18.4951  18.4952
    19.1041  19.1041  19.1042  19.1042  19.1065  19.1066  19.1067  19.1068
    19.1267  19.1268  19.1269  19.1270  19.1468  19.1469  19.1473  19.1474
    19.1511  19.1512  19.1513  19.1514  19.1644  19.1644  19.1647  19.1648
    21.0931  21.0933  21.0937  21.0939  22.2016  22.2018  22.2022  22.2023
    22.2196  22.2198  22.2201  22.2203  23.4337  23.4338  23.4344  23.4344
    23.4533  23.4535  23.4535  23.4537  24.6099  24.6101  24.6106  24.6108
    27.0195  27.0196  27.0201  27.0203  27.0405  27.0407  27.0407  27.0408
    27.4918  27.4920  27.4922  27.4922  29.1856  29.1857  29.1859  29.1859
    29.7393  29.7394  29.7402  29.7402  29.7616  29.7617  29.7619  29.7620
    31.4329  31.4332

          k =-0.4988 0.3889 0.3889 ( 33064 PWs)   bands (ev):

   -64.9092 -64.9090 -64.9032 -64.9031 -64.9030 -64.9029 -64.8981 -64.8979
   -64.8755 -64.8753 -64.8753 -64.8751 -64.8747 -64.8746 -64.8745 -64.8743
   -64.8728 -64.8726 -64.8725 -64.8724 -64.8719 -64.8717 -64.8716 -64.8715
   -64.8698 -64.8697 -64.8696 -64.8695 -64.8691 -64.8690 -64.8689 -64.8687
   -30.7593 -30.7593 -30.7555 -30.7555 -30.7553 -30.7553 -30.7482 -30.7481
   -30.7481 -30.7480 -30.7466 -30.7466 -30.7464 -30.7464 -30.7457 -30.7456
   -30.7456 -30.7455 -30.7415 -30.7414 -30.7399 -30.7398 -30.7397 -30.7397
   -30.6703 -30.6702 -30.6281 -30.6280 -30.6280 -30.6280 -30.6128 -30.6128
   -30.6127 -30.6127 -30.6087 -30.6087 -30.6086 -30.6086 -30.5944 -30.5944
   -30.5943 -30.5943 -30.5870 -30.5869 -30.5860 -30.5859 -30.5846 -30.5846
   -30.5711 -30.5711 -30.5710 -30.5709 -30.5683 -30.5682 -30.5682 -30.5682
   -30.5478 -30.5478 -30.5477 -30.5477 -30.5440 -30.5438 -30.5382 -30.5382
   -30.5382 -30.5382 -30.5370 -30.5370 -30.5368 -30.5368 -30.5339 -30.5338
   -30.5338 -30.5338 -30.5265 -30.5264 -30.5264 -30.5264 -30.5264 -30.5263
   -30.4780 -30.4779 -30.4754 -30.4754 -30.4753 -30.4753 -30.4703 -30.4701
   -30.4649 -30.4648 -30.4648 -30.4648 -30.4637 -30.4635 -30.4596 -30.4595
    13.5976  13.5980  13.9475  13.9476  13.9478  13.9478  14.0964  14.0965
    14.6284  14.6288  14.6520  14.6520  14.6520  14.6521  14.7342  14.7343
    14.7343  14.7344  14.7454  14.7454  14.7456  14.7456  14.7829  14.7831
    14.7928  14.7929  14.7929  14.7930  14.7963  14.7964  14.7966  14.7967
    15.1467  15.1471  15.1931  15.1932  15.1932  15.1932  15.4818  15.4819
    15.4820  15.4820  15.4896  15.4897  15.4900  15.4901  15.5086  15.5087
    15.5088  15.5088  15.7291  15.7294  15.7710  15.7710  15.7712  15.7713
    16.2069  16.2071  16.3024  16.3025  16.3025  16.3026  16.6342  16.6343
    16.6929  16.6930  16.7336  16.7337  16.7420  16.7420  16.7420  16.7421
    16.7571  16.7573  16.7576  16.7577  16.7577  16.7578  16.7655  16.7655
    16.7656  16.7656  16.7679  16.7680  16.7687  16.7688  16.7688  16.7689
    16.8246  16.8247  16.8247  16.8248  16.8441  16.8442  16.8663  16.8664
    16.8665  16.8666  17.1714  17.1715  17.1716  17.1716  17.2114  17.2115
    17.3229  17.3229  17.3230  17.3231  17.3499  17.3500  17.6050  17.6051
    17.6051  17.6052  17.6753  17.6754  17.6754  17.6755  17.7036  17.7036
    17.7037  17.7037  17.9001  17.9003  17.9255  17.9255  17.9749  17.9749
    17.9750  17.9750  17.9751  17.9752  17.9753  17.9754  18.0973  18.0974
    18.1999  18.1999  18.3400  18.3401  18.3401  18.3401  18.4462  18.4463
    19.1284  19.1284  19.1285  19.1285  19.1433  19.1433  19.1481  19.1481
    19.1481  19.1481  19.1775  19.1775  19.1776  19.1776  19.1787  19.1788
    19.1788  19.1789  19.2114  19.2114  19.2115  19.2116  19.2318  19.2319
    21.6425  21.6426  21.6427  21.6428  22.0733  22.0735  22.2301  22.2302
    22.2303  22.2304  22.8785  22.8786  22.8786  22.8787  23.3236  23.3236
    23.3494  23.3495  23.3496  23.3497  24.0545  24.0546  24.0547  24.0548
    26.9880  26.9882  27.1890  27.1891  27.1892  27.1892  28.0077  28.0078
    28.0080  28.0081  28.3097  28.3098  28.3099  28.3100  28.5301  28.5301
    28.5303  28.5303  29.4143  29.4143  29.4143  29.4143  29.6752  29.6755
    32.0918  32.0918

          k =-0.4988 0.3889-0.5000 ( 33096 PWs)   bands (ev):

   -64.9068 -64.9066 -64.9060 -64.9058 -64.9012 -64.9010 -64.9005 -64.9003
   -64.8754 -64.8752 -64.8746 -64.8744 -64.8728 -64.8726 -64.8726 -64.8724
   -64.8723 -64.8722 -64.8721 -64.8721 -64.8720 -64.8719 -64.8718 -64.8716
   -64.8716 -64.8714 -64.8713 -64.8712 -64.8697 -64.8696 -64.8690 -64.8688
   -30.7537 -30.7536 -30.7536 -30.7534 -30.7530 -30.7529 -30.7525 -30.7525
   -30.7481 -30.7480 -30.7477 -30.7476 -30.7475 -30.7475 -30.7471 -30.7470
   -30.7448 -30.7447 -30.7445 -30.7443 -30.7439 -30.7438 -30.7433 -30.7432
   -30.6493 -30.6492 -30.6490 -30.6489 -30.6115 -30.6115 -30.6113 -30.6112
   -30.6060 -30.6060 -30.6058 -30.6058 -30.5909 -30.5909 -30.5907 -30.5907
   -30.5906 -30.5905 -30.5904 -30.5903 -30.5903 -30.5902 -30.5902 -30.5902
   -30.5901 -30.5900 -30.5900 -30.5899 -30.5691 -30.5690 -30.5688 -30.5687
   -30.5427 -30.5427 -30.5426 -30.5426 -30.5419 -30.5418 -30.5411 -30.5411
   -30.5405 -30.5403 -30.5403 -30.5401 -30.5332 -30.5332 -30.5325 -30.5324
   -30.5318 -30.5316 -30.5316 -30.5314 -30.5304 -30.5304 -30.5304 -30.5303
   -30.4736 -30.4736 -30.4736 -30.4736 -30.4688 -30.4686 -30.4684 -30.4683
   -30.4683 -30.4682 -30.4678 -30.4677 -30.4614 -30.4614 -30.4614 -30.4614
    13.7614  13.7617  13.7622  13.7625  14.0149  14.0152  14.0155  14.0157
    14.6987  14.6987  14.6990  14.6990  14.7002  14.7002  14.7009  14.7009
    14.7088  14.7088  14.7088  14.7088  14.7306  14.7307  14.7308  14.7309
    14.7811  14.7813  14.7814  14.7816  14.7819  14.7820  14.7825  14.7826
    15.3205  15.3206  15.3214  15.3214  15.3227  15.3229  15.3231  15.3233
    15.3567  15.3568  15.3570  15.3570  15.6228  15.6230  15.6233  15.6235
    15.6236  15.6237  15.6238  15.6241  15.6440  15.6442  15.6444  15.6446
    16.2703  16.2705  16.2705  16.2706  16.5181  16.5182  16.5183  16.5184
    16.7034  16.7035  16.7036  16.7037  16.7202  16.7202  16.7208  16.7208
    16.7341  16.7342  16.7343  16.7344  16.7510  16.7511  16.7511  16.7513
    16.7881  16.7882  16.7882  16.7883  16.8012  16.8013  16.8014  16.8015
    16.8089  16.8090  16.8093  16.8094  16.9888  16.9889  16.9889  16.9890
    16.9993  16.9994  16.9999  17.0000  17.0309  17.0311  17.0312  17.0313
    17.4344  17.4345  17.4348  17.4349  17.4966  17.4966  17.4969  17.4969
    17.5044  17.5045  17.5047  17.5048  17.7916  17.7918  17.7919  17.7920
    17.7998  17.7999  17.8004  17.8005  17.8031  17.8032  17.8036  17.8037
    17.9426  17.9427  17.9431  17.9433  18.1424  18.1425  18.1428  18.1429
    18.1744  18.1744  18.1748  18.1749  18.3090  18.3091  18.3095  18.3096
    19.1681  19.1681  19.1683  19.1683  19.1713  19.1713  19.1715  19.1716
    19.1838  19.1839  19.1841  19.1842  19.2073  19.2073  19.2074  19.2074
    19.2076  19.2077  19.2077  19.2078  19.2114  19.2115  19.2116  19.2117
    21.9148  21.9150  21.9154  21.9156  22.4592  22.4593  22.4598  22.4599
    22.4787  22.4790  22.4792  22.4794  23.1032  23.1033  23.1038  23.1039
    23.1242  23.1244  23.1245  23.1247  23.6977  23.6979  23.6984  23.6986
    27.5654  27.5655  27.5661  27.5662  27.5884  27.5886  27.5886  27.5887
    27.8122  27.8124  27.8125  27.8126  28.6737  28.6738  28.6739  28.6740
    28.9395  28.9396  28.9403  28.9404  28.9625  28.9626  28.9627  28.9628
    32.5032  32.5037

          k =-0.4988-0.5000-0.5000 ( 33064 PWs)   bands (ev):

   -64.9044 -64.9042 -64.9041 -64.9039 -64.9037 -64.9034 -64.9033 -64.9032
   -64.8731 -64.8729 -64.8728 -64.8726 -64.8725 -64.8724 -64.8723 -64.8722
   -64.8722 -64.8721 -64.8721 -64.8720 -64.8719 -64.8718 -64.8718 -64.8717
   -64.8716 -64.8715 -64.8714 -64.8713 -64.8713 -64.8712 -64.8711 -64.8709
   -30.7496 -30.7495 -30.7495 -30.7495 -30.7494 -30.7493 -30.7492 -30.7492
   -30.7492 -30.7491 -30.7490 -30.7490 -30.7490 -30.7489 -30.7489 -30.7489
   -30.7484 -30.7483 -30.7481 -30.7481 -30.7479 -30.7478 -30.7477 -30.7476
   -30.6275 -30.6274 -30.6274 -30.6273 -30.6272 -30.6272 -30.6271 -30.6271
   -30.5909 -30.5908 -30.5908 -30.5907 -30.5906 -30.5906 -30.5905 -30.5905
   -30.5905 -30.5905 -30.5905 -30.5904 -30.5904 -30.5904 -30.5904 -30.5903
   -30.5903 -30.5903 -30.5902 -30.5902 -30.5902 -30.5902 -30.5901 -30.5900
   -30.5375 -30.5374 -30.5374 -30.5374 -30.5372 -30.5372 -30.5372 -30.5372
   -30.5369 -30.5369 -30.5369 -30.5369 -30.5367 -30.5367 -30.5366 -30.5366
   -30.5358 -30.5358 -30.5358 -30.5358 -30.5356 -30.5356 -30.5356 -30.5356
   -30.4676 -30.4675 -30.4674 -30.4674 -30.4671 -30.4671 -30.4669 -30.4668
   -30.4665 -30.4665 -30.4664 -30.4664 -30.4664 -30.4663 -30.4663 -30.4662
    13.8800  13.8804  13.8806  13.8808  13.8808  13.8811  13.8813  13.8815
    14.7285  14.7286  14.7287  14.7288  14.7288  14.7289  14.7290  14.7290
    14.7298  14.7299  14.7299  14.7299  14.7300  14.7300  14.7301  14.7301
    14.7304  14.7304  14.7305  14.7305  14.7306  14.7306  14.7306  14.7307
    15.4827  15.4828  15.4830  15.4830  15.4831  15.4831  15.4832  15.4834
    15.4835  15.4835  15.4836  15.4838  15.4838  15.4839  15.4839  15.4839
    15.4848  15.4851  15.4852  15.4852  15.4854  15.4854  15.4856  15.4858
    16.4116  16.4118  16.4118  16.4118  16.4118  16.4119  16.4119  16.4119
    16.7091  16.7092  16.7092  16.7093  16.7094  16.7094  16.7094  16.7096
    16.7290  16.7290  16.7291  16.7292  16.7292  16.7293  16.7293  16.7295
    16.8964  16.8965  16.8966  16.8967  16.8967  16.8968  16.8968  16.8970
    16.9075  16.9076  16.9076  16.9077  16.9078  16.9078  16.9079  16.9079
    16.9079  16.9080  16.9080  16.9081  16.9081  16.9082  16.9082  16.9084
    17.6167  17.6168  17.6169  17.6169  17.6169  17.6170  17.6170  17.6171
    17.6171  17.6172  17.6173  17.6173  17.6173  17.6174  17.6174  17.6175
    17.6265  17.6265  17.6266  17.6267  17.6269  17.6270  17.6271  17.6272
    18.1205  18.1207  18.1207  18.1208  18.1209  18.1211  18.1211  18.1212
    18.1271  18.1272  18.1272  18.1273  18.1276  18.1277  18.1278  18.1279
    19.2094  19.2094  19.2095  19.2096  19.2096  19.2097  19.2098  19.2098
    19.2130  19.2131  19.2131  19.2131  19.2132  19.2132  19.2132  19.2133
    19.2133  19.2134  19.2134  19.2134  19.2134  19.2135  19.2135  19.2135
    22.7682  22.7683  22.7686  22.7687  22.7688  22.7689  22.7692  22.7693
    22.7888  22.7889  22.7890  22.7891  22.7891  22.7892  22.7893  22.7893
    22.7894  22.7895  22.7896  22.7896  22.7897  22.7897  22.7898  22.7899
    28.2106  28.2107  28.2108  28.2108  28.2109  28.2109  28.2111  28.2112
    28.2112  28.2113  28.2114  28.2115  28.2116  28.2116  28.2117  28.2117
    28.2340  28.2342  28.2342  28.2343  28.2344  28.2344  28.2345  28.2346
    33.5314  33.5335

     the Fermi energy is    19.2336 ev

!    total energy              =  -16384.95890141 Ry
     Harris-Foulkes estimate   =  -16384.95889040 Ry
     estimated scf accuracy    <       0.00000050 Ry

     total all-electron energy =   -322945.812609 Ry

     The total energy is the sum of the following terms:

     one-electron contribution =   -2492.80145116 Ry
     hartree contribution      =    1663.06971153 Ry
     xc contribution           =    -986.46843593 Ry
     ewald contribution        =   -6401.36857235 Ry
     one-center paw contrib.   =   -8167.42385224 Ry
     smearing contrib. (-TS)   =       0.03369874 Ry

     convergence has been achieved in  11 iterations

     Forces acting on atoms (cartesian axes, Ry/au):

     atom    1 type  1   force =     0.00000000    0.00000000    0.00000000
     atom    2 type  1   force =     0.00000516    0.00007462    0.00000000
     atom    3 type  1   force =     0.00000516    0.00000000    0.00007462
     atom    4 type  1   force =     0.00000000    0.00005402    0.00005402
     atom    5 type  1   force =     0.00000000    0.00000000   -0.00000000
     atom    6 type  1   force =     0.00006014    0.00010139   -0.00000000
     atom    7 type  1   force =     0.00000516    0.00000000   -0.00007462
     atom    8 type  1   force =     0.00000000    0.00005402   -0.00005402
     atom    9 type  1   force =     0.00000000    0.00000000    0.00000000
     atom   10 type  1   force =     0.00000516   -0.00007462   -0.00000000
     atom   11 type  1   force =     0.00006014    0.00000000    0.00010139
     atom   12 type  1   force =     0.00000000   -0.00005402    0.00005402
     atom   13 type  1   force =     0.00000000    0.00000000    0.00000000
     atom   14 type  1   force =     0.00006014   -0.00010139    0.00000000
     atom   15 type  1   force =     0.00006014    0.00000000   -0.00010139
     atom   16 type  1   force =     0.00000000   -0.00005402   -0.00005402
     atom   17 type  1   force =     0.00000000    0.00000000   -0.00000000
     atom   18 type  1   force =    -0.00000516    0.00007462    0.00000000
     atom   19 type  1   force =    -0.00000516    0.00000000    0.00007462
     atom   20 type  1   force =     0.00000000    0.00013535    0.00013535
     atom   21 type  1   force =     0.00000000    0.00000000    0.00000000
     atom   22 type  1   force =    -0.00006014    0.00010139    0.00000000
     atom   23 type  1   force =    -0.00000516    0.00000000   -0.00007462
     atom   24 type  1   force =     0.00000000    0.00013535   -0.00013535
     atom   25 type  1   force =     0.00000000    0.00000000    0.00000000
     atom   26 type  1   force =    -0.00000516   -0.00007462    0.00000000
     atom   27 type  1   force =    -0.00006014    0.00000000    0.00010139
     atom   28 type  1   force =     0.00000000   -0.00013535    0.00013535
     atom   29 type  1   force =     0.00000000    0.00000000    0.00000000
     atom   30 type  1   force =    -0.00006014   -0.00010139   -0.00000000
     atom   31 type  1   force =    -0.00006014    0.00000000   -0.00010139
     atom   32 type  1   force =     0.00000000   -0.00013535   -0.00013535

     Total force =     0.000571     Total SCF correction =     0.004883
     SCF correction compared to forces is large: reduce conv_thr to get better values


     Computing stress (Cartesian axis) and pressure

          total   stress  (Ry/bohr**3)                   (kbar)     P=   -3.20
  -0.00003034   0.00000000   0.00000000         -4.46      0.00      0.00
   0.00000000  -0.00001742   0.00000000          0.00     -2.56      0.00
   0.00000000   0.00000000  -0.00001742          0.00      0.00     -2.56


     Writing output data file ndyXDwerBXnewmdc.save/
 
     init_run     :     40.83s CPU     44.43s WALL (       1 calls)
     electrons    :   1937.05s CPU   2041.85s WALL (       1 calls)
     forces       :     18.68s CPU     19.39s WALL (       1 calls)
     stress       :    183.44s CPU    184.29s WALL (       1 calls)

     Called by init_run:
     wfcinit      :     40.03s CPU     43.55s WALL (       1 calls)
     potinit      :      0.38s CPU      0.39s WALL (       1 calls)
     hinit0       :      0.25s CPU      0.27s WALL (       1 calls)

     Called by electrons:
     c_bands      :   1759.56s CPU   1845.35s WALL (      12 calls)
     sum_band     :    173.42s CPU    192.04s WALL (      12 calls)
     v_of_rho     :      0.35s CPU      0.37s WALL (      12 calls)
     newd         :      0.82s CPU      1.08s WALL (      12 calls)
     PAW_pot      :      3.05s CPU      3.12s WALL (      12 calls)
     mix_rho      :      0.09s CPU      0.10s WALL (      12 calls)

     Called by c_bands:
     init_us_2    :     10.75s CPU     10.81s WALL (    2025 calls)
     cegterg      :   1700.78s CPU   1786.20s WALL (     900 calls)

     Called by sum_band:
     sum_band:bec :      1.33s CPU      1.35s WALL (     900 calls)
     addusdens    :      0.91s CPU      1.22s WALL (      12 calls)

     Called by *egterg:
     h_psi        :    701.48s CPU    778.55s WALL (    2567 calls)
     s_psi        :     85.58s CPU     85.87s WALL (    2567 calls)
     g_psi        :      2.49s CPU      2.50s WALL (    1592 calls)
     cdiaghg      :    641.33s CPU    643.50s WALL (    2417 calls)

     Called by h_psi:
     h_psi:pot    :    694.66s CPU    771.46s WALL (    2567 calls)
     h_psi:calbec :     88.94s CPU     93.36s WALL (    2567 calls)
     vloc_psi     :    520.30s CPU    592.18s WALL (    2567 calls)
     add_vuspsi   :     85.39s CPU     85.91s WALL (    2567 calls)

     General routines
     calbec       :    144.79s CPU    151.86s WALL (    3842 calls)
     fft          :      0.38s CPU      0.41s WALL (     181 calls)
     ffts         :      0.03s CPU      0.03s WALL (      24 calls)
     fftw         :    603.52s CPU    686.78s WALL ( 1706562 calls)
     interpolate  :      0.04s CPU      0.05s WALL (      12 calls)
 
     Parallel routines
     fft_scatt_xy :     49.19s CPU     55.10s WALL ( 1706767 calls)
     fft_scatt_yz :    395.96s CPU    454.72s WALL ( 1706767 calls)
 
     PWSCF        : 36m26.91s CPU    39m47.45s WALL

 
   This run was terminated on:  11:57:59  11Nov2020            

=------------------------------------------------------------------------------=
   JOB DONE.
=------------------------------------------------------------------------------=
