--------------------------------------------------------------------------
WARNING: No preset parameters were found for the device that Open MPI
detected:

  Local host:            bear-pg0206u14b
  Device name:           mlx5_0
  Device vendor ID:      0x02c9
  Device vendor part ID: 4123

Default device parameters will be used, which may result in lower
performance.  You can edit any of the files specified by the
btl_openib_device_param_files MCA parameter to set values for your
device.

NOTE: You can turn off this warning by setting the MCA parameter
      btl_openib_warn_no_device_params_found to 0.
--------------------------------------------------------------------------
--------------------------------------------------------------------------
WARNING: There was an error initializing an OpenFabrics device.

  Local host:   bear-pg0206u14b
  Local device: mlx5_0
--------------------------------------------------------------------------

     Program PWSCF v.6.3 starts on 11Nov2020 at 15:19:33 

     This program is part of the open-source Quantum ESPRESSO suite
     for quantum simulation of materials; please cite
         "P. Giannozzi et al., J. Phys.:Condens. Matter 21 395502 (2009);
         "P. Giannozzi et al., J. Phys.:Condens. Matter 29 465901 (2017);
          URL http://www.quantum-espresso.org", 
     in publications or presentations arising from this work. More details at
     http://www.quantum-espresso.org/quote

     Parallel version (MPI & OpenMP), running on      20 processor cores
     Number of MPI processes:                20
     Threads/MPI process:                     1

     MPI processes distributed on     1 nodes
     R & G space division:  proc/nbgrp/npool/nimage =      20
     Reading input from wd/ec/ec_2_004.in
Warning: card &IONS ignored
Warning: card ION_DYNAMICS = 'BFGS', ignored
Warning: card / ignored
Warning: card &CELL ignored
Warning: card CELL_DYNAMICS = 'BFGS', ignored
Warning: card CELL_FACTOR = 2.0, ignored
Warning: card PRESS = 0.0, ignored
Warning: card / ignored

     Current dimensions of program PWSCF are:
     Max number of different atomic species (ntypx) = 10
     Max number of k-points (npk) =  40000
     Max angular momentum in pseudopotentials (lmaxx) =  3
               file Pd.pbe-spn-kjpaw_psl.1.0.0.UPF: wavefunction(s)  4S 5S 4D renormalized

     Subspace diagonalization in iterative solution of the eigenvalue problem:
     a serial algorithm will be used

 
     Parallelization info
     --------------------
     sticks:   dense  smooth     PW     G-vecs:    dense   smooth      PW
     Min         377     249     67                24653    13234    1875
     Max         378     251     68                24658    13236    1880
     Sum        7551    4985   1353               493091   264699   37545
 


     bravais-lattice index     =            0
     lattice parameter (alat)  =      14.8394  a.u.
     unit-cell volume          =    3275.9340 (a.u.)^3
     number of atoms/cell      =           32
     number of atomic types    =            1
     number of electrons       =       576.00
     number of Kohn-Sham states=          346
     kinetic-energy cutoff     =      71.0000  Ry
     charge density cutoff     =     430.0000  Ry
     convergence threshold     =      1.0E-06
     mixing beta               =       0.1000
     number of iterations used =           10  plain     mixing
     Exchange-correlation      = SLA PW PBX PBC ( 1  4  3  4 0 0)

     celldm(1)=  14.839420  celldm(2)=   0.000000  celldm(3)=   0.000000
     celldm(4)=   0.000000  celldm(5)=   0.000000  celldm(6)=   0.000000

     crystal axes: (cart. coord. in units of alat)
               a(1) = (   1.000000   0.000000   0.000000 )  
               a(2) = (   0.000000   1.002500   0.000000 )  
               a(3) = (   0.000000   0.000000   1.000000 )  

     reciprocal axes: (cart. coord. in units 2 pi/alat)
               b(1) = (  1.000000  0.000000  0.000000 )  
               b(2) = (  0.000000  0.997506  0.000000 )  
               b(3) = (  0.000000  0.000000  1.000000 )  


     PseudoPot. # 1 for Pd read from file:
     /rds/homes/b/bxp912/pp/Pd.pbe-spn-kjpaw_psl.1.0.0.UPF
     MD5 check sum: 790f2ebce206edfd9790dcb9844eca51
     Pseudo is Projector augmented-wave + core cor, Zval = 18.0
     Generated using "atomic" code by A. Dal Corso v.6.3
     Shape of augmentation charge: PSQ
     Using radial grid of 1235 points,  6 beta functions with: 
                l(1) =   0
                l(2) =   0
                l(3) =   1
                l(4) =   1
                l(5) =   2
                l(6) =   2
     Q(r) pseudized with 0 coefficients 


     atomic species   valence    mass     pseudopotential
        Pd            18.00   106.42000     Pd( 1.00)

     16 Sym. Ops., with inversion, found



   Cartesian axes

     site n.     atom                  positions (alat units)
         1           Pd  tau(   1) = (   0.0000000   0.0000000   0.0000000  )
         2           Pd  tau(   2) = (   0.2500045   0.2506295   0.0000000  )
         3           Pd  tau(   3) = (   0.2500045   0.0000000   0.2500040  )
         4           Pd  tau(   4) = (   0.0000000   0.2506295   0.2500040  )
         5           Pd  tau(   5) = (   0.0000000   0.0000000   0.4999990  )
         6           Pd  tau(   6) = (   0.2500116   0.2506366   0.4999990  )
         7           Pd  tau(   7) = (   0.2500045   0.0000000   0.7499950  )
         8           Pd  tau(   8) = (   0.0000000   0.2506295   0.7499950  )
         9           Pd  tau(   9) = (   0.0000000   0.5012498   0.0000000  )
        10           Pd  tau(  10) = (   0.2500045   0.7518702   0.0000000  )
        11           Pd  tau(  11) = (   0.2500116   0.5012498   0.2500109  )
        12           Pd  tau(  12) = (   0.0000000   0.7518702   0.2500040  )
        13           Pd  tau(  13) = (   0.0000000   0.5012498   0.4999990  )
        14           Pd  tau(  14) = (   0.2500116   0.7518631   0.4999990  )
        15           Pd  tau(  15) = (   0.2500116   0.5012498   0.7499881  )
        16           Pd  tau(  16) = (   0.0000000   0.7518702   0.7499950  )
        17           Pd  tau(  17) = (   0.4999998   0.0000000   0.0000000  )
        18           Pd  tau(  18) = (   0.7499952   0.2506295   0.0000000  )
        19           Pd  tau(  19) = (   0.7499952   0.0000000   0.2500040  )
        20           Pd  tau(  20) = (   0.4999998   0.2506366   0.2500109  )
        21           Pd  tau(  21) = (   0.4999998   0.0000000   0.4999990  )
        22           Pd  tau(  22) = (   0.7499881   0.2506366   0.4999990  )
        23           Pd  tau(  23) = (   0.7499952   0.0000000   0.7499950  )
        24           Pd  tau(  24) = (   0.4999998   0.2506366   0.7499881  )
        25           Pd  tau(  25) = (   0.4999998   0.5012498   0.0000000  )
        26           Pd  tau(  26) = (   0.7499952   0.7518702   0.0000000  )
        27           Pd  tau(  27) = (   0.7499881   0.5012498   0.2500109  )
        28           Pd  tau(  28) = (   0.4999998   0.7518631   0.2500109  )
        29           Pd  tau(  29) = (   0.4999998   0.5012498   0.4999990  )
        30           Pd  tau(  30) = (   0.7499881   0.7518631   0.4999990  )
        31           Pd  tau(  31) = (   0.7499881   0.5012498   0.7499881  )
        32           Pd  tau(  32) = (   0.4999998   0.7518631   0.7499881  )

     number of k points=    75  Marzari-Vanderbilt smearing, width (Ry)=  0.0400
                       cart. coord. in units 2pi/alat
        k(    1) = (   0.0555556   0.0554170   0.0555556), wk =   0.0219479
        k(    2) = (   0.0555556   0.0554170   0.1666667), wk =   0.0438957
        k(    3) = (   0.0555556   0.0554170   0.2777778), wk =   0.0438957
        k(    4) = (   0.0555556   0.0554170   0.3888889), wk =   0.0438957
        k(    5) = (   0.0555556   0.0554170  -0.5000000), wk =   0.0219479
        k(    6) = (   0.0555556   0.1662510   0.0555556), wk =   0.0219479
        k(    7) = (   0.0555556   0.1662510   0.1666667), wk =   0.0438957
        k(    8) = (   0.0555556   0.1662510   0.2777778), wk =   0.0438957
        k(    9) = (   0.0555556   0.1662510   0.3888889), wk =   0.0438957
        k(   10) = (   0.0555556   0.1662510  -0.5000000), wk =   0.0219479
        k(   11) = (   0.0555556   0.2770851   0.0555556), wk =   0.0219479
        k(   12) = (   0.0555556   0.2770851   0.1666667), wk =   0.0438957
        k(   13) = (   0.0555556   0.2770851   0.2777778), wk =   0.0438957
        k(   14) = (   0.0555556   0.2770851   0.3888889), wk =   0.0438957
        k(   15) = (   0.0555556   0.2770851  -0.5000000), wk =   0.0219479
        k(   16) = (   0.0555556   0.3879191   0.0555556), wk =   0.0219479
        k(   17) = (   0.0555556   0.3879191   0.1666667), wk =   0.0438957
        k(   18) = (   0.0555556   0.3879191   0.2777778), wk =   0.0438957
        k(   19) = (   0.0555556   0.3879191   0.3888889), wk =   0.0438957
        k(   20) = (   0.0555556   0.3879191  -0.5000000), wk =   0.0219479
        k(   21) = (   0.0555556  -0.4987531   0.0555556), wk =   0.0109739
        k(   22) = (   0.0555556  -0.4987531   0.1666667), wk =   0.0219479
        k(   23) = (   0.0555556  -0.4987531   0.2777778), wk =   0.0219479
        k(   24) = (   0.0555556  -0.4987531   0.3888889), wk =   0.0219479
        k(   25) = (   0.0555556  -0.4987531  -0.5000000), wk =   0.0109739
        k(   26) = (   0.1666667   0.0554170   0.1666667), wk =   0.0219479
        k(   27) = (   0.1666667   0.0554170   0.2777778), wk =   0.0438957
        k(   28) = (   0.1666667   0.0554170   0.3888889), wk =   0.0438957
        k(   29) = (   0.1666667   0.0554170  -0.5000000), wk =   0.0219479
        k(   30) = (   0.1666667   0.1662510   0.1666667), wk =   0.0219479
        k(   31) = (   0.1666667   0.1662510   0.2777778), wk =   0.0438957
        k(   32) = (   0.1666667   0.1662510   0.3888889), wk =   0.0438957
        k(   33) = (   0.1666667   0.1662510  -0.5000000), wk =   0.0219479
        k(   34) = (   0.1666667   0.2770851   0.1666667), wk =   0.0219479
        k(   35) = (   0.1666667   0.2770851   0.2777778), wk =   0.0438957
        k(   36) = (   0.1666667   0.2770851   0.3888889), wk =   0.0438957
        k(   37) = (   0.1666667   0.2770851  -0.5000000), wk =   0.0219479
        k(   38) = (   0.1666667   0.3879191   0.1666667), wk =   0.0219479
        k(   39) = (   0.1666667   0.3879191   0.2777778), wk =   0.0438957
        k(   40) = (   0.1666667   0.3879191   0.3888889), wk =   0.0438957
        k(   41) = (   0.1666667   0.3879191  -0.5000000), wk =   0.0219479
        k(   42) = (   0.1666667  -0.4987531   0.1666667), wk =   0.0109739
        k(   43) = (   0.1666667  -0.4987531   0.2777778), wk =   0.0219479
        k(   44) = (   0.1666667  -0.4987531   0.3888889), wk =   0.0219479
        k(   45) = (   0.1666667  -0.4987531  -0.5000000), wk =   0.0109739
        k(   46) = (   0.2777778   0.0554170   0.2777778), wk =   0.0219479
        k(   47) = (   0.2777778   0.0554170   0.3888889), wk =   0.0438957
        k(   48) = (   0.2777778   0.0554170  -0.5000000), wk =   0.0219479
        k(   49) = (   0.2777778   0.1662510   0.2777778), wk =   0.0219479
        k(   50) = (   0.2777778   0.1662510   0.3888889), wk =   0.0438957
        k(   51) = (   0.2777778   0.1662510  -0.5000000), wk =   0.0219479
        k(   52) = (   0.2777778   0.2770851   0.2777778), wk =   0.0219479
        k(   53) = (   0.2777778   0.2770851   0.3888889), wk =   0.0438957
        k(   54) = (   0.2777778   0.2770851  -0.5000000), wk =   0.0219479
        k(   55) = (   0.2777778   0.3879191   0.2777778), wk =   0.0219479
        k(   56) = (   0.2777778   0.3879191   0.3888889), wk =   0.0438957
        k(   57) = (   0.2777778   0.3879191  -0.5000000), wk =   0.0219479
        k(   58) = (   0.2777778  -0.4987531   0.2777778), wk =   0.0109739
        k(   59) = (   0.2777778  -0.4987531   0.3888889), wk =   0.0219479
        k(   60) = (   0.2777778  -0.4987531  -0.5000000), wk =   0.0109739
        k(   61) = (   0.3888889   0.0554170   0.3888889), wk =   0.0219479
        k(   62) = (   0.3888889   0.0554170  -0.5000000), wk =   0.0219479
        k(   63) = (   0.3888889   0.1662510   0.3888889), wk =   0.0219479
        k(   64) = (   0.3888889   0.1662510  -0.5000000), wk =   0.0219479
        k(   65) = (   0.3888889   0.2770851   0.3888889), wk =   0.0219479
        k(   66) = (   0.3888889   0.2770851  -0.5000000), wk =   0.0219479
        k(   67) = (   0.3888889   0.3879191   0.3888889), wk =   0.0219479
        k(   68) = (   0.3888889   0.3879191  -0.5000000), wk =   0.0219479
        k(   69) = (   0.3888889  -0.4987531   0.3888889), wk =   0.0109739
        k(   70) = (   0.3888889  -0.4987531  -0.5000000), wk =   0.0109739
        k(   71) = (  -0.5000000   0.0554170  -0.5000000), wk =   0.0054870
        k(   72) = (  -0.5000000   0.1662510  -0.5000000), wk =   0.0054870
        k(   73) = (  -0.5000000   0.2770851  -0.5000000), wk =   0.0054870
        k(   74) = (  -0.5000000   0.3879191  -0.5000000), wk =   0.0054870
        k(   75) = (  -0.5000000  -0.4987531  -0.5000000), wk =   0.0027435

     Dense  grid:   493091 G-vectors     FFT dimensions: ( 100, 100, 100)

     Smooth grid:   264699 G-vectors     FFT dimensions: (  80,  80,  80)

     Estimated max dynamical RAM per process >     892.74 MB

     Estimated total dynamical RAM >      17.44 GB

     Check: negative/imaginary core charge=   -0.000002    0.000000

     Initial potential from superposition of free atoms

     starting charge  575.98776, renormalised to  576.00000
     Starting wfcs are  320 randomized atomic wfcs +   26 random wfcs
     Checking if some PAW data can be deallocated... 

     total cpu time spent up to now is       45.6 secs

     Self-consistent Calculation

     iteration #  1     ecut=    71.00 Ry     beta= 0.10
     Davidson diagonalization with overlap
     ethr =  1.00E-02,  avg # of iterations =  3.1

     Threshold (ethr) on eigenvalues was too large:
     Diagonalizing with lowered threshold

     Davidson diagonalization with overlap
     ethr =  8.45E-05,  avg # of iterations =  3.0

     total cpu time spent up to now is      491.9 secs

     total energy              =  -16385.02171147 Ry
     Harris-Foulkes estimate   =  -16385.09023294 Ry
     estimated scf accuracy    <       0.48059442 Ry

     iteration #  2     ecut=    71.00 Ry     beta= 0.10
     Davidson diagonalization with overlap
     ethr =  8.34E-05,  avg # of iterations =  1.1

     total cpu time spent up to now is      631.8 secs

     total energy              =  -16384.93075433 Ry
     Harris-Foulkes estimate   =  -16385.02958170 Ry
     estimated scf accuracy    <       0.26171416 Ry

     iteration #  3     ecut=    71.00 Ry     beta= 0.10
     Davidson diagonalization with overlap
     ethr =  4.54E-05,  avg # of iterations =  2.1

     total cpu time spent up to now is      820.0 secs

     total energy              =  -16384.96153081 Ry
     Harris-Foulkes estimate   =  -16384.96857709 Ry
     estimated scf accuracy    <       0.09164371 Ry

     iteration #  4     ecut=    71.00 Ry     beta= 0.10
     Davidson diagonalization with overlap
     ethr =  1.59E-05,  avg # of iterations =  1.4

     total cpu time spent up to now is      966.7 secs

     total energy              =  -16384.96258796 Ry
     Harris-Foulkes estimate   =  -16384.96497441 Ry
     estimated scf accuracy    <       0.02170984 Ry

     iteration #  5     ecut=    71.00 Ry     beta= 0.10
     Davidson diagonalization with overlap
     ethr =  3.77E-06,  avg # of iterations =  1.4

     total cpu time spent up to now is     1114.6 secs

     total energy              =  -16384.95776815 Ry
     Harris-Foulkes estimate   =  -16384.96277680 Ry
     estimated scf accuracy    <       0.01438118 Ry

     iteration #  6     ecut=    71.00 Ry     beta= 0.10
     Davidson diagonalization with overlap
     ethr =  2.50E-06,  avg # of iterations =  1.1

     total cpu time spent up to now is     1254.7 secs

     total energy              =  -16384.95878877 Ry
     Harris-Foulkes estimate   =  -16384.95887279 Ry
     estimated scf accuracy    <       0.00104968 Ry

     iteration #  7     ecut=    71.00 Ry     beta= 0.10
     Davidson diagonalization with overlap
     ethr =  1.82E-07,  avg # of iterations =  3.2

     total cpu time spent up to now is     1471.3 secs

     total energy              =  -16384.95888620 Ry
     Harris-Foulkes estimate   =  -16384.95891686 Ry
     estimated scf accuracy    <       0.00014210 Ry

     iteration #  8     ecut=    71.00 Ry     beta= 0.10
     Davidson diagonalization with overlap
     ethr =  2.47E-08,  avg # of iterations =  1.0

     total cpu time spent up to now is     1607.7 secs

     total energy              =  -16384.95888395 Ry
     Harris-Foulkes estimate   =  -16384.95889010 Ry
     estimated scf accuracy    <       0.00005535 Ry

     iteration #  9     ecut=    71.00 Ry     beta= 0.10
     Davidson diagonalization with overlap
     ethr =  9.61E-09,  avg # of iterations =  1.0

     total cpu time spent up to now is     1743.2 secs

     total energy              =  -16384.95888298 Ry
     Harris-Foulkes estimate   =  -16384.95888509 Ry
     estimated scf accuracy    <       0.00003663 Ry

     iteration # 10     ecut=    71.00 Ry     beta= 0.10
     Davidson diagonalization with overlap
     ethr =  6.36E-09,  avg # of iterations =  2.0

     total cpu time spent up to now is     1935.7 secs

     total energy              =  -16384.95889028 Ry
     Harris-Foulkes estimate   =  -16384.95888742 Ry
     estimated scf accuracy    <       0.00000115 Ry

     iteration # 11     ecut=    71.00 Ry     beta= 0.10
     Davidson diagonalization with overlap
     ethr =  1.99E-10,  avg # of iterations =  2.0

     total cpu time spent up to now is     2106.4 secs

     End of self-consistent calculation

          k = 0.0556 0.0554 0.0556 ( 33063 PWs)   bands (ev):

   -64.9275 -64.8989 -64.8987 -64.8986 -64.8935 -64.8932 -64.8931 -64.8831
   -64.8830 -64.8830 -64.8808 -64.8804 -64.8803 -64.8801 -64.8801 -64.8800
   -64.8800 -64.8798 -64.8797 -64.8792 -64.8775 -64.8774 -64.8774 -64.8653
   -64.8647 -64.8646 -64.8645 -64.8643 -64.8642 -64.8641 -64.8640 -64.8637
   -30.8104 -30.8104 -30.8103 -30.8085 -30.7903 -30.7903 -30.7894 -30.7140
   -30.7123 -30.7123 -30.7098 -30.7097 -30.7081 -30.7080 -30.7079 -30.7079
   -30.7020 -30.7002 -30.7002 -30.6965 -30.6965 -30.6953 -30.6953 -30.6949
   -30.6949 -30.6782 -30.6781 -30.6767 -30.6767 -30.6764 -30.6764 -30.6366
   -30.6366 -30.6359 -30.6124 -30.6124 -30.6117 -30.6063 -30.6063 -30.6057
   -30.5972 -30.5971 -30.5969 -30.5969 -30.5963 -30.5963 -30.5822 -30.5822
   -30.5821 -30.5819 -30.5815 -30.5814 -30.5813 -30.5812 -30.5811 -30.5802
   -30.5802 -30.5794 -30.5788 -30.5787 -30.5778 -30.5169 -30.5169 -30.5155
   -30.5155 -30.5154 -30.5153 -30.5045 -30.5045 -30.5033 -30.5033 -30.5033
   -30.5032 -30.5005 -30.5005 -30.4995 -30.4966 -30.4960 -30.4959 -30.4954
   -30.4954 -30.4953 -30.4950 -30.4947 -30.4946 -30.4944 -30.4943 -30.4943
   -30.4939 -30.4930 -30.4884 -30.4883 -30.4875 -30.4428 -30.4405 -30.4404
    12.2481  14.0063  14.0063  14.0064  14.0734  14.0871  14.0871  14.0871
    14.2689  14.2774  14.2774  14.2804  14.2805  14.2805  14.4643  14.4726
    14.4727  15.0106  15.0106  15.0190  15.0191  15.0192  15.0193  15.1637
    15.1721  15.1722  15.3172  15.3177  15.3178  15.3484  15.3586  15.3587
    15.3992  15.3992  15.4005  15.4006  15.4008  15.4008  15.4008  15.4031
    15.4032  15.7396  15.7396  15.7448  15.7448  15.7465  15.7466  15.8450
    15.8532  15.8533  15.8665  15.8665  15.8749  15.8750  15.8760  15.8761
    15.9228  15.9324  15.9324  16.0935  16.0935  16.0994  16.0994  16.1018
    16.1019  16.2019  16.2020  16.2067  16.2068  16.2070  16.2071  16.2073
    16.2106  16.2106  16.3150  16.3150  16.3163  16.3688  16.3812  16.3812
    16.3895  16.4089  16.4089  16.4109  16.4214  16.4227  16.4465  16.4553
    17.2339  17.2464  17.2464  17.3010  17.3010  17.3064  17.3733  17.3734
    17.3741  17.3741  17.3784  17.3784  17.3799  17.3800  17.3840  17.4201
    17.4338  17.4339  17.5289  17.5289  17.5381  17.6494  17.6495  17.6520
    17.7721  17.7722  17.7806  17.8298  17.8299  17.8373  17.9040  17.9041
    17.9062  17.9063  17.9065  17.9066  17.9242  17.9243  17.9253  17.9602
    17.9773  17.9774  17.9777  17.9778  17.9837  17.9841  17.9841  18.0863
    18.0864  18.0928  18.4708  18.4709  18.4812  18.5727  18.5727  18.5816
    18.9554  18.9554  18.9623  19.0805  19.0805  19.0817  19.1029  19.1125
    19.1229  19.1304  19.1304  19.3556  19.3569  19.3569  19.4066  19.4066
    19.4072  19.4072  19.4133  19.4157  19.4157  19.4196  19.4196  20.0849
    20.3897  20.3897  20.3899  20.9025  20.9025  20.9166  21.4104  21.4104
    21.4113  21.4113  21.4278  21.4278  21.9384  21.9385  21.9578  22.5001
    22.5472  22.5472  26.2691  26.2691  26.2695  26.4261  27.4021  27.4021
    27.4237  27.4237  27.4455  27.4455  28.0938  28.0938  28.1142  28.1142
    28.1374  28.1376  29.5091  29.5092  29.5182  29.5182  29.5394  29.5394
    29.6395  29.7054  29.7054  30.6198  30.6728  30.6729  30.6805  30.6805
    30.6966  30.6967

          k = 0.0556 0.0554 0.1667 ( 33065 PWs)   bands (ev):

   -64.9266 -64.9041 -64.8984 -64.8981 -64.8930 -64.8927 -64.8877 -64.8860
   -64.8859 -64.8830 -64.8826 -64.8825 -64.8809 -64.8807 -64.8800 -64.8799
   -64.8795 -64.8792 -64.8774 -64.8771 -64.8770 -64.8750 -64.8749 -64.8654
   -64.8653 -64.8649 -64.8648 -64.8647 -64.8646 -64.8645 -64.8644 -64.8637
   -30.8077 -30.8060 -30.8059 -30.8028 -30.7871 -30.7862 -30.7851 -30.7239
   -30.7188 -30.7186 -30.7158 -30.7148 -30.7143 -30.7133 -30.7132 -30.7127
   -30.7107 -30.7030 -30.7011 -30.7000 -30.6990 -30.6952 -30.6938 -30.6919
   -30.6900 -30.6808 -30.6796 -30.6748 -30.6731 -30.6662 -30.6587 -30.6585
   -30.6415 -30.6406 -30.6276 -30.6267 -30.6125 -30.6120 -30.6118 -30.6110
   -30.6003 -30.5865 -30.5863 -30.5842 -30.5832 -30.5816 -30.5815 -30.5811
   -30.5808 -30.5795 -30.5793 -30.5774 -30.5766 -30.5762 -30.5760 -30.5752
   -30.5751 -30.5746 -30.5723 -30.5673 -30.5667 -30.5291 -30.5275 -30.5182
   -30.5182 -30.5139 -30.5126 -30.5080 -30.5069 -30.5059 -30.5059 -30.5047
   -30.5038 -30.5018 -30.5009 -30.5004 -30.4999 -30.4997 -30.4990 -30.4961
   -30.4960 -30.4955 -30.4954 -30.4952 -30.4945 -30.4928 -30.4927 -30.4923
   -30.4918 -30.4913 -30.4885 -30.4838 -30.4830 -30.4492 -30.4426 -30.4419
    12.3215  13.9783  14.0407  14.0526  14.0527  14.1012  14.1285  14.1286
    14.1420  14.3083  14.3204  14.3224  14.3226  14.3286  14.5165  14.5245
    14.5420  14.9330  14.9334  14.9939  15.0458  15.0523  15.0538  15.0605
    15.0868  15.1678  15.1679  15.1900  15.1979  15.2074  15.2126  15.2132
    15.3593  15.3596  15.3706  15.3801  15.3881  15.3911  15.4232  15.4288
    15.4711  15.4731  15.5481  15.7307  15.7330  15.7425  15.7478  15.7877
    15.7934  15.7972  15.8032  15.8554  15.8645  15.9445  15.9504  15.9663
    16.0112  16.0137  16.0589  16.0599  16.0642  16.0681  16.0705  16.0981
    16.1043  16.1464  16.1498  16.1751  16.1776  16.3432  16.3504  16.3568
    16.3571  16.3673  16.3763  16.3777  16.3977  16.4008  16.4228  16.4232
    16.4328  16.4364  16.4501  16.4534  16.4660  16.4800  16.4859  16.4897
    17.0458  17.0525  17.1602  17.1708  17.1811  17.1891  17.2400  17.2402
    17.2580  17.3023  17.3262  17.3313  17.4460  17.4559  17.4605  17.4701
    17.4728  17.5086  17.5115  17.5179  17.5238  17.7279  17.7345  17.7526
    17.7552  17.7616  17.8224  17.8226  17.9006  17.9027  17.9099  17.9107
    17.9122  17.9159  17.9352  17.9843  17.9885  18.0022  18.0029  18.0260
    18.1188  18.1203  18.1257  18.1261  18.1615  18.1667  18.2167  18.2340
    18.2394  18.2698  18.3724  18.5165  18.5254  18.6435  18.6460  18.6523
    18.6754  18.6927  18.6993  18.9079  19.0198  19.0202  19.0433  19.0571
    19.0979  19.1028  19.1056  19.1236  19.1336  19.2875  19.3364  19.3366
    19.3475  19.3484  19.3540  19.4043  19.4060  19.4077  19.4098  20.0739
    20.4401  20.4516  20.5582  20.5582  20.7886  20.8740  20.9218  20.9368
    21.3880  21.3889  21.9199  21.9782  21.9967  22.1845  22.5175  22.5385
    22.7922  22.8377  26.2682  26.4280  26.4290  26.6860  26.7146  26.7232
    26.7289  26.7347  27.3063  27.3271  27.5348  27.5567  28.2178  28.2391
    28.7328  28.7743  29.5505  29.5742  29.6263  29.6911  29.6961  29.8007
    29.8472  29.8857  29.9231  30.0942  30.1302  30.1601  30.2376  30.2396
    30.6417  30.7544

          k = 0.0556 0.0554 0.2778 ( 33061 PWs)   bands (ev):

   -64.9247 -64.9093 -64.8974 -64.8971 -64.8921 -64.8918 -64.8889 -64.8887
   -64.8850 -64.8848 -64.8829 -64.8825 -64.8813 -64.8807 -64.8800 -64.8799
   -64.8792 -64.8791 -64.8776 -64.8743 -64.8741 -64.8727 -64.8726 -64.8671
   -64.8660 -64.8658 -64.8657 -64.8655 -64.8652 -64.8645 -64.8644 -64.8637
   -30.8007 -30.7976 -30.7976 -30.7930 -30.7808 -30.7801 -30.7754 -30.7410
   -30.7353 -30.7352 -30.7304 -30.7298 -30.7271 -30.7172 -30.7160 -30.7151
   -30.7139 -30.7050 -30.7045 -30.6958 -30.6949 -30.6942 -30.6941 -30.6923
   -30.6814 -30.6803 -30.6798 -30.6780 -30.6688 -30.6672 -30.6500 -30.6489
   -30.6421 -30.6413 -30.6413 -30.6410 -30.6261 -30.6250 -30.6234 -30.6224
   -30.5904 -30.5899 -30.5821 -30.5814 -30.5804 -30.5797 -30.5776 -30.5753
   -30.5725 -30.5698 -30.5697 -30.5671 -30.5667 -30.5665 -30.5660 -30.5651
   -30.5649 -30.5571 -30.5531 -30.5527 -30.5474 -30.5408 -30.5389 -30.5236
   -30.5236 -30.5174 -30.5164 -30.5157 -30.5149 -30.5120 -30.5111 -30.5111
   -30.5087 -30.5078 -30.5075 -30.5073 -30.5015 -30.5001 -30.4971 -30.4961
   -30.4954 -30.4954 -30.4952 -30.4947 -30.4946 -30.4922 -30.4919 -30.4916
   -30.4889 -30.4818 -30.4811 -30.4807 -30.4797 -30.4604 -30.4467 -30.4458
    12.4666  13.6282  14.1069  14.1429  14.1429  14.1706  14.2109  14.2110
    14.2370  14.3633  14.4060  14.4067  14.4200  14.4276  14.5103  14.6175
    14.6250  14.7855  14.7860  14.8284  14.8402  14.9179  14.9179  14.9695
    15.0749  15.0770  15.1119  15.1184  15.1341  15.1416  15.1435  15.1479
    15.2423  15.2489  15.2593  15.2609  15.3706  15.3739  15.4140  15.4221
    15.5349  15.5380  15.6745  15.6770  15.7102  15.7136  15.7260  15.7291
    15.7346  15.7450  15.7504  15.7756  15.7768  15.8860  15.8899  15.9585
    15.9593  16.0135  16.0155  16.0176  16.0871  16.0906  16.1050  16.1117
    16.1126  16.1172  16.1853  16.1941  16.1957  16.2863  16.3159  16.3224
    16.3278  16.3757  16.3761  16.3860  16.4751  16.5046  16.5168  16.5259
    16.5294  16.5496  16.6903  16.6937  16.7091  16.7589  16.8421  16.8462
    16.8976  16.9085  16.9161  16.9214  16.9882  17.0673  17.0737  17.0738
    17.0912  17.0979  17.4001  17.4143  17.4181  17.5119  17.5159  17.5782
    17.5814  17.5945  17.5961  17.6526  17.6544  17.6827  17.6874  17.7463
    17.7512  17.8588  17.8883  17.8897  17.8900  17.8931  17.9128  17.9148
    17.9205  17.9207  18.0148  18.1179  18.1689  18.1698  18.1846  18.1848
    18.1943  18.2775  18.2800  18.2824  18.3232  18.3238  18.3252  18.3277
    18.3718  18.3744  18.3990  18.4143  18.4177  18.4873  18.6620  18.6671
    18.7213  18.7332  18.7386  18.7768  18.8765  18.8770  18.9261  18.9262
    18.9329  19.0067  19.0136  19.0194  19.0294  19.1534  19.2045  19.2051
    19.2134  19.2148  19.2401  19.4032  19.4052  19.4080  19.4092  20.0139
    20.0226  20.2445  20.4623  20.4748  20.7796  20.7802  20.8153  21.1572
    21.3403  21.3412  21.5738  21.8767  22.6133  22.6331  23.1583  23.1803
    23.2810  23.3250  25.8319  25.8519  25.9620  26.0046  26.3902  26.4117
    26.4398  26.7435  26.7451  27.1484  27.7819  27.8059  28.4554  28.4784
    28.8015  29.2359  29.2515  29.3452  29.3473  29.5656  29.5992  29.6003
    29.6627  29.7240  29.7359  29.9044  29.9593  30.0121  30.1279  30.1444
    30.1744  30.1777

          k = 0.0556 0.0554 0.3889 ( 33070 PWs)   bands (ev):

   -64.9219 -64.9141 -64.8959 -64.8956 -64.8915 -64.8913 -64.8909 -64.8906
   -64.8872 -64.8870 -64.8827 -64.8817 -64.8807 -64.8800 -64.8799 -64.8792
   -64.8787 -64.8777 -64.8777 -64.8717 -64.8715 -64.8706 -64.8704 -64.8699
   -64.8674 -64.8672 -64.8670 -64.8667 -64.8653 -64.8645 -64.8644 -64.8637
   -30.7899 -30.7857 -30.7856 -30.7798 -30.7717 -30.7710 -30.7611 -30.7589
   -30.7534 -30.7533 -30.7461 -30.7456 -30.7456 -30.7198 -30.7170 -30.7162
   -30.7120 -30.7113 -30.7101 -30.7100 -30.7007 -30.7004 -30.6839 -30.6821
   -30.6761 -30.6749 -30.6661 -30.6643 -30.6608 -30.6608 -30.6594 -30.6593
   -30.6553 -30.6542 -30.6392 -30.6379 -30.6370 -30.6356 -30.6254 -30.6254
   -30.5996 -30.5992 -30.5812 -30.5804 -30.5794 -30.5780 -30.5691 -30.5665
   -30.5620 -30.5544 -30.5542 -30.5535 -30.5533 -30.5530 -30.5528 -30.5517
   -30.5516 -30.5516 -30.5494 -30.5404 -30.5400 -30.5397 -30.5314 -30.5314
   -30.5283 -30.5281 -30.5275 -30.5275 -30.5260 -30.5205 -30.5194 -30.5192
   -30.5187 -30.5186 -30.5115 -30.5030 -30.5024 -30.4996 -30.4980 -30.4961
   -30.4954 -30.4953 -30.4946 -30.4940 -30.4937 -30.4910 -30.4896 -30.4894
   -30.4893 -30.4821 -30.4817 -30.4762 -30.4700 -30.4690 -30.4528 -30.4518
    12.6793  13.2757  14.1994  14.2719  14.2721  14.2808  14.3331  14.3332
    14.3705  14.4206  14.4447  14.5310  14.5324  14.5603  14.5670  14.6092
    14.6096  14.6185  14.6796  14.6900  14.6900  14.7419  14.7599  14.7665
    14.9011  14.9043  14.9078  14.9116  15.1068  15.1106  15.1983  15.2023
    15.2518  15.2581  15.3196  15.3244  15.3412  15.3436  15.4764  15.4823
    15.5362  15.5376  15.5433  15.5435  15.6416  15.6417  15.6806  15.6827
    15.6976  15.7029  15.7380  15.7427  15.7834  15.7917  15.9118  15.9275
    15.9294  15.9610  15.9623  16.0745  16.1109  16.1116  16.1183  16.1192
    16.1482  16.1527  16.2122  16.2178  16.2529  16.2666  16.2750  16.2953
    16.2969  16.3522  16.4244  16.4253  16.5627  16.6036  16.6124  16.6254
    16.6322  16.6446  16.6627  16.6653  16.6710  16.6745  16.8241  16.8665
    16.8738  16.9046  16.9209  16.9214  17.1043  17.1063  17.1079  17.1222
    17.3414  17.3533  17.4812  17.4834  17.4916  17.5065  17.5086  17.6756
    17.6767  17.7113  17.7125  17.7198  17.7220  17.7357  17.7390  17.7502
    17.7731  17.7743  17.8580  17.8593  17.8921  17.8992  17.9007  17.9031
    17.9035  17.9142  17.9171  17.9314  17.9330  18.0155  18.0616  18.1309
    18.1316  18.1960  18.2722  18.2850  18.3718  18.3725  18.4058  18.4452
    18.5274  18.5298  18.5305  18.5883  18.5957  18.5960  18.6172  18.6178
    18.7695  18.7696  18.7848  18.8760  18.8835  18.8879  18.9142  18.9143
    18.9228  18.9236  18.9634  19.0265  19.0282  19.0333  19.0341  19.1006
    19.2186  19.2226  19.3587  19.4032  19.4046  19.4081  19.4090  19.6175
    19.6233  20.0254  20.0353  20.4337  20.7238  20.8420  20.9829  20.9837
    21.2614  21.2624  21.4514  21.7964  23.3216  23.3420  23.8677  23.8812
    23.8902  23.9242  24.9451  24.9654  25.2435  25.2860  25.4927  25.5148
    26.7927  27.2085  27.2104  27.6910  27.9997  28.1320  28.1582  28.5289
    28.5310  28.7895  28.8147  29.0473  29.0784  29.0826  29.4361  29.4665
    29.5623  29.6202  29.6575  29.6882  30.1007  30.1201  30.1440  30.1545
    30.3278  30.3758

          k = 0.0556 0.0554-0.5000 ( 33094 PWs)   bands (ev):

   -64.9187 -64.9180 -64.8942 -64.8940 -64.8935 -64.8933 -64.8895 -64.8893
   -64.8888 -64.8886 -64.8826 -64.8818 -64.8807 -64.8800 -64.8799 -64.8792
   -64.8786 -64.8778 -64.8738 -64.8731 -64.8698 -64.8696 -64.8690 -64.8690
   -64.8688 -64.8688 -64.8682 -64.8680 -64.8653 -64.8646 -64.8644 -64.8637
   -30.7759 -30.7756 -30.7712 -30.7708 -30.7704 -30.7700 -30.7638 -30.7634
   -30.7605 -30.7598 -30.7597 -30.7590 -30.7427 -30.7419 -30.7147 -30.7144
   -30.7143 -30.7139 -30.7069 -30.7067 -30.7067 -30.7065 -30.6726 -30.6723
   -30.6711 -30.6707 -30.6673 -30.6666 -30.6660 -30.6653 -30.6518 -30.6514
   -30.6513 -30.6505 -30.6502 -30.6498 -30.6498 -30.6491 -30.6118 -30.6115
   -30.6111 -30.6108 -30.5812 -30.5806 -30.5791 -30.5785 -30.5615 -30.5607
   -30.5590 -30.5582 -30.5431 -30.5429 -30.5419 -30.5418 -30.5415 -30.5412
   -30.5411 -30.5411 -30.5410 -30.5408 -30.5406 -30.5403 -30.5400 -30.5397
   -30.5349 -30.5346 -30.5342 -30.5338 -30.5288 -30.5287 -30.5281 -30.5279
   -30.5250 -30.5246 -30.4992 -30.4985 -30.4979 -30.4978 -30.4975 -30.4974
   -30.4967 -30.4961 -30.4961 -30.4954 -30.4953 -30.4946 -30.4906 -30.4898
   -30.4850 -30.4849 -30.4847 -30.4846 -30.4610 -30.4602 -30.4599 -30.4593
    12.9524  12.9533  14.3086  14.3094  14.4308  14.4308  14.4310  14.4316
    14.4318  14.4324  14.4933  14.4933  14.4941  14.4941  14.5400  14.5401
    14.5504  14.5512  14.6960  14.6968  14.6983  14.6991  14.7286  14.7294
    14.7340  14.7347  14.9299  14.9306  14.9354  14.9361  15.2839  15.2842
    15.2843  15.2846  15.3968  15.3976  15.4010  15.4017  15.4204  15.4210
    15.4230  15.4236  15.5539  15.5545  15.5571  15.5577  15.7092  15.7095
    15.7117  15.7119  15.7151  15.7153  15.7227  15.7229  15.9289  15.9290
    15.9296  15.9297  16.0729  16.0736  16.1132  16.1138  16.1211  16.1217
    16.1445  16.1451  16.2085  16.2091  16.2146  16.2152  16.3064  16.3069
    16.4599  16.4601  16.4623  16.4624  16.5206  16.5208  16.5223  16.5224
    16.6801  16.6804  16.7294  16.7297  16.7363  16.7365  16.7512  16.7520
    16.7656  16.7658  16.7688  16.7696  17.4990  17.4992  17.5004  17.5007
    17.5007  17.5008  17.5012  17.5014  17.5032  17.5035  17.5470  17.5473
    17.6211  17.6218  17.7182  17.7189  17.7194  17.7200  17.8003  17.8010
    17.8014  17.8021  17.8036  17.8040  17.8163  17.8167  17.8173  17.8177
    17.8180  17.8183  17.8552  17.8558  17.8564  17.8571  18.0299  18.0301
    18.0306  18.0308  18.1222  18.1230  18.5793  18.5798  18.5801  18.5806
    18.6061  18.6063  18.7180  18.7181  18.7213  18.7214  18.7247  18.7254
    18.7521  18.7524  18.7642  18.7644  18.8176  18.8181  18.8212  18.8217
    18.8263  18.8268  18.8289  18.8294  18.9780  18.9784  19.2505  19.2507
    19.2533  19.2534  19.4034  19.4042  19.4082  19.4090  19.6089  19.6091
    19.6161  19.6163  20.0808  20.0814  20.5963  20.5971  21.1438  21.1446
    21.1448  21.1456  21.6606  21.6614  24.1016  24.1020  24.1222  24.1225
    24.5439  24.5445  24.5865  24.5871  24.6473  24.6476  24.6698  24.6701
    27.3201  27.3202  27.8096  27.8098  27.8119  27.8120  28.3399  28.3400
    28.5612  28.5619  28.5898  28.5905  29.1978  29.1985  29.2256  29.2264
    29.5111  29.5117  29.5603  29.5609  30.2726  30.2735  30.3258  30.3267
    30.5577  30.5585

          k = 0.0556 0.1663 0.0556 ( 33069 PWs)   bands (ev):

   -64.9266 -64.9043 -64.8982 -64.8981 -64.8927 -64.8927 -64.8880 -64.8860
   -64.8860 -64.8829 -64.8826 -64.8825 -64.8809 -64.8801 -64.8800 -64.8800
   -64.8798 -64.8795 -64.8776 -64.8771 -64.8770 -64.8750 -64.8749 -64.8661
   -64.8651 -64.8650 -64.8649 -64.8648 -64.8643 -64.8642 -64.8641 -64.8639
   -30.8076 -30.8060 -30.8059 -30.8028 -30.7871 -30.7871 -30.7844 -30.7252
   -30.7201 -30.7201 -30.7143 -30.7142 -30.7142 -30.7141 -30.7131 -30.7130
   -30.7122 -30.7014 -30.7013 -30.6986 -30.6985 -30.6940 -30.6940 -30.6902
   -30.6902 -30.6793 -30.6792 -30.6733 -30.6733 -30.6654 -30.6604 -30.6604
   -30.6413 -30.6413 -30.6274 -30.6273 -30.6122 -30.6122 -30.6115 -30.6115
   -30.5999 -30.5860 -30.5859 -30.5856 -30.5856 -30.5821 -30.5821 -30.5801
   -30.5800 -30.5783 -30.5782 -30.5774 -30.5761 -30.5759 -30.5758 -30.5757
   -30.5756 -30.5753 -30.5719 -30.5676 -30.5675 -30.5276 -30.5271 -30.5197
   -30.5197 -30.5127 -30.5127 -30.5081 -30.5081 -30.5071 -30.5071 -30.5048
   -30.5047 -30.5027 -30.5001 -30.5000 -30.5000 -30.5000 -30.4993 -30.4962
   -30.4952 -30.4946 -30.4945 -30.4944 -30.4943 -30.4927 -30.4926 -30.4919
   -30.4913 -30.4910 -30.4876 -30.4838 -30.4838 -30.4491 -30.4425 -30.4417
    12.3212  13.9705  14.0403  14.0523  14.0524  14.1012  14.1285  14.1285
    14.1418  14.3079  14.3226  14.3226  14.3283  14.3283  14.5241  14.5242
    14.5347  14.9255  14.9256  14.9871  15.0534  15.0535  15.0604  15.0605
    15.0857  15.1662  15.1662  15.1982  15.1983  15.2053  15.2123  15.2123
    15.3587  15.3588  15.3805  15.3805  15.3905  15.3906  15.4275  15.4275
    15.4730  15.4731  15.5359  15.7268  15.7268  15.7493  15.7494  15.7951
    15.7952  15.8045  15.8046  15.8624  15.8625  15.9502  15.9503  15.9586
    16.0035  16.0035  16.0499  16.0609  16.0610  16.0633  16.0633  16.1063
    16.1064  16.1481  16.1481  16.1790  16.1791  16.3287  16.3521  16.3521
    16.3601  16.3602  16.3800  16.3804  16.3805  16.3902  16.4263  16.4338
    16.4357  16.4519  16.4519  16.4649  16.4827  16.4865  16.4865  16.4874
    17.0576  17.0577  17.1645  17.1680  17.1930  17.1931  17.2470  17.2471
    17.2643  17.3120  17.3245  17.3246  17.4440  17.4554  17.4554  17.4682
    17.4683  17.5061  17.5061  17.5119  17.5119  17.7267  17.7268  17.7410
    17.7514  17.7516  17.8217  17.8218  17.9023  17.9023  17.9094  17.9094
    17.9111  17.9111  17.9197  17.9932  17.9997  17.9999  17.9999  18.0335
    18.1192  18.1192  18.1300  18.1301  18.1615  18.1616  18.2208  18.2337
    18.2337  18.2647  18.3842  18.5172  18.5173  18.6460  18.6461  18.6491
    18.6827  18.6976  18.6976  18.9129  19.0185  19.0185  19.0366  19.0587
    19.0958  19.0991  19.0991  19.1228  19.1228  19.2864  19.3356  19.3356
    19.3371  19.3371  19.3522  19.4179  19.4179  19.4195  19.4195  20.0772
    20.4405  20.4406  20.5608  20.5608  20.7906  20.8877  20.9230  20.9231
    21.4048  21.4049  21.9385  21.9758  21.9759  22.1395  22.5160  22.5160
    22.8353  22.8353  26.2673  26.4267  26.4267  26.6927  26.6927  26.7094
    26.7094  26.7214  27.2858  27.2858  27.5766  27.5766  28.2611  28.2613
    28.7527  28.7527  29.5867  29.5867  29.6640  29.6914  29.6914  29.8424
    29.8424  29.9129  29.9130  30.0922  30.1325  30.1325  30.2078  30.2078
    30.6808  30.6815

          k = 0.0556 0.1663 0.1667 ( 33081 PWs)   bands (ev):

   -64.9256 -64.9037 -64.9035 -64.8976 -64.8923 -64.8894 -64.8877 -64.8873
   -64.8859 -64.8858 -64.8825 -64.8824 -64.8818 -64.8804 -64.8794 -64.8792
   -64.8789 -64.8787 -64.8771 -64.8770 -64.8752 -64.8751 -64.8730 -64.8661
   -64.8655 -64.8654 -64.8651 -64.8650 -64.8648 -64.8648 -64.8645 -64.8639
   -30.8049 -30.8049 -30.8003 -30.7956 -30.7840 -30.7824 -30.7816 -30.7278
   -30.7266 -30.7254 -30.7239 -30.7158 -30.7145 -30.7132 -30.7127 -30.7118
   -30.7113 -30.7107 -30.7101 -30.7098 -30.7026 -30.7022 -30.7016 -30.7002
   -30.6768 -30.6706 -30.6704 -30.6694 -30.6687 -30.6654 -30.6639 -30.6575
   -30.6558 -30.6465 -30.6428 -30.6188 -30.6140 -30.6137 -30.6001 -30.5999
   -30.5965 -30.5958 -30.5907 -30.5835 -30.5833 -30.5832 -30.5810 -30.5765
   -30.5761 -30.5760 -30.5755 -30.5755 -30.5748 -30.5740 -30.5728 -30.5721
   -30.5711 -30.5708 -30.5588 -30.5583 -30.5532 -30.5320 -30.5303 -30.5251
   -30.5250 -30.5167 -30.5148 -30.5135 -30.5078 -30.5077 -30.5073 -30.5065
   -30.5045 -30.5037 -30.5035 -30.5035 -30.5032 -30.5022 -30.4987 -30.4977
   -30.4973 -30.4968 -30.4948 -30.4939 -30.4938 -30.4928 -30.4920 -30.4920
   -30.4877 -30.4876 -30.4842 -30.4834 -30.4773 -30.4570 -30.4445 -30.4417
    12.3937  14.0232  14.0305  14.0869  14.0869  14.0940  14.1139  14.1551
    14.1949  14.1950  14.3497  14.3499  14.3676  14.3688  14.5624  14.5872
    14.5940  14.9485  14.9547  14.9681  14.9756  14.9990  14.9993  15.0172
    15.0238  15.0421  15.0942  15.0943  15.1118  15.1126  15.2356  15.2376
    15.2397  15.2462  15.2482  15.2998  15.4119  15.4392  15.4404  15.4417
    15.4446  15.4734  15.4746  15.5538  15.5654  15.7026  15.7076  15.7896
    15.7906  15.8010  15.8907  15.8950  15.9057  15.9091  15.9676  15.9709
    15.9798  16.0351  16.0446  16.0453  16.0535  16.1001  16.1063  16.2031
    16.2491  16.2514  16.2866  16.2930  16.3024  16.3031  16.3534  16.3687
    16.4083  16.4091  16.4119  16.4131  16.4135  16.4257  16.4312  16.4452
    16.4753  16.4806  16.4811  16.4836  16.4893  16.5050  16.5117  16.5159
    16.9558  17.0066  17.0161  17.0648  17.1631  17.1728  17.2722  17.2888
    17.2924  17.3006  17.3023  17.3515  17.3578  17.3746  17.3812  17.4287
    17.4324  17.4427  17.5181  17.5886  17.6000  17.6014  17.6185  17.6200
    17.6404  17.8977  17.8981  17.9128  17.9131  17.9175  17.9851  17.9875
    17.9898  18.0026  18.0062  18.0105  18.0136  18.0148  18.0948  18.0981
    18.1223  18.1229  18.3010  18.3048  18.3414  18.3531  18.3569  18.3586
    18.3992  18.4015  18.4018  18.4113  18.4610  18.4634  18.4928  18.5326
    18.6557  18.7632  18.8155  18.8180  18.9481  18.9510  18.9524  18.9685
    19.0677  19.0944  19.0952  19.1095  19.1128  19.1268  19.2782  19.2788
    19.3344  19.3386  19.3468  19.3494  19.3508  19.3579  19.3745  19.7953
    20.0106  20.4092  20.4199  20.4588  20.8994  20.9128  21.0842  21.0849
    21.4674  21.4702  21.9634  21.9835  22.4305  22.4712  22.5042  22.5257
    23.0971  23.0996  26.0678  26.0908  26.2653  26.2664  26.7278  26.7820
    26.8207  26.8457  26.8639  27.1282  27.4148  27.4540  27.8520  27.8721
    28.8801  28.9024  29.1444  29.1783  29.5702  29.6724  29.6834  29.7173
    29.8060  29.8082  30.0144  30.0335  30.0832  30.1499  30.4945  30.5118
    30.7798  30.8202

          k = 0.0556 0.1663 0.2778 ( 33064 PWs)   bands (ev):

   -64.9238 -64.9086 -64.9025 -64.8967 -64.8927 -64.8915 -64.8885 -64.8870
   -64.8855 -64.8847 -64.8827 -64.8823 -64.8822 -64.8811 -64.8808 -64.8786
   -64.8781 -64.8772 -64.8757 -64.8754 -64.8744 -64.8729 -64.8710 -64.8671
   -64.8664 -64.8662 -64.8660 -64.8659 -64.8652 -64.8651 -64.8647 -64.8639
   -30.7995 -30.7981 -30.7909 -30.7846 -30.7778 -30.7759 -30.7730 -30.7439
   -30.7402 -30.7300 -30.7278 -30.7277 -30.7277 -30.7271 -30.7183 -30.7164
   -30.7162 -30.7111 -30.7102 -30.7080 -30.7072 -30.7045 -30.7031 -30.6960
   -30.6891 -30.6745 -30.6729 -30.6657 -30.6615 -30.6605 -30.6575 -30.6556
   -30.6519 -30.6481 -30.6387 -30.6302 -30.6268 -30.6135 -30.6103 -30.5984
   -30.5956 -30.5943 -30.5875 -30.5827 -30.5807 -30.5789 -30.5763 -30.5754
   -30.5749 -30.5745 -30.5718 -30.5670 -30.5641 -30.5628 -30.5618 -30.5590
   -30.5581 -30.5557 -30.5452 -30.5450 -30.5438 -30.5394 -30.5370 -30.5358
   -30.5213 -30.5207 -30.5201 -30.5188 -30.5164 -30.5158 -30.5157 -30.5144
   -30.5106 -30.5071 -30.5069 -30.5043 -30.5041 -30.5037 -30.5002 -30.4994
   -30.4989 -30.4973 -30.4970 -30.4967 -30.4932 -30.4921 -30.4910 -30.4849
   -30.4832 -30.4822 -30.4817 -30.4759 -30.4735 -30.4694 -30.4487 -30.4439
    12.5369  13.6837  14.1256  14.1536  14.1671  14.1755  14.1777  14.2216
    14.2867  14.2992  14.4041  14.4329  14.4454  14.4568  14.5614  14.6340
    14.6892  14.7690  14.7952  14.8264  14.8514  14.8615  14.8684  14.9007
    14.9893  15.0038  15.0267  15.0369  15.0517  15.0774  15.1568  15.1646
    15.1739  15.1874  15.2203  15.2682  15.3115  15.3294  15.3604  15.4620
    15.4751  15.4839  15.5264  15.5878  15.6327  15.6504  15.6543  15.7472
    15.7503  15.7615  15.7783  15.7926  15.8434  15.9021  15.9152  15.9575
    15.9596  15.9697  16.0563  16.1109  16.1527  16.1596  16.2065  16.2182
    16.2291  16.2355  16.2540  16.2779  16.3106  16.3323  16.3349  16.3629
    16.3892  16.4178  16.4674  16.4861  16.5187  16.5338  16.5375  16.5377
    16.5745  16.5905  16.5908  16.6020  16.6211  16.7220  16.8015  16.8261
    16.8509  16.8639  16.8914  16.9815  16.9914  17.0858  17.1001  17.1149
    17.1870  17.2046  17.2237  17.2960  17.2972  17.3760  17.3776  17.4863
    17.4992  17.5179  17.5288  17.5754  17.6218  17.7054  17.7593  17.7605
    17.7788  17.8558  17.8664  17.8821  17.9146  17.9593  17.9982  18.0030
    18.0281  18.0738  18.0790  18.1182  18.1269  18.1364  18.1384  18.1484
    18.1554  18.1863  18.2578  18.2957  18.3207  18.3525  18.3823  18.4480
    18.4573  18.4841  18.4884  18.4940  18.5024  18.5199  18.5222  18.6074
    18.6234  18.6382  18.7337  18.8124  18.8449  18.8673  18.9439  18.9641
    19.0325  19.0714  19.0732  19.0744  19.1598  19.1713  19.1715  19.1774
    19.2134  19.2169  19.2501  19.3336  19.3401  19.3481  19.3496  19.6224
    19.8251  19.9904  20.3460  20.4515  20.4847  20.8517  20.9806  21.3706
    21.5696  21.8642  21.9330  22.0917  22.4698  22.6329  22.9087  23.1766
    23.5496  23.7380  25.2575  25.4213  25.9191  26.1497  26.2691  26.4232
    26.4409  26.9196  27.0975  27.1336  27.1569  27.6246  27.6342  28.2891
    28.3822  28.6487  28.8204  29.0034  29.1131  29.1860  29.4539  29.6277
    29.8061  29.9064  29.9217  30.0642  30.1543  30.4024  30.4918  30.5201
    30.7364  30.7923

          k = 0.0556 0.1663 0.3889 ( 33088 PWs)   bands (ev):

   -64.9211 -64.9133 -64.9008 -64.8958 -64.8952 -64.8910 -64.8903 -64.8867
   -64.8859 -64.8851 -64.8835 -64.8829 -64.8822 -64.8811 -64.8783 -64.8775
   -64.8774 -64.8773 -64.8758 -64.8727 -64.8719 -64.8709 -64.8698 -64.8692
   -64.8678 -64.8677 -64.8674 -64.8662 -64.8660 -64.8652 -64.8647 -64.8639
   -30.7902 -30.7877 -30.7781 -30.7703 -30.7688 -30.7676 -30.7614 -30.7595
   -30.7576 -30.7450 -30.7443 -30.7433 -30.7350 -30.7273 -30.7252 -30.7204
   -30.7203 -30.7197 -30.7186 -30.7146 -30.7055 -30.7020 -30.6977 -30.6919
   -30.6820 -30.6796 -30.6749 -30.6702 -30.6672 -30.6586 -30.6499 -30.6451
   -30.6444 -30.6441 -30.6388 -30.6333 -30.6263 -30.6230 -30.6228 -30.6111
   -30.6082 -30.5969 -30.5762 -30.5755 -30.5743 -30.5740 -30.5730 -30.5726
   -30.5668 -30.5656 -30.5637 -30.5557 -30.5548 -30.5526 -30.5518 -30.5506
   -30.5479 -30.5468 -30.5440 -30.5420 -30.5343 -30.5334 -30.5304 -30.5301
   -30.5297 -30.5295 -30.5291 -30.5271 -30.5268 -30.5265 -30.5265 -30.5159
   -30.5140 -30.5136 -30.5071 -30.5062 -30.5057 -30.5050 -30.5045 -30.5033
   -30.5023 -30.5010 -30.4956 -30.4944 -30.4938 -30.4911 -30.4891 -30.4860
   -30.4859 -30.4827 -30.4771 -30.4724 -30.4722 -30.4652 -30.4549 -30.4489
    12.7469  13.3354  14.2468  14.2604  14.2713  14.2935  14.3076  14.3275
    14.4160  14.4389  14.4704  14.4842  14.5493  14.5572  14.5639  14.5881
    14.6152  14.6479  14.6492  14.6530  14.7154  14.7295  14.7782  14.7890
    14.8099  14.8340  14.9247  14.9427  14.9591  15.0401  15.1534  15.1680
    15.1728  15.1933  15.2330  15.2888  15.2929  15.4161  15.4276  15.4479
    15.4765  15.4943  15.5523  15.5699  15.5856  15.5957  15.5973  15.6054
    15.6341  15.6836  15.7378  15.7700  15.7772  15.8371  15.9196  15.9394
    15.9726  16.0183  16.1250  16.1342  16.1608  16.1862  16.2065  16.2078
    16.2089  16.2123  16.2545  16.3019  16.3060  16.3115  16.3302  16.3504
    16.4029  16.4271  16.4437  16.5630  16.5742  16.6237  16.6279  16.6467
    16.6523  16.6605  16.6988  16.7060  16.7234  16.7869  16.7913  16.8002
    16.8877  16.9030  16.9064  16.9894  17.0165  17.0385  17.0762  17.0963
    17.2561  17.2734  17.2956  17.3113  17.3223  17.3433  17.4411  17.5323
    17.5340  17.5518  17.6156  17.6641  17.7128  17.7270  17.7364  17.7365
    17.7564  17.7614  17.8110  17.8430  17.8820  17.9054  17.9103  17.9157
    17.9728  17.9811  18.0250  18.0514  18.0808  18.1335  18.1590  18.1663
    18.2007  18.2031  18.2102  18.3429  18.3611  18.3638  18.3910  18.3976
    18.5071  18.5478  18.5890  18.6180  18.6563  18.6773  18.6824  18.6892
    18.6931  18.6965  18.7220  18.7865  18.7867  18.8857  18.8900  18.9167
    18.9423  18.9824  18.9827  19.0285  19.0287  19.0356  19.0393  19.1237
    19.1991  19.2699  19.3336  19.3393  19.3418  19.3456  19.5914  19.6024
    19.7270  19.9730  20.0135  20.2505  20.5089  20.5782  20.7796  21.1461
    21.6042  21.8737  21.9608  22.3899  22.7906  23.3573  23.4861  23.8972
    24.1200  24.3939  24.4399  24.7653  25.0145  25.4436  25.5406  26.0436
    26.4728  26.7989  27.3779  27.4868  27.5125  27.7029  27.9247  28.0156
    28.1811  28.2314  28.4523  28.7204  28.8762  29.0987  29.4365  29.5284
    29.6696  29.8182  29.8535  30.0016  30.0314  30.2694  30.2936  30.3336
    30.4027  30.6789

          k = 0.0556 0.1663-0.5000 ( 33092 PWs)   bands (ev):

   -64.9179 -64.9172 -64.8989 -64.8981 -64.8937 -64.8929 -64.8890 -64.8883
   -64.8849 -64.8847 -64.8842 -64.8840 -64.8821 -64.8813 -64.8782 -64.8774
   -64.8769 -64.8762 -64.8737 -64.8729 -64.8704 -64.8700 -64.8696 -64.8694
   -64.8693 -64.8686 -64.8680 -64.8672 -64.8660 -64.8652 -64.8647 -64.8639
   -30.7775 -30.7772 -30.7740 -30.7737 -30.7626 -30.7622 -30.7575 -30.7574
   -30.7568 -30.7566 -30.7536 -30.7532 -30.7421 -30.7414 -30.7242 -30.7241
   -30.7213 -30.7209 -30.7207 -30.7207 -30.7013 -30.7011 -30.6902 -30.6898
   -30.6798 -30.6794 -30.6794 -30.6790 -30.6599 -30.6596 -30.6498 -30.6493
   -30.6388 -30.6383 -30.6348 -30.6340 -30.6282 -30.6279 -30.6200 -30.6196
   -30.6091 -30.6084 -30.5762 -30.5756 -30.5741 -30.5737 -30.5648 -30.5641
   -30.5579 -30.5572 -30.5548 -30.5541 -30.5527 -30.5524 -30.5456 -30.5453
   -30.5431 -30.5426 -30.5412 -30.5410 -30.5396 -30.5392 -30.5386 -30.5383
   -30.5364 -30.5356 -30.5269 -30.5265 -30.5232 -30.5224 -30.5165 -30.5161
   -30.5160 -30.5152 -30.5113 -30.5109 -30.5064 -30.5060 -30.5045 -30.5038
   -30.5027 -30.5020 -30.4989 -30.4985 -30.4950 -30.4943 -30.4878 -30.4870
   -30.4861 -30.4858 -30.4736 -30.4734 -30.4632 -30.4625 -30.4563 -30.4559
    13.0164  13.0173  14.3571  14.3579  14.3932  14.3933  14.4425  14.4432
    14.4500  14.4508  14.4681  14.4690  14.4718  14.4718  14.5807  14.5808
    14.5882  14.5891  14.6108  14.6108  14.6680  14.6686  14.7213  14.7221
    14.7572  14.7578  14.8365  14.8369  15.0086  15.0093  15.0947  15.0949
    15.2884  15.2885  15.2903  15.2909  15.3237  15.3246  15.4320  15.4328
    15.5038  15.5039  15.5344  15.5351  15.5829  15.5833  15.6086  15.6089
    15.6527  15.6528  15.6865  15.6870  15.6939  15.6944  16.0490  16.0496
    16.0697  16.0703  16.0755  16.0762  16.0878  16.0884  16.1500  16.1501
    16.2591  16.2597  16.2605  16.2609  16.3730  16.3735  16.4055  16.4062
    16.4611  16.4612  16.5026  16.5027  16.5172  16.5174  16.6312  16.6313
    16.6703  16.6705  16.7372  16.7374  16.7515  16.7522  16.7693  16.7701
    16.8294  16.8297  16.8463  16.8466  17.3010  17.3015  17.3111  17.3116
    17.3571  17.3572  17.3703  17.3705  17.3961  17.3963  17.4440  17.4443
    17.4908  17.4914  17.6389  17.6396  17.6438  17.6443  17.7070  17.7073
    17.7267  17.7273  17.7669  17.7672  17.7709  17.7714  17.8356  17.8363
    17.9496  17.9502  17.9871  17.9878  18.0589  18.0595  18.1182  18.1189
    18.2513  18.2520  18.3017  18.3024  18.3714  18.3719  18.5416  18.5422
    18.5832  18.5833  18.5980  18.5987  18.7347  18.7350  18.7599  18.7600
    18.8208  18.8214  18.8465  18.8466  18.8467  18.8470  18.8543  18.8546
    18.8622  18.8627  18.8654  18.8658  18.9543  18.9545  19.0052  19.0054
    19.2213  19.2214  19.3348  19.3354  19.3431  19.3439  19.5951  19.5952
    20.0490  20.0492  20.1236  20.1244  20.4109  20.4115  20.6849  20.6857
    21.7692  21.7699  22.2309  22.2316  23.5623  23.5627  24.1138  24.1144
    24.1541  24.1544  24.6876  24.6878  24.7605  24.7611  25.2090  25.2092
    26.8931  26.8933  27.3317  27.3319  27.7515  27.7523  27.9387  27.9394
    28.2951  28.2959  28.3543  28.3544  28.9125  28.9126  29.2895  29.2897
    29.8291  29.8299  29.9690  29.9695  29.9975  29.9982  30.1250  30.1259
    30.7915  30.7918

          k = 0.0556 0.2771 0.0556 ( 33082 PWs)   bands (ev):

   -64.9247 -64.9095 -64.8971 -64.8971 -64.8919 -64.8918 -64.8888 -64.8888
   -64.8849 -64.8848 -64.8829 -64.8827 -64.8813 -64.8801 -64.8800 -64.8800
   -64.8798 -64.8790 -64.8777 -64.8743 -64.8742 -64.8727 -64.8726 -64.8678
   -64.8660 -64.8660 -64.8658 -64.8657 -64.8643 -64.8642 -64.8642 -64.8640
   -30.8008 -30.7977 -30.7977 -30.7932 -30.7810 -30.7810 -30.7748 -30.7419
   -30.7363 -30.7363 -30.7312 -30.7312 -30.7283 -30.7156 -30.7156 -30.7137
   -30.7136 -30.7038 -30.7038 -30.6947 -30.6946 -30.6934 -30.6928 -30.6927
   -30.6802 -30.6802 -30.6782 -30.6782 -30.6675 -30.6675 -30.6495 -30.6495
   -30.6433 -30.6433 -30.6416 -30.6416 -30.6254 -30.6254 -30.6228 -30.6228
   -30.5922 -30.5922 -30.5820 -30.5798 -30.5797 -30.5782 -30.5782 -30.5732
   -30.5717 -30.5698 -30.5698 -30.5677 -30.5677 -30.5666 -30.5666 -30.5657
   -30.5657 -30.5571 -30.5536 -30.5536 -30.5468 -30.5391 -30.5384 -30.5250
   -30.5250 -30.5175 -30.5174 -30.5158 -30.5157 -30.5128 -30.5123 -30.5123
   -30.5083 -30.5082 -30.5080 -30.5079 -30.5024 -30.4989 -30.4961 -30.4948
   -30.4948 -30.4945 -30.4944 -30.4944 -30.4942 -30.4922 -30.4922 -30.4910
   -30.4880 -30.4818 -30.4818 -30.4800 -30.4795 -30.4602 -30.4466 -30.4457
    12.4655  13.6217  14.1057  14.1419  14.1419  14.1704  14.2107  14.2107
    14.2367  14.3625  14.4066  14.4066  14.4267  14.4268  14.5043  14.6239
    14.6240  14.7795  14.7795  14.8232  14.8392  14.9165  14.9165  14.9678
    15.0749  15.0749  15.1177  15.1178  15.1410  15.1411  15.1469  15.1469
    15.2500  15.2500  15.2585  15.2586  15.3723  15.3724  15.4232  15.4233
    15.5365  15.5366  15.6796  15.6797  15.7085  15.7085  15.7206  15.7321
    15.7321  15.7513  15.7513  15.7770  15.7771  15.8888  15.8888  15.9613
    15.9614  16.0057  16.0126  16.0126  16.0805  16.0805  16.1133  16.1134
    16.1184  16.1184  16.1748  16.2018  16.2019  16.2727  16.3031  16.3118
    16.3118  16.3722  16.3830  16.3831  16.4894  16.5213  16.5213  16.5404
    16.5482  16.5512  16.6939  16.6939  16.7122  16.7610  16.8538  16.8539
    16.9043  16.9043  16.9273  16.9274  16.9982  17.0746  17.0830  17.0830
    17.0998  17.1067  17.3867  17.4098  17.4098  17.5044  17.5044  17.5752
    17.5753  17.5912  17.5913  17.6487  17.6488  17.6799  17.6800  17.7415
    17.7416  17.8418  17.8875  17.8875  17.8885  17.8885  17.9124  17.9124
    17.9167  17.9168  18.0312  18.1125  18.1664  18.1664  18.1820  18.1820
    18.1965  18.2819  18.2888  18.2931  18.3261  18.3261  18.3280  18.3280
    18.3707  18.3708  18.4004  18.4130  18.4131  18.4905  18.6631  18.6631
    18.7227  18.7230  18.7230  18.7825  18.8753  18.8754  18.9248  18.9248
    18.9274  19.0090  19.0124  19.0124  19.0232  19.1527  19.2035  19.2035
    19.2052  19.2052  19.2396  19.4183  19.4183  19.4193  19.4193  20.0144
    20.0144  20.2508  20.4637  20.4637  20.7855  20.7855  20.8283  21.1620
    21.3559  21.3559  21.5323  21.8938  22.6086  22.6086  23.1545  23.1545
    23.3193  23.3194  25.8126  25.8127  25.9875  25.9875  26.3720  26.3720
    26.4357  26.7394  26.7394  27.1437  27.8238  27.8239  28.4981  28.4983
    28.7752  29.2539  29.2539  29.3213  29.3213  29.6041  29.6041  29.6636
    29.6636  29.7433  29.7434  29.8808  30.0131  30.0132  30.1760  30.1761
    30.1843  30.1844

          k = 0.0556 0.2771 0.1667 ( 33071 PWs)   bands (ev):

   -64.9238 -64.9088 -64.9023 -64.8967 -64.8927 -64.8915 -64.8886 -64.8866
   -64.8854 -64.8847 -64.8827 -64.8826 -64.8822 -64.8810 -64.8808 -64.8786
   -64.8781 -64.8773 -64.8759 -64.8755 -64.8744 -64.8729 -64.8711 -64.8678
   -64.8664 -64.8663 -64.8661 -64.8655 -64.8651 -64.8649 -64.8644 -64.8641
   -30.7995 -30.7982 -30.7910 -30.7847 -30.7779 -30.7769 -30.7724 -30.7447
   -30.7413 -30.7312 -30.7284 -30.7281 -30.7266 -30.7265 -30.7176 -30.7170
   -30.7157 -30.7106 -30.7100 -30.7081 -30.7063 -30.7050 -30.7019 -30.6952
   -30.6878 -30.6753 -30.6718 -30.6655 -30.6616 -30.6606 -30.6573 -30.6554
   -30.6503 -30.6496 -30.6406 -30.6299 -30.6269 -30.6136 -30.6093 -30.5990
   -30.5959 -30.5944 -30.5900 -30.5828 -30.5817 -30.5766 -30.5759 -30.5757
   -30.5742 -30.5734 -30.5712 -30.5675 -30.5649 -30.5628 -30.5623 -30.5598
   -30.5578 -30.5553 -30.5458 -30.5449 -30.5419 -30.5396 -30.5375 -30.5367
   -30.5212 -30.5212 -30.5210 -30.5194 -30.5169 -30.5164 -30.5159 -30.5152
   -30.5099 -30.5080 -30.5057 -30.5046 -30.5044 -30.5031 -30.4998 -30.4995
   -30.4992 -30.4978 -30.4968 -30.4957 -30.4927 -30.4924 -30.4901 -30.4841
   -30.4825 -30.4823 -30.4823 -30.4759 -30.4735 -30.4694 -30.4486 -30.4439
    12.5361  13.6777  14.1318  14.1528  14.1670  14.1749  14.1770  14.2214
    14.2866  14.2989  14.4034  14.4331  14.4449  14.4571  14.5559  14.6334
    14.6948  14.7684  14.7907  14.8203  14.8517  14.8565  14.8675  14.9000
    14.9932  15.0022  15.0250  15.0366  15.0584  15.0836  15.1563  15.1637
    15.1736  15.1892  15.2197  15.2699  15.3121  15.3313  15.3598  15.4628
    15.4758  15.4835  15.5273  15.5984  15.6332  15.6472  15.6578  15.7340
    15.7513  15.7617  15.7804  15.7940  15.8406  15.9043  15.9103  15.9547
    15.9626  15.9751  16.0637  16.1080  16.1488  16.1583  16.2103  16.2130
    16.2303  16.2388  16.2411  16.2781  16.2987  16.3260  16.3284  16.3665
    16.3957  16.4042  16.4697  16.5001  16.5212  16.5427  16.5432  16.5497
    16.5749  16.5894  16.5994  16.6050  16.6182  16.7210  16.8064  16.8319
    16.8615  16.8678  16.8876  16.9772  17.0032  17.1009  17.1097  17.1256
    17.1955  17.2128  17.2129  17.2843  17.2923  17.3671  17.3730  17.4803
    17.4919  17.5157  17.5227  17.5721  17.6203  17.7028  17.7525  17.7600
    17.7755  17.8439  17.8656  17.8804  17.9100  17.9605  17.9908  18.0146
    18.0275  18.0763  18.0782  18.1171  18.1242  18.1355  18.1383  18.1456
    18.1576  18.1851  18.2632  18.3070  18.3211  18.3518  18.3848  18.4468
    18.4560  18.4831  18.4908  18.4910  18.4965  18.5165  18.5239  18.6077
    18.6176  18.6392  18.7336  18.8159  18.8439  18.8669  18.9442  18.9587
    19.0304  19.0679  19.0704  19.0742  19.1520  19.1704  19.1717  19.1793
    19.2032  19.2079  19.2455  19.3463  19.3504  19.3562  19.3579  19.6225
    19.8303  19.9824  20.3562  20.4407  20.4885  20.8641  20.9837  21.3752
    21.5719  21.8275  21.9515  22.0863  22.4892  22.6094  22.9446  23.1521
    23.5462  23.7357  25.2372  25.4458  25.8817  26.1340  26.2670  26.3929
    26.4359  26.9061  27.1294  27.1460  27.1543  27.6314  27.6645  28.2611
    28.4006  28.6839  28.7923  29.0061  29.1337  29.2216  29.4383  29.6284
    29.8074  29.9006  29.9069  30.1282  30.1805  30.4038  30.4712  30.5212
    30.7449  30.8433

          k = 0.0556 0.2771 0.2778 ( 33081 PWs)   bands (ev):

   -64.9220 -64.9074 -64.9073 -64.8964 -64.8957 -64.8907 -64.8881 -64.8880
   -64.8844 -64.8843 -64.8841 -64.8821 -64.8817 -64.8816 -64.8776 -64.8774
   -64.8772 -64.8770 -64.8747 -64.8747 -64.8734 -64.8733 -64.8695 -64.8677
   -64.8673 -64.8671 -64.8668 -64.8665 -64.8662 -64.8653 -64.8650 -64.8642
   -30.7945 -30.7944 -30.7807 -30.7727 -30.7719 -30.7685 -30.7677 -30.7446
   -30.7439 -30.7431 -30.7422 -30.7310 -30.7298 -30.7231 -30.7225 -30.7201
   -30.7198 -30.7176 -30.7167 -30.7148 -30.7141 -30.7053 -30.7044 -30.7034
   -30.6994 -30.6986 -30.6711 -30.6656 -30.6593 -30.6582 -30.6511 -30.6509
   -30.6435 -30.6421 -30.6353 -30.6335 -30.6084 -30.6066 -30.6064 -30.5960
   -30.5959 -30.5950 -30.5938 -30.5854 -30.5831 -30.5713 -30.5709 -30.5705
   -30.5697 -30.5694 -30.5683 -30.5681 -30.5646 -30.5638 -30.5559 -30.5557
   -30.5495 -30.5476 -30.5470 -30.5466 -30.5337 -30.5337 -30.5335 -30.5335
   -30.5289 -30.5287 -30.5267 -30.5264 -30.5178 -30.5177 -30.5158 -30.5155
   -30.5144 -30.5141 -30.5134 -30.5128 -30.5039 -30.5036 -30.5024 -30.5018
   -30.5002 -30.4997 -30.4947 -30.4935 -30.4929 -30.4922 -30.4879 -30.4872
   -30.4835 -30.4833 -30.4829 -30.4707 -30.4707 -30.4677 -30.4530 -30.4440
    12.6757  13.7871  13.7923  14.2010  14.2416  14.2447  14.2447  14.2691
    14.3964  14.3965  14.4789  14.4849  14.4856  14.5549  14.6111  14.6532
    14.6564  14.6608  14.7022  14.7022  14.8148  14.8173  14.8186  14.8189
    14.8997  14.9051  14.9233  14.9281  15.0912  15.0924  15.0925  15.0974
    15.0989  15.1972  15.1977  15.2306  15.2308  15.2711  15.2712  15.3513
    15.3514  15.4319  15.5471  15.5477  15.5527  15.5543  15.5797  15.7579
    15.7697  15.7922  15.7947  15.8046  15.8048  15.8122  15.8172  16.0620
    16.0672  16.1315  16.1352  16.2222  16.2246  16.2250  16.2332  16.2665
    16.2673  16.2778  16.2982  16.2994  16.3227  16.4164  16.4419  16.4459
    16.4470  16.5341  16.5383  16.5445  16.5760  16.5990  16.6229  16.6395
    16.6426  16.6444  16.6889  16.6930  16.6994  16.7037  16.7179  16.7534
    16.8518  16.8549  16.8725  16.8798  17.0321  17.0448  17.0847  17.0985
    17.1684  17.1792  17.2247  17.2632  17.3169  17.3243  17.3482  17.3551
    17.3644  17.3715  17.4337  17.4368  17.5802  17.5816  17.7129  17.8022
    17.8032  17.8159  17.8163  17.8200  17.8503  17.9324  17.9342  18.0125
    18.0488  18.1023  18.1041  18.1584  18.1603  18.2044  18.2050  18.2441
    18.2489  18.3552  18.3553  18.3554  18.3628  18.3793  18.3795  18.3796
    18.3852  18.4297  18.4298  18.5849  18.6277  18.6535  18.6557  18.6627
    18.6628  18.6637  18.6655  18.7668  18.7689  18.8100  18.9284  18.9298
    19.0054  19.0780  19.0798  19.0991  19.1093  19.1097  19.2053  19.2113
    19.2155  19.2198  19.2362  19.2423  19.2763  19.2918  19.5980  19.6158
    19.6231  19.9191  19.9267  20.3060  20.3967  20.4068  21.5784  21.5841
    21.9579  21.9598  22.2972  22.3290  22.6012  22.6227  23.1286  23.1504
    23.9521  24.3642  24.6459  24.6675  25.9080  25.9297  26.2665  26.2687
    26.4107  26.4237  26.8599  26.8821  27.4817  27.4965  27.6667  27.7807
    27.8100  28.1943  28.2962  28.3260  28.4076  29.5066  29.6879  29.7072
    29.8472  29.8473  30.2499  30.2830  30.5163  30.5339  30.6901  30.6923
    30.8541  30.9168

          k = 0.0556 0.2771 0.3889 ( 33100 PWs)   bands (ev):

   -64.9193 -64.9119 -64.9055 -64.8998 -64.8943 -64.8904 -64.8896 -64.8874
   -64.8863 -64.8853 -64.8840 -64.8825 -64.8813 -64.8788 -64.8771 -64.8766
   -64.8761 -64.8751 -64.8740 -64.8738 -64.8724 -64.8715 -64.8696 -64.8685
   -64.8683 -64.8682 -64.8681 -64.8675 -64.8667 -64.8658 -64.8651 -64.8642
   -30.7867 -30.7857 -30.7672 -30.7629 -30.7609 -30.7609 -30.7585 -30.7576
   -30.7563 -30.7419 -30.7418 -30.7416 -30.7378 -30.7340 -30.7299 -30.7298
   -30.7287 -30.7221 -30.7217 -30.7214 -30.7158 -30.7112 -30.7054 -30.7030
   -30.7024 -30.6895 -30.6801 -30.6784 -30.6695 -30.6573 -30.6445 -30.6407
   -30.6367 -30.6278 -30.6247 -30.6193 -30.6184 -30.6179 -30.6094 -30.6074
   -30.5923 -30.5866 -30.5846 -30.5795 -30.5789 -30.5768 -30.5705 -30.5691
   -30.5675 -30.5647 -30.5645 -30.5606 -30.5576 -30.5560 -30.5532 -30.5469
   -30.5462 -30.5454 -30.5447 -30.5446 -30.5421 -30.5364 -30.5343 -30.5330
   -30.5316 -30.5293 -30.5247 -30.5246 -30.5231 -30.5210 -30.5207 -30.5200
   -30.5142 -30.5137 -30.5126 -30.5089 -30.5078 -30.5074 -30.5073 -30.5066
   -30.5008 -30.4994 -30.4987 -30.4959 -30.4948 -30.4942 -30.4942 -30.4904
   -30.4853 -30.4843 -30.4770 -30.4664 -30.4646 -30.4606 -30.4592 -30.4469
    12.8802  13.4529  13.9449  14.2727  14.3394  14.3421  14.3535  14.3696
    14.3762  14.5251  14.5258  14.5276  14.5375  14.5631  14.5673  14.6066
    14.6299  14.6369  14.6392  14.6838  14.6943  14.7221  14.7698  14.7871
    14.7993  14.8543  14.8824  14.8948  14.9653  14.9904  15.0126  15.0245
    15.0635  15.1619  15.1664  15.2008  15.2473  15.2722  15.2773  15.3271
    15.3394  15.3867  15.4180  15.4547  15.4933  15.6020  15.6456  15.6628
    15.6786  15.7313  15.7866  15.8221  15.8509  15.8724  15.9305  16.0339
    16.0438  16.0484  16.1304  16.1892  16.1955  16.2591  16.2980  16.3082
    16.3329  16.3355  16.3401  16.3884  16.4192  16.4296  16.4525  16.5419
    16.5452  16.5883  16.6077  16.6098  16.6136  16.6472  16.6477  16.6830
    16.6917  16.6940  16.7041  16.7895  16.7928  16.8151  16.8162  16.8372
    16.8481  16.9090  16.9142  16.9265  16.9951  17.0113  17.0889  17.1037
    17.1069  17.1442  17.1681  17.1775  17.1888  17.2314  17.2567  17.3478
    17.4632  17.4632  17.4840  17.4974  17.5044  17.5160  17.5769  17.5956
    17.6288  17.6627  17.7203  17.7370  17.7476  17.8297  17.9888  18.0345
    18.0503  18.0550  18.0731  18.0783  18.2037  18.2065  18.2250  18.2339
    18.2380  18.2835  18.3877  18.4082  18.4103  18.4216  18.4769  18.4891
    18.4952  18.5655  18.5946  18.6288  18.6322  18.6929  18.7185  18.7877
    18.8018  18.8020  18.8118  18.8123  18.8263  18.8271  18.8566  18.8797
    18.9696  19.0242  19.0256  19.0266  19.0323  19.0357  19.0402  19.0510
    19.1009  19.1700  19.2114  19.2154  19.2272  19.2484  19.5296  19.6041
    19.8268  19.9747  20.0957  20.2032  20.2484  20.3373  21.0787  21.6103
    22.2642  22.2666  22.4698  22.5629  22.8500  23.0435  23.3703  23.8350
    23.8784  24.0437  24.4798  25.0496  25.0593  25.4447  25.7411  26.2851
    26.4782  26.5790  26.7005  26.8479  27.0746  27.0866  27.3412  27.5408
    27.8292  27.8386  28.0394  28.2682  28.8282  29.1482  29.7106  29.8264
    29.9032  29.9376  30.0103  30.1098  30.2001  30.2933  30.7847  30.8291
    30.9828  31.0659

          k = 0.0556 0.2771-0.5000 ( 33104 PWs)   bands (ev):

   -64.9163 -64.9155 -64.9033 -64.9025 -64.8929 -64.8922 -64.8884 -64.8877
   -64.8868 -64.8860 -64.8837 -64.8829 -64.8805 -64.8798 -64.8761 -64.8754
   -64.8753 -64.8746 -64.8734 -64.8727 -64.8711 -64.8706 -64.8704 -64.8701
   -64.8699 -64.8693 -64.8675 -64.8672 -64.8668 -64.8665 -64.8650 -64.8643
   -30.7755 -30.7752 -30.7735 -30.7732 -30.7525 -30.7518 -30.7518 -30.7515
   -30.7511 -30.7510 -30.7409 -30.7405 -30.7402 -30.7401 -30.7373 -30.7373
   -30.7364 -30.7363 -30.7273 -30.7268 -30.7078 -30.7074 -30.7072 -30.7069
   -30.6922 -30.6918 -30.6782 -30.6781 -30.6737 -30.6733 -30.6315 -30.6312
   -30.6299 -30.6296 -30.6231 -30.6228 -30.6188 -30.6180 -30.6055 -30.6054
   -30.6043 -30.6036 -30.5709 -30.5702 -30.5701 -30.5696 -30.5671 -30.5663
   -30.5658 -30.5656 -30.5637 -30.5635 -30.5583 -30.5582 -30.5562 -30.5555
   -30.5454 -30.5448 -30.5433 -30.5431 -30.5364 -30.5360 -30.5357 -30.5354
   -30.5278 -30.5271 -30.5251 -30.5247 -30.5216 -30.5214 -30.5200 -30.5197
   -30.5144 -30.5137 -30.5114 -30.5107 -30.5106 -30.5099 -30.5090 -30.5086
   -30.5037 -30.5030 -30.5010 -30.5007 -30.4969 -30.4962 -30.4884 -30.4881
   -30.4880 -30.4872 -30.4677 -30.4669 -30.4642 -30.4641 -30.4527 -30.4525
    13.1425  13.1434  14.1424  14.1432  14.3814  14.3815  14.4517  14.4524
    14.4741  14.4742  14.4750  14.4754  14.5390  14.5398  14.5794  14.5798
    14.6639  14.6648  14.6905  14.6905  14.7056  14.7057  14.7236  14.7238
    14.7671  14.7678  14.8670  14.8675  14.9119  14.9119  14.9730  14.9735
    15.1464  15.1472  15.1621  15.1626  15.2424  15.2426  15.3060  15.3061
    15.3163  15.3171  15.4972  15.4978  15.5272  15.5272  15.5448  15.5455
    15.8109  15.8114  15.8121  15.8121  15.9217  15.9220  15.9353  15.9359
    15.9544  15.9550  16.0731  16.0736  16.2853  16.2859  16.3655  16.3661
    16.3740  16.3741  16.4107  16.4112  16.4434  16.4437  16.4609  16.4609
    16.5070  16.5072  16.6524  16.6525  16.7053  16.7056  16.7057  16.7063
    16.7328  16.7328  16.7608  16.7614  16.7733  16.7740  16.7781  16.7784
    16.9466  16.9469  16.9651  16.9654  17.1173  17.1173  17.1247  17.1252
    17.1345  17.1349  17.1986  17.1987  17.2112  17.2113  17.2275  17.2277
    17.2845  17.2850  17.5406  17.5409  17.5411  17.5417  17.5991  17.5996
    17.6282  17.6286  17.6518  17.6525  17.6622  17.6624  17.9415  17.9422
    17.9471  17.9476  18.1320  18.1327  18.1628  18.1634  18.1761  18.1768
    18.3365  18.3372  18.4619  18.4626  18.4666  18.4673  18.5875  18.5882
    18.6093  18.6100  18.6569  18.6569  18.7045  18.7045  18.7046  18.7047
    18.8265  18.8271  18.8538  18.8538  18.8782  18.8786  18.9225  18.9229
    18.9245  18.9249  18.9397  18.9399  18.9438  18.9439  18.9636  18.9636
    19.1600  19.1601  19.2201  19.2208  19.2239  19.2244  19.5628  19.5629
    19.7127  19.7134  20.2766  20.2773  20.5842  20.5845  20.8810  20.8817
    22.4616  22.4623  22.8377  22.8383  23.0229  23.0233  23.4398  23.4404
    24.1878  24.1881  24.6618  24.6620  25.0856  25.0862  25.7967  25.7969
    26.5498  26.5498  26.9099  26.9100  26.9603  26.9610  27.2927  27.2934
    27.4293  27.4300  28.6076  28.6077  28.9520  28.9521  29.5294  29.5295
    29.8446  29.8455  29.9868  29.9877  30.3960  30.3969  30.5805  30.5806
    31.2253  31.2260

          k = 0.0556 0.3879 0.0556 ( 33075 PWs)   bands (ev):

   -64.9220 -64.9142 -64.8956 -64.8956 -64.8914 -64.8914 -64.8906 -64.8905
   -64.8871 -64.8870 -64.8825 -64.8818 -64.8801 -64.8800 -64.8800 -64.8798
   -64.8786 -64.8782 -64.8780 -64.8717 -64.8717 -64.8705 -64.8705 -64.8704
   -64.8675 -64.8675 -64.8670 -64.8669 -64.8643 -64.8642 -64.8642 -64.8640
   -30.7901 -30.7860 -30.7860 -30.7801 -30.7720 -30.7720 -30.7602 -30.7596
   -30.7541 -30.7541 -30.7467 -30.7467 -30.7465 -30.7190 -30.7156 -30.7155
   -30.7107 -30.7107 -30.7091 -30.7091 -30.6997 -30.6997 -30.6825 -30.6825
   -30.6750 -30.6750 -30.6646 -30.6646 -30.6600 -30.6600 -30.6596 -30.6596
   -30.6547 -30.6547 -30.6383 -30.6383 -30.6361 -30.6361 -30.6275 -30.6275
   -30.6016 -30.6016 -30.5794 -30.5794 -30.5785 -30.5784 -30.5670 -30.5657
   -30.5624 -30.5548 -30.5547 -30.5545 -30.5545 -30.5536 -30.5535 -30.5520
   -30.5519 -30.5497 -30.5488 -30.5407 -30.5407 -30.5407 -30.5327 -30.5327
   -30.5285 -30.5285 -30.5284 -30.5283 -30.5267 -30.5201 -30.5200 -30.5200
   -30.5197 -30.5197 -30.5123 -30.5025 -30.5025 -30.4983 -30.4970 -30.4946
   -30.4945 -30.4944 -30.4943 -30.4940 -30.4939 -30.4900 -30.4894 -30.4894
   -30.4884 -30.4821 -30.4821 -30.4759 -30.4696 -30.4688 -30.4527 -30.4517
    12.6772  13.2707  14.1974  14.2700  14.2700  14.2804  14.3327  14.3327
    14.3699  14.4161  14.4431  14.5321  14.5321  14.5653  14.5654  14.6046
    14.6047  14.6177  14.6758  14.6889  14.6889  14.7406  14.7645  14.7646
    14.9036  14.9036  14.9090  14.9091  15.1073  15.1074  15.2014  15.2015
    15.2569  15.2570  15.3265  15.3265  15.3417  15.3418  15.4845  15.4846
    15.5355  15.5356  15.5476  15.5477  15.6465  15.6466  15.6840  15.6840
    15.6990  15.6990  15.7430  15.7430  15.7886  15.7887  15.8960  15.9313
    15.9314  15.9605  15.9605  16.0655  16.1195  16.1195  16.1198  16.1199
    16.1417  16.1417  16.1935  16.2057  16.2420  16.2604  16.2604  16.3049
    16.3050  16.3390  16.4343  16.4343  16.5767  16.6195  16.6195  16.6444
    16.6458  16.6463  16.6743  16.6743  16.6819  16.6819  16.8359  16.8784
    16.8785  16.9196  16.9257  16.9322  17.1066  17.1111  17.1111  17.1243
    17.3480  17.3480  17.4742  17.4743  17.4751  17.4982  17.4983  17.6700
    17.6701  17.7078  17.7079  17.7152  17.7153  17.7301  17.7303  17.7329
    17.7688  17.7688  17.8566  17.8566  17.8955  17.8970  17.8970  17.8975
    17.8976  17.9182  17.9182  17.9285  17.9285  18.0179  18.0777  18.1276
    18.1276  18.2103  18.2765  18.2765  18.3692  18.3692  18.4056  18.4443
    18.5280  18.5281  18.5357  18.5874  18.5932  18.5933  18.6142  18.6143
    18.7675  18.7676  18.7808  18.8803  18.8820  18.8820  18.9095  18.9176
    18.9224  18.9225  18.9630  19.0261  19.0261  19.0266  19.0266  19.1016
    19.2191  19.2191  19.3331  19.4185  19.4185  19.4191  19.4191  19.6179
    19.6179  20.0267  20.0268  20.4422  20.7356  20.8048  20.9918  20.9918
    21.2753  21.2754  21.4595  21.8111  23.3138  23.3138  23.8610  23.8610
    23.9154  23.9154  24.9296  24.9296  25.2715  25.2715  25.4783  25.4784
    26.7839  27.2004  27.2004  27.6824  27.9794  28.1730  28.1731  28.5105
    28.5105  28.8314  28.8315  29.0644  29.0865  29.0865  29.4761  29.4761
    29.6223  29.6223  29.6979  29.6981  30.1312  30.1312  30.1578  30.1579
    30.3811  30.3812

          k = 0.0556 0.3879 0.1667 ( 33092 PWs)   bands (ev):

   -64.9211 -64.9135 -64.9006 -64.8957 -64.8952 -64.8911 -64.8902 -64.8868
   -64.8856 -64.8850 -64.8836 -64.8827 -64.8820 -64.8813 -64.8782 -64.8779
   -64.8775 -64.8773 -64.8760 -64.8729 -64.8719 -64.8708 -64.8704 -64.8693
   -64.8680 -64.8678 -64.8674 -64.8665 -64.8651 -64.8649 -64.8644 -64.8642
   -30.7904 -30.7879 -30.7783 -30.7706 -30.7690 -30.7687 -30.7620 -30.7586
   -30.7584 -30.7457 -30.7455 -30.7439 -30.7357 -30.7262 -30.7245 -30.7197
   -30.7193 -30.7191 -30.7179 -30.7144 -30.7052 -30.7013 -30.6983 -30.6908
   -30.6827 -30.6787 -30.6737 -30.6698 -30.6666 -30.6585 -30.6499 -30.6453
   -30.6438 -30.6426 -30.6388 -30.6347 -30.6265 -30.6249 -30.6218 -30.6114
   -30.6091 -30.5993 -30.5759 -30.5758 -30.5735 -30.5732 -30.5731 -30.5703
   -30.5679 -30.5651 -30.5640 -30.5561 -30.5532 -30.5527 -30.5521 -30.5513
   -30.5476 -30.5476 -30.5455 -30.5421 -30.5348 -30.5341 -30.5306 -30.5304
   -30.5298 -30.5294 -30.5294 -30.5281 -30.5275 -30.5272 -30.5272 -30.5161
   -30.5148 -30.5144 -30.5071 -30.5070 -30.5057 -30.5046 -30.5040 -30.5024
   -30.5015 -30.5005 -30.4947 -30.4946 -30.4931 -30.4909 -30.4882 -30.4857
   -30.4852 -30.4830 -30.4771 -30.4722 -30.4718 -30.4652 -30.4547 -30.4488
    12.7451  13.3309  14.2452  14.2602  14.2760  14.2922  14.3059  14.3271
    14.4157  14.4383  14.4663  14.4827  14.5483  14.5572  14.5633  14.5887
    14.6120  14.6433  14.6507  14.6521  14.7117  14.7283  14.7771  14.7877
    14.8086  14.8380  14.9241  14.9417  14.9603  15.0415  15.1525  15.1736
    15.1783  15.1938  15.2323  15.2880  15.2936  15.4179  15.4288  15.4508
    15.4790  15.4945  15.5545  15.5715  15.5880  15.5947  15.5968  15.6038
    15.6431  15.6835  15.7424  15.7716  15.7810  15.8405  15.9050  15.9385
    15.9666  16.0155  16.1251  16.1264  16.1594  16.1899  16.1938  16.2012
    16.2041  16.2133  16.2628  16.2901  16.3146  16.3165  16.3167  16.3508
    16.3872  16.4363  16.4454  16.5794  16.5829  16.6362  16.6439  16.6545
    16.6588  16.6613  16.7006  16.7152  16.7343  16.7961  16.8040  16.8061
    16.8878  16.8972  16.9224  16.9898  17.0203  17.0472  17.0850  17.1072
    17.2616  17.2628  17.2844  17.3048  17.3175  17.3358  17.4328  17.5215
    17.5269  17.5466  17.6105  17.6587  17.7068  17.7274  17.7345  17.7387
    17.7420  17.7643  17.8088  17.8399  17.8789  17.9015  17.9101  17.9182
    17.9683  17.9745  18.0226  18.0650  18.0781  18.1293  18.1578  18.1694
    18.2009  18.2036  18.2133  18.3401  18.3595  18.3632  18.3897  18.3960
    18.5096  18.5458  18.5867  18.6207  18.6536  18.6785  18.6802  18.6868
    18.6904  18.6963  18.7206  18.7815  18.7862  18.8863  18.8898  18.9145
    18.9374  18.9797  18.9827  19.0274  19.0282  19.0288  19.0317  19.1219
    19.1957  19.2699  19.3464  19.3506  19.3514  19.3542  19.5861  19.6054
    19.7095  19.9804  20.0052  20.2600  20.5121  20.5851  20.7907  21.1147
    21.6131  21.8898  21.9675  22.4061  22.7820  23.3302  23.5181  23.8695
    24.1132  24.3773  24.4346  24.7917  24.9802  25.4307  25.5072  26.0309
    26.4652  26.7887  27.4152  27.4910  27.4992  27.6966  27.9639  27.9934
    28.2174  28.2250  28.4581  28.7574  28.8913  29.0830  29.4542  29.5315
    29.6542  29.8315  29.8551  30.0030  30.0894  30.2807  30.2952  30.3391
    30.4129  30.6872

          k = 0.0556 0.3879 0.2778 ( 33102 PWs)   bands (ev):

   -64.9194 -64.9120 -64.9053 -64.8998 -64.8943 -64.8905 -64.8895 -64.8873
   -64.8864 -64.8853 -64.8839 -64.8825 -64.8809 -64.8786 -64.8775 -64.8765
   -64.8761 -64.8752 -64.8741 -64.8740 -64.8723 -64.8714 -64.8702 -64.8685
   -64.8685 -64.8682 -64.8682 -64.8668 -64.8664 -64.8660 -64.8648 -64.8644
   -30.7867 -30.7858 -30.7673 -30.7630 -30.7618 -30.7612 -30.7592 -30.7578
   -30.7554 -30.7429 -30.7412 -30.7410 -30.7383 -30.7346 -30.7294 -30.7288
   -30.7287 -30.7224 -30.7214 -30.7204 -30.7152 -30.7119 -30.7046 -30.7037
   -30.7023 -30.6887 -30.6798 -30.6780 -30.6688 -30.6570 -30.6454 -30.6404
   -30.6368 -30.6261 -30.6248 -30.6199 -30.6197 -30.6181 -30.6093 -30.6060
   -30.5945 -30.5869 -30.5850 -30.5809 -30.5770 -30.5766 -30.5707 -30.5692
   -30.5672 -30.5642 -30.5640 -30.5586 -30.5578 -30.5578 -30.5537 -30.5470
   -30.5467 -30.5452 -30.5450 -30.5444 -30.5421 -30.5369 -30.5343 -30.5331
   -30.5317 -30.5295 -30.5255 -30.5253 -30.5235 -30.5209 -30.5209 -30.5206
   -30.5143 -30.5127 -30.5119 -30.5096 -30.5072 -30.5072 -30.5071 -30.5070
   -30.5007 -30.5001 -30.4979 -30.4962 -30.4948 -30.4942 -30.4940 -30.4896
   -30.4848 -30.4846 -30.4765 -30.4664 -30.4646 -30.4606 -30.4591 -30.4469
    12.8792  13.4492  13.9487  14.2726  14.3386  14.3415  14.3533  14.3706
    14.3751  14.5246  14.5256  14.5274  14.5372  14.5617  14.5641  14.6071
    14.6294  14.6352  14.6387  14.6834  14.6944  14.7182  14.7696  14.7836
    14.8024  14.8551  14.8813  14.8938  14.9651  14.9901  15.0170  15.0287
    15.0634  15.1625  15.1671  15.2023  15.2473  15.2734  15.2765  15.3275
    15.3410  15.3884  15.4182  15.4549  15.4934  15.6024  15.6447  15.6639
    15.6802  15.7320  15.7959  15.8251  15.8475  15.8721  15.9183  16.0296
    16.0450  16.0479  16.1328  16.1810  16.1922  16.2509  16.2982  16.3027
    16.3384  16.3426  16.3461  16.3751  16.4109  16.4388  16.4563  16.5387
    16.5489  16.5887  16.6117  16.6146  16.6222  16.6454  16.6562  16.6887
    16.6919  16.6991  16.7074  16.7950  16.7978  16.8133  16.8216  16.8304
    16.8451  16.9223  16.9230  16.9260  17.0021  17.0234  17.0774  17.0925
    17.1111  17.1540  17.1642  17.1840  17.1865  17.2220  17.2530  17.3440
    17.4578  17.4596  17.4854  17.4922  17.5048  17.5170  17.5705  17.5921
    17.6300  17.6585  17.7190  17.7351  17.7402  17.8291  17.9910  18.0352
    18.0472  18.0622  18.0700  18.0779  18.2015  18.2062  18.2211  18.2360
    18.2425  18.2816  18.3879  18.4087  18.4097  18.4194  18.4769  18.4910
    18.4918  18.5658  18.5927  18.6268  18.6315  18.6934  18.7168  18.7887
    18.8001  18.8004  18.8125  18.8133  18.8261  18.8262  18.8548  18.8761
    18.9694  19.0214  19.0249  19.0263  19.0306  19.0339  19.0367  19.0439
    19.0972  19.1671  19.2210  19.2234  19.2341  19.2539  19.5245  19.6091
    19.8340  19.9670  20.1026  20.1894  20.2527  20.3462  21.0847  21.5839
    22.2574  22.2717  22.4730  22.5810  22.8779  23.0605  23.3459  23.8174
    23.8546  24.0668  24.4762  25.0307  25.0467  25.4278  25.7310  26.2813
    26.4695  26.5715  26.7194  26.8547  27.0531  27.1178  27.3709  27.5174
    27.8323  27.8698  28.0513  28.2647  28.8246  29.1518  29.6980  29.8266
    29.9038  29.9384  30.0284  30.1103  30.1871  30.2811  30.8287  30.8422
    30.9973  31.0774

          k = 0.0556 0.3879 0.3889 ( 33119 PWs)   bands (ev):

   -64.9168 -64.9098 -64.9097 -64.9036 -64.8931 -64.8896 -64.8895 -64.8885
   -64.8869 -64.8857 -64.8856 -64.8837 -64.8770 -64.8765 -64.8753 -64.8751
   -64.8748 -64.8746 -64.8730 -64.8729 -64.8724 -64.8723 -64.8701 -64.8696
   -64.8694 -64.8692 -64.8689 -64.8686 -64.8672 -64.8656 -64.8653 -64.8646
   -30.7797 -30.7796 -30.7571 -30.7569 -30.7564 -30.7560 -30.7542 -30.7535
   -30.7518 -30.7508 -30.7422 -30.7409 -30.7406 -30.7384 -30.7374 -30.7302
   -30.7298 -30.7231 -30.7224 -30.7223 -30.7215 -30.7214 -30.7210 -30.7091
   -30.7070 -30.7065 -30.6922 -30.6776 -30.6731 -30.6571 -30.6565 -30.6315
   -30.6229 -30.6229 -30.6127 -30.6108 -30.6039 -30.5970 -30.5968 -30.5928
   -30.5913 -30.5910 -30.5909 -30.5878 -30.5856 -30.5691 -30.5672 -30.5632
   -30.5630 -30.5628 -30.5627 -30.5620 -30.5596 -30.5596 -30.5579 -30.5576
   -30.5553 -30.5549 -30.5421 -30.5420 -30.5401 -30.5398 -30.5395 -30.5348
   -30.5347 -30.5249 -30.5248 -30.5226 -30.5223 -30.5219 -30.5218 -30.5192
   -30.5137 -30.5133 -30.5130 -30.5123 -30.5122 -30.5100 -30.5066 -30.5030
   -30.5026 -30.5000 -30.4984 -30.4980 -30.4977 -30.4961 -30.4934 -30.4874
   -30.4869 -30.4837 -30.4833 -30.4655 -30.4597 -30.4577 -30.4577 -30.4478
    13.0754  13.6211  13.6237  14.0940  14.3179  14.4113  14.4223  14.4721
    14.4724  14.5039  14.5039  14.5057  14.6206  14.6207  14.6476  14.6650
    14.6650  14.6798  14.6809  14.6815  14.6821  14.7037  14.7057  14.8234
    14.8263  14.8395  14.8576  14.8920  14.8950  14.9966  14.9971  14.9995
    15.0004  15.0263  15.0266  15.0686  15.0689  15.2010  15.2018  15.2171
    15.2182  15.2444  15.2454  15.4814  15.4825  15.5287  15.7180  15.7198
    15.7230  15.7239  15.8213  15.8857  15.9241  15.9263  15.9268  15.9354
    15.9488  16.1364  16.2484  16.2496  16.3044  16.4252  16.4306  16.4389
    16.4685  16.4688  16.4721  16.4745  16.4766  16.4794  16.5107  16.5149
    16.5446  16.5580  16.6910  16.7031  16.7204  16.7250  16.7352  16.7597
    16.7705  16.7864  16.7889  16.8100  16.8109  16.8141  16.9191  16.9226
    16.9237  16.9271  16.9349  16.9370  16.9525  16.9566  17.0424  17.0520
    17.0530  17.0686  17.1489  17.1507  17.1513  17.2069  17.2502  17.2550
    17.2592  17.2692  17.2704  17.2851  17.2904  17.3100  17.3151  17.4675
    17.5744  17.5750  17.5976  17.5978  17.6999  17.7661  17.7683  17.8047
[...]
    23.9024  23.9025  23.9026  23.9026  26.0171  26.0175  26.0177  26.0181
    26.3711  26.3711  26.3711  26.3712  26.3712  26.3713  26.3714  26.3714
    27.1592  27.1594  27.1595  27.1596  29.7828  29.7830  29.7837  29.7839
    30.3213  30.3214  30.3214  30.3215  30.9118  30.9118  30.9119  30.9119
    31.4729  31.4732

          k =-0.5000 0.1663-0.5000 ( 33128 PWs)   bands (ev):

   -64.9104 -64.9100 -64.9096 -64.9093 -64.8945 -64.8942 -64.8938 -64.8934
   -64.8830 -64.8826 -64.8822 -64.8818 -64.8728 -64.8727 -64.8726 -64.8725
   -64.8724 -64.8724 -64.8723 -64.8721 -64.8720 -64.8720 -64.8718 -64.8717
   -64.8717 -64.8716 -64.8715 -64.8714 -64.8671 -64.8668 -64.8664 -64.8660
   -30.7605 -30.7604 -30.7604 -30.7603 -30.7603 -30.7602 -30.7601 -30.7601
   -30.7381 -30.7381 -30.7379 -30.7378 -30.7376 -30.7375 -30.7373 -30.7373
   -30.7365 -30.7361 -30.7358 -30.7355 -30.7340 -30.7338 -30.7335 -30.7333
   -30.6898 -30.6896 -30.6894 -30.6893 -30.6469 -30.6468 -30.6468 -30.6467
   -30.5910 -30.5909 -30.5909 -30.5909 -30.5909 -30.5909 -30.5909 -30.5909
   -30.5895 -30.5894 -30.5892 -30.5891 -30.5888 -30.5888 -30.5885 -30.5885
   -30.5714 -30.5713 -30.5713 -30.5712 -30.5502 -30.5502 -30.5500 -30.5499
   -30.5498 -30.5496 -30.5495 -30.5493 -30.5486 -30.5485 -30.5485 -30.5485
   -30.5292 -30.5290 -30.5288 -30.5287 -30.5276 -30.5274 -30.5274 -30.5271
   -30.5270 -30.5269 -30.5267 -30.5267 -30.5140 -30.5140 -30.5140 -30.5140
   -30.4887 -30.4887 -30.4886 -30.4886 -30.4841 -30.4838 -30.4836 -30.4834
   -30.4783 -30.4780 -30.4776 -30.4773 -30.4540 -30.4540 -30.4540 -30.4540
    13.5991  13.5996  13.6000  13.6005  14.2988  14.2990  14.2992  14.2994
    14.6410  14.6411  14.6411  14.6411  14.6462  14.6463  14.6464  14.6465
    14.7192  14.7193  14.7194  14.7196  14.7198  14.7200  14.7201  14.7202
    14.9185  14.9186  14.9186  14.9187  14.9188  14.9189  14.9190  14.9190
    15.0238  15.0238  15.0239  15.0241  15.0244  15.0246  15.0246  15.0247
    15.2151  15.2152  15.2152  15.2153  15.7148  15.7149  15.7152  15.7154
    15.7155  15.7156  15.7159  15.7160  16.0336  16.0340  16.0342  16.0346
    16.0516  16.0518  16.0518  16.0520  16.5302  16.5303  16.5304  16.5305
    16.6022  16.6023  16.6024  16.6024  16.6036  16.6038  16.6040  16.6042
    16.7693  16.7695  16.7697  16.7699  16.7729  16.7730  16.7730  16.7730
    16.7731  16.7731  16.7732  16.7733  16.8063  16.8064  16.8066  16.8067
    16.8417  16.8418  16.8418  16.8420  17.0918  17.0918  17.0919  17.0921
    17.0922  17.0923  17.0924  17.0924  17.1240  17.1242  17.1244  17.1245
    17.2126  17.2128  17.2129  17.2131  17.3291  17.3291  17.3293  17.3293
    17.3295  17.3295  17.3296  17.3296  17.6606  17.6608  17.6612  17.6614
    18.1367  18.1370  18.1373  18.1376  18.2766  18.2768  18.2768  18.2770
    18.2771  18.2773  18.2774  18.2775  18.2831  18.2832  18.2835  18.2837
    18.6084  18.6085  18.6087  18.6088  18.6714  18.6715  18.6719  18.6720
    19.0227  19.0227  19.0228  19.0230  19.0230  19.0233  19.0233  19.0234
    19.0466  19.0466  19.0466  19.0467  19.0467  19.0468  19.0468  19.0469
    19.0572  19.0574  19.0574  19.0575  19.0814  19.0816  19.0818  19.0819
    20.3284  20.3286  20.3289  20.3291  22.0447  22.0449  22.0450  22.0450
    22.0453  22.0453  22.0454  22.0456  23.7291  23.7291  23.7293  23.7293
    23.7295  23.7295  23.7297  23.7297  25.4235  25.4238  25.4241  25.4245
    26.6091  26.6092  26.6093  26.6094  26.6095  26.6096  26.6097  26.6097
    27.2903  27.2905  27.2906  27.2907  29.7497  29.7498  29.7499  29.7499
    30.4177  30.4180  30.4186  30.4189  30.5835  30.5836  30.5838  30.5840
    30.5842  30.5842

          k =-0.5000 0.2771-0.5000 ( 33064 PWs)   bands (ev):

   -64.9090 -64.9087 -64.9083 -64.9079 -64.8982 -64.8978 -64.8974 -64.8971
   -64.8793 -64.8790 -64.8785 -64.8782 -64.8728 -64.8727 -64.8726 -64.8725
   -64.8724 -64.8724 -64.8723 -64.8721 -64.8720 -64.8720 -64.8718 -64.8717
   -64.8717 -64.8716 -64.8715 -64.8714 -64.8684 -64.8681 -64.8677 -64.8673
   -30.7578 -30.7577 -30.7576 -30.7576 -30.7575 -30.7574 -30.7573 -30.7573
   -30.7424 -30.7423 -30.7422 -30.7420 -30.7419 -30.7417 -30.7417 -30.7414
   -30.7411 -30.7411 -30.7409 -30.7408 -30.7407 -30.7405 -30.7404 -30.7403
   -30.6703 -30.6701 -30.6699 -30.6698 -30.6311 -30.6310 -30.6309 -30.6308
   -30.5909 -30.5909 -30.5909 -30.5909 -30.5908 -30.5908 -30.5908 -30.5908
   -30.5900 -30.5900 -30.5898 -30.5897 -30.5895 -30.5894 -30.5892 -30.5892
   -30.5871 -30.5870 -30.5870 -30.5869 -30.5487 -30.5486 -30.5484 -30.5483
   -30.5467 -30.5466 -30.5465 -30.5463 -30.5463 -30.5461 -30.5460 -30.5458
   -30.5456 -30.5456 -30.5455 -30.5455 -30.5300 -30.5298 -30.5298 -30.5295
   -30.5295 -30.5292 -30.5292 -30.5291 -30.5220 -30.5220 -30.5220 -30.5220
   -30.4807 -30.4806 -30.4806 -30.4806 -30.4751 -30.4749 -30.4746 -30.4745
   -30.4730 -30.4727 -30.4723 -30.4721 -30.4569 -30.4569 -30.4569 -30.4568
    13.6664  13.6669  13.6672  13.6677  14.1564  14.1566  14.1569  14.1571
    14.6759  14.6759  14.6760  14.6760  14.6965  14.6966  14.6966  14.6967
    14.6971  14.6972  14.6973  14.6973  14.7011  14.7012  14.7012  14.7013
    14.8496  14.8496  14.8497  14.8499  14.8500  14.8501  14.8502  14.8502
    15.1622  15.1622  15.1624  15.1624  15.1629  15.1629  15.1631  15.1631
    15.2711  15.2712  15.2713  15.2713  15.7035  15.7036  15.7040  15.7040
    15.7042  15.7042  15.7046  15.7047  15.8301  15.8304  15.8306  15.8309
    16.1440  16.1443  16.1443  16.1444  16.5429  16.5431  16.5432  16.5435
    16.6760  16.6760  16.6761  16.6761  16.6799  16.6801  16.6803  16.6806
    16.7525  16.7528  16.7529  16.7531  16.7535  16.7535  16.7538  16.7538
    16.7569  16.7569  16.7569  16.7570  16.7571  16.7571  16.7572  16.7573
    16.7944  16.7944  16.7945  16.7947  17.0593  17.0593  17.0594  17.0596
    17.0596  17.0597  17.0598  17.0599  17.1292  17.1295  17.1295  17.1297
    17.2763  17.2765  17.2767  17.2769  17.4044  17.4044  17.4045  17.4045
    17.4047  17.4047  17.4048  17.4048  17.7891  17.7892  17.7897  17.7898
    17.9869  17.9871  17.9874  17.9876  18.0202  18.0203  18.0204  18.0206
    18.0206  18.0209  18.0209  18.0210  18.2307  18.2309  18.2311  18.2313
    18.2909  18.2910  18.2912  18.2913  18.4958  18.4959  18.4963  18.4964
    19.1090  19.1091  19.1091  19.1091  19.1092  19.1092  19.1092  19.1093
    19.1251  19.1253  19.1253  19.1255  19.1479  19.1479  19.1480  19.1482
    19.1482  19.1483  19.1484  19.1484  19.1601  19.1602  19.1604  19.1606
    21.0806  21.0809  21.0812  21.0814  22.2270  22.2271  22.2272  22.2273
    22.2275  22.2276  22.2277  22.2278  23.4480  23.4480  23.4481  23.4483
    23.4484  23.4486  23.4487  23.4487  24.5810  24.5814  24.5817  24.5820
    27.0260  27.0261  27.0262  27.0263  27.0264  27.0266  27.0266  27.0267
    27.5192  27.5193  27.5195  27.5195  29.2040  29.2041  29.2042  29.2042
    29.7301  29.7301  29.7303  29.7304  29.7306  29.7307  29.7309  29.7309
    31.3665  31.3674

          k =-0.5000 0.3879-0.5000 ( 33108 PWs)   bands (ev):

   -64.9071 -64.9067 -64.9063 -64.9060 -64.9016 -64.9012 -64.9008 -64.9005
   -64.8760 -64.8756 -64.8752 -64.8749 -64.8728 -64.8727 -64.8726 -64.8725
   -64.8724 -64.8724 -64.8723 -64.8721 -64.8720 -64.8720 -64.8718 -64.8717
   -64.8717 -64.8716 -64.8715 -64.8714 -64.8703 -64.8700 -64.8696 -64.8692
   -30.7540 -30.7540 -30.7539 -30.7538 -30.7537 -30.7536 -30.7536 -30.7535
   -30.7474 -30.7472 -30.7470 -30.7469 -30.7467 -30.7467 -30.7464 -30.7462
   -30.7452 -30.7451 -30.7450 -30.7449 -30.7448 -30.7446 -30.7445 -30.7444
   -30.6493 -30.6491 -30.6490 -30.6488 -30.6119 -30.6118 -30.6116 -30.6115
   -30.6066 -30.6065 -30.6064 -30.6063 -30.5909 -30.5909 -30.5908 -30.5908
   -30.5907 -30.5907 -30.5907 -30.5907 -30.5904 -30.5904 -30.5903 -30.5902
   -30.5900 -30.5900 -30.5899 -30.5898 -30.5696 -30.5695 -30.5693 -30.5692
   -30.5423 -30.5423 -30.5422 -30.5421 -30.5419 -30.5418 -30.5416 -30.5415
   -30.5414 -30.5413 -30.5413 -30.5413 -30.5334 -30.5333 -30.5333 -30.5331
   -30.5329 -30.5327 -30.5326 -30.5326 -30.5294 -30.5294 -30.5293 -30.5293
   -30.4732 -30.4732 -30.4732 -30.4732 -30.4697 -30.4694 -30.4692 -30.4691
   -30.4690 -30.4688 -30.4685 -30.4683 -30.4612 -30.4612 -30.4612 -30.4612
    13.7620  13.7625  13.7628  13.7633  14.0142  14.0145  14.0148  14.0151
    14.7001  14.7001  14.7002  14.7002  14.7007  14.7007  14.7008  14.7008
    14.7073  14.7073  14.7074  14.7074  14.7290  14.7291  14.7292  14.7293
    14.7821  14.7821  14.7822  14.7823  14.7825  14.7827  14.7827  14.7828
    15.3209  15.3210  15.3210  15.3211  15.3215  15.3217  15.3217  15.3218
    15.3602  15.3603  15.3604  15.3605  15.6219  15.6219  15.6222  15.6224
    15.6224  15.6226  15.6229  15.6229  15.6437  15.6440  15.6442  15.6444
    16.2719  16.2721  16.2721  16.2722  16.5141  16.5142  16.5143  16.5145
    16.6979  16.6979  16.6981  16.6982  16.7281  16.7282  16.7284  16.7285
    16.7305  16.7307  16.7308  16.7310  16.7530  16.7530  16.7532  16.7533
    16.7774  16.7774  16.7775  16.7775  16.8102  16.8103  16.8103  16.8104
    16.8106  16.8106  16.8107  16.8108  16.9987  16.9988  16.9989  16.9990
    16.9991  16.9992  16.9993  16.9994  17.0189  17.0191  17.0192  17.0194
    17.4457  17.4459  17.4461  17.4463  17.4945  17.4945  17.4946  17.4947
    17.4948  17.4949  17.4950  17.4950  17.7920  17.7921  17.7921  17.7923
    17.7923  17.7926  17.7926  17.7927  17.8106  17.8108  17.8111  17.8113
    17.9493  17.9495  17.9499  17.9500  18.1395  18.1396  18.1398  18.1400
    18.1675  18.1677  18.1680  18.1681  18.3119  18.3120  18.3124  18.3125
    19.1724  19.1725  19.1725  19.1726  19.1727  19.1727  19.1727  19.1728
    19.1809  19.1811  19.1812  19.1813  19.2030  19.2032  19.2033  19.2035
    19.2097  19.2098  19.2098  19.2099  19.2100  19.2101  19.2101  19.2102
    21.8982  21.8985  21.8988  21.8991  22.4823  22.4824  22.4824  22.4826
    22.4828  22.4829  22.4830  22.4831  23.1209  23.1209  23.1210  23.1213
    23.1213  23.1215  23.1216  23.1216  23.6728  23.6731  23.6734  23.6737
    27.5692  27.5693  27.5694  27.5696  27.5697  27.5699  27.5700  27.5701
    27.8375  27.8377  27.8378  27.8379  28.6944  28.6945  28.6946  28.6947
    28.9349  28.9350  28.9351  28.9353  28.9355  28.9356  28.9357  28.9358
    32.4340  32.4346

          k =-0.5000-0.4988-0.5000 ( 33064 PWs)   bands (ev):

   -64.9047 -64.9045 -64.9043 -64.9041 -64.9039 -64.9037 -64.9035 -64.9034
   -64.8733 -64.8731 -64.8730 -64.8728 -64.8727 -64.8726 -64.8725 -64.8725
   -64.8724 -64.8723 -64.8723 -64.8722 -64.8722 -64.8721 -64.8720 -64.8720
   -64.8719 -64.8717 -64.8717 -64.8716 -64.8715 -64.8715 -64.8713 -64.8711
   -30.7498 -30.7497 -30.7497 -30.7497 -30.7496 -30.7496 -30.7494 -30.7494
   -30.7494 -30.7493 -30.7493 -30.7492 -30.7492 -30.7491 -30.7491 -30.7491
   -30.7486 -30.7485 -30.7483 -30.7483 -30.7481 -30.7480 -30.7478 -30.7478
   -30.6277 -30.6277 -30.6276 -30.6275 -30.6274 -30.6274 -30.6273 -30.6273
   -30.5911 -30.5910 -30.5910 -30.5909 -30.5908 -30.5908 -30.5908 -30.5907
   -30.5907 -30.5907 -30.5907 -30.5906 -30.5906 -30.5906 -30.5906 -30.5905
   -30.5905 -30.5905 -30.5904 -30.5904 -30.5904 -30.5904 -30.5903 -30.5902
   -30.5377 -30.5377 -30.5376 -30.5376 -30.5375 -30.5374 -30.5374 -30.5374
   -30.5371 -30.5371 -30.5371 -30.5371 -30.5369 -30.5369 -30.5368 -30.5368
   -30.5360 -30.5360 -30.5360 -30.5360 -30.5359 -30.5359 -30.5358 -30.5358
   -30.4678 -30.4677 -30.4676 -30.4676 -30.4674 -30.4673 -30.4670 -30.4670
   -30.4668 -30.4667 -30.4666 -30.4666 -30.4666 -30.4666 -30.4665 -30.4665
    13.8800  13.8804  13.8805  13.8807  13.8808  13.8811  13.8812  13.8815
    14.7284  14.7285  14.7286  14.7287  14.7288  14.7288  14.7289  14.7290
    14.7298  14.7298  14.7298  14.7299  14.7299  14.7299  14.7300  14.7301
    14.7303  14.7303  14.7304  14.7305  14.7305  14.7305  14.7306  14.7306
    15.4826  15.4827  15.4829  15.4830  15.4830  15.4831  15.4831  15.4833
    15.4833  15.4834  15.4835  15.4836  15.4837  15.4838  15.4838  15.4838
    15.4847  15.4850  15.4850  15.4852  15.4853  15.4854  15.4855  15.4857
    16.4115  16.4117  16.4117  16.4117  16.4117  16.4118  16.4118  16.4118
    16.7090  16.7091  16.7091  16.7092  16.7093  16.7093  16.7093  16.7095
    16.7289  16.7289  16.7290  16.7290  16.7291  16.7292  16.7292  16.7293
    16.8963  16.8965  16.8965  16.8966  16.8966  16.8967  16.8967  16.8968
    16.9074  16.9075  16.9076  16.9076  16.9077  16.9077  16.9078  16.9078
    16.9079  16.9079  16.9080  16.9080  16.9080  16.9081  16.9081  16.9083
    17.6166  17.6167  17.6167  17.6168  17.6168  17.6168  17.6169  17.6170
    17.6170  17.6170  17.6171  17.6171  17.6172  17.6172  17.6173  17.6174
    17.6263  17.6264  17.6265  17.6266  17.6268  17.6269  17.6269  17.6271
    18.1204  18.1205  18.1206  18.1207  18.1208  18.1209  18.1210  18.1211
    18.1269  18.1270  18.1271  18.1272  18.1274  18.1276  18.1276  18.1277
    19.2092  19.2093  19.2094  19.2094  19.2095  19.2095  19.2096  19.2097
    19.2129  19.2129  19.2130  19.2130  19.2130  19.2130  19.2131  19.2131
    19.2131  19.2132  19.2132  19.2133  19.2133  19.2133  19.2133  19.2134
    22.7682  22.7682  22.7685  22.7686  22.7688  22.7689  22.7691  22.7692
    22.7887  22.7888  22.7889  22.7891  22.7891  22.7891  22.7892  22.7892
    22.7894  22.7894  22.7895  22.7895  22.7896  22.7897  22.7898  22.7898
    28.2105  28.2107  28.2108  28.2108  28.2109  28.2110  28.2110  28.2111
    28.2112  28.2113  28.2113  28.2114  28.2115  28.2116  28.2116  28.2117
    28.2339  28.2341  28.2342  28.2343  28.2343  28.2344  28.2345  28.2346
    33.5310  33.5324

     the Fermi energy is    19.2334 ev

!    total energy              =  -16384.95890140 Ry
     Harris-Foulkes estimate   =  -16384.95889038 Ry
     estimated scf accuracy    <       0.00000057 Ry

     total all-electron energy =   -322945.812609 Ry

     The total energy is the sum of the following terms:

     one-electron contribution =   -2492.81368149 Ry
     hartree contribution      =    1663.08467146 Ry
     xc contribution           =    -986.47081887 Ry
     ewald contribution        =   -6401.36857235 Ry
     one-center paw contrib.   =   -8167.42420457 Ry
     smearing contrib. (-TS)   =       0.03370441 Ry

     convergence has been achieved in  11 iterations

     Forces acting on atoms (cartesian axes, Ry/au):

     atom    1 type  1   force =     0.00000000   -0.00000000    0.00000000
     atom    2 type  1   force =    -0.00000372    0.00025342    0.00000000
     atom    3 type  1   force =    -0.00003054    0.00000000   -0.00003054
     atom    4 type  1   force =     0.00000000    0.00025342   -0.00000372
     atom    5 type  1   force =     0.00000000    0.00000000    0.00000000
     atom    6 type  1   force =     0.00004314    0.00042530    0.00000000
     atom    7 type  1   force =    -0.00003054    0.00000000    0.00003054
     atom    8 type  1   force =     0.00000000    0.00025342    0.00000372
     atom    9 type  1   force =     0.00000000   -0.00000000    0.00000000
     atom   10 type  1   force =    -0.00000372   -0.00025342   -0.00000000
     atom   11 type  1   force =     0.00005920    0.00000000    0.00005920
     atom   12 type  1   force =     0.00000000   -0.00025342   -0.00000372
     atom   13 type  1   force =     0.00000000    0.00000000    0.00000000
     atom   14 type  1   force =     0.00004314   -0.00042530    0.00000000
     atom   15 type  1   force =     0.00005920    0.00000000   -0.00005920
     atom   16 type  1   force =     0.00000000   -0.00025342    0.00000372
     atom   17 type  1   force =     0.00000000    0.00000000    0.00000000
     atom   18 type  1   force =     0.00000372    0.00025342   -0.00000000
     atom   19 type  1   force =     0.00003054    0.00000000   -0.00003054
     atom   20 type  1   force =     0.00000000    0.00042530    0.00004314
     atom   21 type  1   force =     0.00000000   -0.00000000    0.00000000
     atom   22 type  1   force =    -0.00004314    0.00042530    0.00000000
     atom   23 type  1   force =     0.00003054   -0.00000000    0.00003054
     atom   24 type  1   force =     0.00000000    0.00042530   -0.00004314
     atom   25 type  1   force =     0.00000000    0.00000000    0.00000000
     atom   26 type  1   force =     0.00000372   -0.00025342   -0.00000000
     atom   27 type  1   force =    -0.00005920    0.00000000    0.00005920
     atom   28 type  1   force =     0.00000000   -0.00042530    0.00004314
     atom   29 type  1   force =     0.00000000   -0.00000000    0.00000000
     atom   30 type  1   force =    -0.00004314   -0.00042530    0.00000000
     atom   31 type  1   force =    -0.00005920   -0.00000000   -0.00005920
     atom   32 type  1   force =     0.00000000   -0.00042530   -0.00004314

     Total force =     0.001418     Total SCF correction =     0.007184
     SCF correction compared to forces is large: reduce conv_thr to get better values


     Computing stress (Cartesian axis) and pressure

          total   stress  (Ry/bohr**3)                   (kbar)     P=   -2.65
  -0.00001394   0.00000000   0.00000000         -2.05      0.00      0.00
   0.00000000  -0.00002623   0.00000000          0.00     -3.86      0.00
   0.00000000   0.00000000  -0.00001394          0.00      0.00     -2.05


     Writing output data file YCQOMAgLOlXHTNVp.save/
 
     init_run     :     41.22s CPU     44.89s WALL (       1 calls)
     electrons    :   1953.73s CPU   2060.88s WALL (       1 calls)
     forces       :     18.48s CPU     19.34s WALL (       1 calls)
     stress       :    184.78s CPU    185.81s WALL (       1 calls)

     Called by init_run:
     wfcinit      :     40.41s CPU     44.02s WALL (       1 calls)
     potinit      :      0.37s CPU      0.38s WALL (       1 calls)
     hinit0       :      0.25s CPU      0.25s WALL (       1 calls)

     Called by electrons:
     c_bands      :   1775.53s CPU   1862.78s WALL (      12 calls)
     sum_band     :    174.15s CPU    193.62s WALL (      12 calls)
     v_of_rho     :      0.33s CPU      0.37s WALL (      12 calls)
     newd         :      0.83s CPU      1.11s WALL (      12 calls)
     PAW_pot      :      3.08s CPU      3.13s WALL (      12 calls)
     mix_rho      :      0.09s CPU      0.10s WALL (      12 calls)

     Called by c_bands:
     init_us_2    :     10.82s CPU     10.88s WALL (    2025 calls)
     cegterg      :   1714.93s CPU   1801.87s WALL (     900 calls)

     Called by sum_band:
     sum_band:bec :      1.39s CPU      1.41s WALL (     900 calls)
     addusdens    :      0.95s CPU      1.26s WALL (      12 calls)

     Called by *egterg:
     h_psi        :    693.29s CPU    771.70s WALL (    2658 calls)
     s_psi        :     85.14s CPU     85.43s WALL (    2658 calls)
     g_psi        :      2.45s CPU      2.46s WALL (    1683 calls)
     cdiaghg      :    660.40s CPU    662.68s WALL (    2508 calls)

     Called by h_psi:
     h_psi:pot    :    686.52s CPU    764.66s WALL (    2658 calls)
     h_psi:calbec :     88.57s CPU     92.97s WALL (    2658 calls)
     vloc_psi     :    513.78s CPU    587.08s WALL (    2658 calls)
     add_vuspsi   :     84.15s CPU     84.60s WALL (    2658 calls)

     General routines
     calbec       :    155.77s CPU    163.13s WALL (    3933 calls)
     fft          :      0.33s CPU      0.37s WALL (     181 calls)
     ffts         :      0.03s CPU      0.03s WALL (      24 calls)
     fftw         :    598.27s CPU    683.74s WALL ( 1695782 calls)
     interpolate  :      0.04s CPU      0.05s WALL (      12 calls)
 
     Parallel routines
     fft_scatt_xy :     48.43s CPU     54.43s WALL ( 1695987 calls)
     fft_scatt_yz :    395.63s CPU    456.58s WALL ( 1695987 calls)
 
     PWSCF        : 36m45.26s CPU    40m 9.06s WALL

 
   This run was terminated on:  15:59:42  11Nov2020            

=------------------------------------------------------------------------------=
   JOB DONE.
=------------------------------------------------------------------------------=
