--------------------------------------------------------------------------
WARNING: No preset parameters were found for the device that Open MPI
detected:

  Local host:            bear-pg0206u14b
  Device name:           mlx5_0
  Device vendor ID:      0x02c9
  Device vendor part ID: 4123

Default device parameters will be used, which may result in lower
performance.  You can edit any of the files specified by the
btl_openib_device_param_files MCA parameter to set values for your
device.

NOTE: You can turn off this warning by setting the MCA parameter
      btl_openib_warn_no_device_params_found to 0.
--------------------------------------------------------------------------
--------------------------------------------------------------------------
WARNING: There was an error initializing an OpenFabrics device.

  Local host:   bear-pg0206u14b
  Local device: mlx5_0
--------------------------------------------------------------------------

     Program PWSCF v.6.3 starts on 11Nov2020 at 14:39: 9 

     This program is part of the open-source Quantum ESPRESSO suite
     for quantum simulation of materials; please cite
         "P. Giannozzi et al., J. Phys.:Condens. Matter 21 395502 (2009);
         "P. Giannozzi et al., J. Phys.:Condens. Matter 29 465901 (2017);
          URL http://www.quantum-espresso.org", 
     in publications or presentations arising from this work. More details at
     http://www.quantum-espresso.org/quote

     Parallel version (MPI & OpenMP), running on      20 processor cores
     Number of MPI processes:                20
     Threads/MPI process:                     1

     MPI processes distributed on     1 nodes
     R & G space division:  proc/nbgrp/npool/nimage =      20
     Reading input from wd/ec/ec_2_003.in
Warning: card &IONS ignored
Warning: card ION_DYNAMICS = 'BFGS', ignored
Warning: card / ignored
Warning: card &CELL ignored
Warning: card CELL_DYNAMICS = 'BFGS', ignored
Warning: card CELL_FACTOR = 2.0, ignored
Warning: card PRESS = 0.0, ignored
Warning: card / ignored

     Current dimensions of program PWSCF are:
     Max number of different atomic species (ntypx) = 10
     Max number of k-points (npk) =  40000
     Max angular momentum in pseudopotentials (lmaxx) =  3
               file Pd.pbe-spn-kjpaw_psl.1.0.0.UPF: wavefunction(s)  4S 5S 4D renormalized

     Subspace diagonalization in iterative solution of the eigenvalue problem:
     a serial algorithm will be used

 
     Parallelization info
     --------------------
     sticks:   dense  smooth     PW     G-vecs:    dense   smooth      PW
     Min         376     249     67                24631    13217    1873
     Max         378     250     68                24633    13219    1878
     Sum        7543    4985   1353               492643   264363   37537
 


     bravais-lattice index     =            0
     lattice parameter (alat)  =      14.8394  a.u.
     unit-cell volume          =    3273.2109 (a.u.)^3
     number of atoms/cell      =           32
     number of atomic types    =            1
     number of electrons       =       576.00
     number of Kohn-Sham states=          346
     kinetic-energy cutoff     =      71.0000  Ry
     charge density cutoff     =     430.0000  Ry
     convergence threshold     =      1.0E-06
     mixing beta               =       0.1000
     number of iterations used =           10  plain     mixing
     Exchange-correlation      = SLA PW PBX PBC ( 1  4  3  4 0 0)

     celldm(1)=  14.839420  celldm(2)=   0.000000  celldm(3)=   0.000000
     celldm(4)=   0.000000  celldm(5)=   0.000000  celldm(6)=   0.000000

     crystal axes: (cart. coord. in units of alat)
               a(1) = (   1.000000   0.000000   0.000000 )  
               a(2) = (   0.000000   1.001667   0.000000 )  
               a(3) = (   0.000000   0.000000   1.000000 )  

     reciprocal axes: (cart. coord. in units 2 pi/alat)
               b(1) = (  1.000000  0.000000  0.000000 )  
               b(2) = (  0.000000  0.998336  0.000000 )  
               b(3) = (  0.000000  0.000000  1.000000 )  


     PseudoPot. # 1 for Pd read from file:
     /rds/homes/b/bxp912/pp/Pd.pbe-spn-kjpaw_psl.1.0.0.UPF
     MD5 check sum: 790f2ebce206edfd9790dcb9844eca51
     Pseudo is Projector augmented-wave + core cor, Zval = 18.0
     Generated using "atomic" code by A. Dal Corso v.6.3
     Shape of augmentation charge: PSQ
     Using radial grid of 1235 points,  6 beta functions with: 
                l(1) =   0
                l(2) =   0
                l(3) =   1
                l(4) =   1
                l(5) =   2
                l(6) =   2
     Q(r) pseudized with 0 coefficients 


     atomic species   valence    mass     pseudopotential
        Pd            18.00   106.42000     Pd( 1.00)

     16 Sym. Ops., with inversion, found



   Cartesian axes

     site n.     atom                  positions (alat units)
         1           Pd  tau(   1) = (   0.0000000   0.0000000   0.0000000  )
         2           Pd  tau(   2) = (   0.2500045   0.2504211   0.0000000  )
         3           Pd  tau(   3) = (   0.2500045   0.0000000   0.2500040  )
         4           Pd  tau(   4) = (   0.0000000   0.2504211   0.2500040  )
         5           Pd  tau(   5) = (   0.0000000   0.0000000   0.4999990  )
         6           Pd  tau(   6) = (   0.2500116   0.2504283   0.4999990  )
         7           Pd  tau(   7) = (   0.2500045   0.0000000   0.7499950  )
         8           Pd  tau(   8) = (   0.0000000   0.2504211   0.7499950  )
         9           Pd  tau(   9) = (   0.0000000   0.5008331   0.0000000  )
        10           Pd  tau(  10) = (   0.2500045   0.7512452   0.0000000  )
        11           Pd  tau(  11) = (   0.2500116   0.5008331   0.2500109  )
        12           Pd  tau(  12) = (   0.0000000   0.7512452   0.2500040  )
        13           Pd  tau(  13) = (   0.0000000   0.5008331   0.4999990  )
        14           Pd  tau(  14) = (   0.2500116   0.7512381   0.4999990  )
        15           Pd  tau(  15) = (   0.2500116   0.5008331   0.7499881  )
        16           Pd  tau(  16) = (   0.0000000   0.7512452   0.7499950  )
        17           Pd  tau(  17) = (   0.4999998   0.0000000   0.0000000  )
        18           Pd  tau(  18) = (   0.7499952   0.2504211   0.0000000  )
        19           Pd  tau(  19) = (   0.7499952   0.0000000   0.2500040  )
        20           Pd  tau(  20) = (   0.4999998   0.2504283   0.2500109  )
        21           Pd  tau(  21) = (   0.4999998   0.0000000   0.4999990  )
        22           Pd  tau(  22) = (   0.7499881   0.2504283   0.4999990  )
        23           Pd  tau(  23) = (   0.7499952   0.0000000   0.7499950  )
        24           Pd  tau(  24) = (   0.4999998   0.2504283   0.7499881  )
        25           Pd  tau(  25) = (   0.4999998   0.5008331   0.0000000  )
        26           Pd  tau(  26) = (   0.7499952   0.7512452   0.0000000  )
        27           Pd  tau(  27) = (   0.7499881   0.5008331   0.2500109  )
        28           Pd  tau(  28) = (   0.4999998   0.7512381   0.2500109  )
        29           Pd  tau(  29) = (   0.4999998   0.5008331   0.4999990  )
        30           Pd  tau(  30) = (   0.7499881   0.7512381   0.4999990  )
        31           Pd  tau(  31) = (   0.7499881   0.5008331   0.7499881  )
        32           Pd  tau(  32) = (   0.4999998   0.7512381   0.7499881  )

     number of k points=    75  Marzari-Vanderbilt smearing, width (Ry)=  0.0400
                       cart. coord. in units 2pi/alat
        k(    1) = (   0.0555556   0.0554631   0.0555556), wk =   0.0219479
        k(    2) = (   0.0555556   0.0554631   0.1666667), wk =   0.0438957
        k(    3) = (   0.0555556   0.0554631   0.2777778), wk =   0.0438957
        k(    4) = (   0.0555556   0.0554631   0.3888889), wk =   0.0438957
        k(    5) = (   0.0555556   0.0554631  -0.5000000), wk =   0.0219479
        k(    6) = (   0.0555556   0.1663894   0.0555556), wk =   0.0219479
        k(    7) = (   0.0555556   0.1663894   0.1666667), wk =   0.0438957
        k(    8) = (   0.0555556   0.1663894   0.2777778), wk =   0.0438957
        k(    9) = (   0.0555556   0.1663894   0.3888889), wk =   0.0438957
        k(   10) = (   0.0555556   0.1663894  -0.5000000), wk =   0.0219479
        k(   11) = (   0.0555556   0.2773156   0.0555556), wk =   0.0219479
        k(   12) = (   0.0555556   0.2773156   0.1666667), wk =   0.0438957
        k(   13) = (   0.0555556   0.2773156   0.2777778), wk =   0.0438957
        k(   14) = (   0.0555556   0.2773156   0.3888889), wk =   0.0438957
        k(   15) = (   0.0555556   0.2773156  -0.5000000), wk =   0.0219479
        k(   16) = (   0.0555556   0.3882418   0.0555556), wk =   0.0219479
        k(   17) = (   0.0555556   0.3882418   0.1666667), wk =   0.0438957
        k(   18) = (   0.0555556   0.3882418   0.2777778), wk =   0.0438957
        k(   19) = (   0.0555556   0.3882418   0.3888889), wk =   0.0438957
        k(   20) = (   0.0555556   0.3882418  -0.5000000), wk =   0.0219479
        k(   21) = (   0.0555556  -0.4991681   0.0555556), wk =   0.0109739
        k(   22) = (   0.0555556  -0.4991681   0.1666667), wk =   0.0219479
        k(   23) = (   0.0555556  -0.4991681   0.2777778), wk =   0.0219479
        k(   24) = (   0.0555556  -0.4991681   0.3888889), wk =   0.0219479
        k(   25) = (   0.0555556  -0.4991681  -0.5000000), wk =   0.0109739
        k(   26) = (   0.1666667   0.0554631   0.1666667), wk =   0.0219479
        k(   27) = (   0.1666667   0.0554631   0.2777778), wk =   0.0438957
        k(   28) = (   0.1666667   0.0554631   0.3888889), wk =   0.0438957
        k(   29) = (   0.1666667   0.0554631  -0.5000000), wk =   0.0219479
        k(   30) = (   0.1666667   0.1663894   0.1666667), wk =   0.0219479
        k(   31) = (   0.1666667   0.1663894   0.2777778), wk =   0.0438957
        k(   32) = (   0.1666667   0.1663894   0.3888889), wk =   0.0438957
        k(   33) = (   0.1666667   0.1663894  -0.5000000), wk =   0.0219479
        k(   34) = (   0.1666667   0.2773156   0.1666667), wk =   0.0219479
        k(   35) = (   0.1666667   0.2773156   0.2777778), wk =   0.0438957
        k(   36) = (   0.1666667   0.2773156   0.3888889), wk =   0.0438957
        k(   37) = (   0.1666667   0.2773156  -0.5000000), wk =   0.0219479
        k(   38) = (   0.1666667   0.3882418   0.1666667), wk =   0.0219479
        k(   39) = (   0.1666667   0.3882418   0.2777778), wk =   0.0438957
        k(   40) = (   0.1666667   0.3882418   0.3888889), wk =   0.0438957
        k(   41) = (   0.1666667   0.3882418  -0.5000000), wk =   0.0219479
        k(   42) = (   0.1666667  -0.4991681   0.1666667), wk =   0.0109739
        k(   43) = (   0.1666667  -0.4991681   0.2777778), wk =   0.0219479
        k(   44) = (   0.1666667  -0.4991681   0.3888889), wk =   0.0219479
        k(   45) = (   0.1666667  -0.4991681  -0.5000000), wk =   0.0109739
        k(   46) = (   0.2777778   0.0554631   0.2777778), wk =   0.0219479
        k(   47) = (   0.2777778   0.0554631   0.3888889), wk =   0.0438957
        k(   48) = (   0.2777778   0.0554631  -0.5000000), wk =   0.0219479
        k(   49) = (   0.2777778   0.1663894   0.2777778), wk =   0.0219479
        k(   50) = (   0.2777778   0.1663894   0.3888889), wk =   0.0438957
        k(   51) = (   0.2777778   0.1663894  -0.5000000), wk =   0.0219479
        k(   52) = (   0.2777778   0.2773156   0.2777778), wk =   0.0219479
        k(   53) = (   0.2777778   0.2773156   0.3888889), wk =   0.0438957
        k(   54) = (   0.2777778   0.2773156  -0.5000000), wk =   0.0219479
        k(   55) = (   0.2777778   0.3882418   0.2777778), wk =   0.0219479
        k(   56) = (   0.2777778   0.3882418   0.3888889), wk =   0.0438957
        k(   57) = (   0.2777778   0.3882418  -0.5000000), wk =   0.0219479
        k(   58) = (   0.2777778  -0.4991681   0.2777778), wk =   0.0109739
        k(   59) = (   0.2777778  -0.4991681   0.3888889), wk =   0.0219479
        k(   60) = (   0.2777778  -0.4991681  -0.5000000), wk =   0.0109739
        k(   61) = (   0.3888889   0.0554631   0.3888889), wk =   0.0219479
        k(   62) = (   0.3888889   0.0554631  -0.5000000), wk =   0.0219479
        k(   63) = (   0.3888889   0.1663894   0.3888889), wk =   0.0219479
        k(   64) = (   0.3888889   0.1663894  -0.5000000), wk =   0.0219479
        k(   65) = (   0.3888889   0.2773156   0.3888889), wk =   0.0219479
        k(   66) = (   0.3888889   0.2773156  -0.5000000), wk =   0.0219479
        k(   67) = (   0.3888889   0.3882418   0.3888889), wk =   0.0219479
        k(   68) = (   0.3888889   0.3882418  -0.5000000), wk =   0.0219479
        k(   69) = (   0.3888889  -0.4991681   0.3888889), wk =   0.0109739
        k(   70) = (   0.3888889  -0.4991681  -0.5000000), wk =   0.0109739
        k(   71) = (  -0.5000000   0.0554631  -0.5000000), wk =   0.0054870
        k(   72) = (  -0.5000000   0.1663894  -0.5000000), wk =   0.0054870
        k(   73) = (  -0.5000000   0.2773156  -0.5000000), wk =   0.0054870
        k(   74) = (  -0.5000000   0.3882418  -0.5000000), wk =   0.0054870
        k(   75) = (  -0.5000000  -0.4991681  -0.5000000), wk =   0.0027435

     Dense  grid:   492643 G-vectors     FFT dimensions: ( 100, 100, 100)

     Smooth grid:   264363 G-vectors     FFT dimensions: (  80,  80,  80)

     Estimated max dynamical RAM per process >     892.25 MB

     Estimated total dynamical RAM >      17.43 GB

     Check: negative/imaginary core charge=   -0.000002    0.000000

     Initial potential from superposition of free atoms

     starting charge  575.98776, renormalised to  576.00000
     Starting wfcs are  320 randomized atomic wfcs +   26 random wfcs
     Checking if some PAW data can be deallocated... 

     total cpu time spent up to now is       45.0 secs

     Self-consistent Calculation

     iteration #  1     ecut=    71.00 Ry     beta= 0.10
     Davidson diagonalization with overlap
     ethr =  1.00E-02,  avg # of iterations =  3.1

     Threshold (ethr) on eigenvalues was too large:
     Diagonalizing with lowered threshold

     Davidson diagonalization with overlap
     ethr =  8.40E-05,  avg # of iterations =  3.1

     total cpu time spent up to now is      492.1 secs

     total energy              =  -16385.02119376 Ry
     Harris-Foulkes estimate   =  -16385.08931200 Ry
     estimated scf accuracy    <       0.47798667 Ry

     iteration #  2     ecut=    71.00 Ry     beta= 0.10
     Davidson diagonalization with overlap
     ethr =  8.30E-05,  avg # of iterations =  1.0

     total cpu time spent up to now is      628.4 secs

     total energy              =  -16384.93073143 Ry
     Harris-Foulkes estimate   =  -16385.02902604 Ry
     estimated scf accuracy    <       0.26040824 Ry

     iteration #  3     ecut=    71.00 Ry     beta= 0.10
     Davidson diagonalization with overlap
     ethr =  4.52E-05,  avg # of iterations =  2.1

     total cpu time spent up to now is      815.8 secs

     total energy              =  -16384.96131974 Ry
     Harris-Foulkes estimate   =  -16384.96831765 Ry
     estimated scf accuracy    <       0.09088691 Ry

     iteration #  4     ecut=    71.00 Ry     beta= 0.10
     Davidson diagonalization with overlap
     ethr =  1.58E-05,  avg # of iterations =  1.5

     total cpu time spent up to now is      966.3 secs

     total energy              =  -16384.96235311 Ry
     Harris-Foulkes estimate   =  -16384.96473796 Ry
     estimated scf accuracy    <       0.02165198 Ry

     iteration #  5     ecut=    71.00 Ry     beta= 0.10
     Davidson diagonalization with overlap
     ethr =  3.76E-06,  avg # of iterations =  1.4

     total cpu time spent up to now is     1114.6 secs

     total energy              =  -16384.95756026 Ry
     Harris-Foulkes estimate   =  -16384.96254154 Ry
     estimated scf accuracy    <       0.01431868 Ry

     iteration #  6     ecut=    71.00 Ry     beta= 0.10
     Davidson diagonalization with overlap
     ethr =  2.49E-06,  avg # of iterations =  1.3

     total cpu time spent up to now is     1258.3 secs

     total energy              =  -16384.95857611 Ry
     Harris-Foulkes estimate   =  -16384.95865677 Ry
     estimated scf accuracy    <       0.00099827 Ry

     iteration #  7     ecut=    71.00 Ry     beta= 0.10
     Davidson diagonalization with overlap
     ethr =  1.73E-07,  avg # of iterations =  3.1

     total cpu time spent up to now is     1473.3 secs

     total energy              =  -16384.95867186 Ry
     Harris-Foulkes estimate   =  -16384.95870162 Ry
     estimated scf accuracy    <       0.00014140 Ry

     iteration #  8     ecut=    71.00 Ry     beta= 0.10
     Davidson diagonalization with overlap
     ethr =  2.45E-08,  avg # of iterations =  1.0

     total cpu time spent up to now is     1609.5 secs

     total energy              =  -16384.95866962 Ry
     Harris-Foulkes estimate   =  -16384.95867569 Ry
     estimated scf accuracy    <       0.00005510 Ry

     iteration #  9     ecut=    71.00 Ry     beta= 0.10
     Davidson diagonalization with overlap
     c_bands:  1 eigenvalues not converged
     ethr =  9.57E-09,  avg # of iterations =  1.3

     total cpu time spent up to now is     1750.6 secs

     total energy              =  -16384.95866878 Ry
     Harris-Foulkes estimate   =  -16384.95867076 Ry
     estimated scf accuracy    <       0.00003633 Ry

     iteration # 10     ecut=    71.00 Ry     beta= 0.10
     Davidson diagonalization with overlap
     ethr =  6.31E-09,  avg # of iterations =  2.1

     total cpu time spent up to now is     1947.1 secs

     total energy              =  -16384.95867605 Ry
     Harris-Foulkes estimate   =  -16384.95867316 Ry
     estimated scf accuracy    <       0.00000117 Ry

     iteration # 11     ecut=    71.00 Ry     beta= 0.10
     Davidson diagonalization with overlap
     ethr =  2.03E-10,  avg # of iterations =  2.0

     total cpu time spent up to now is     2118.0 secs

     End of self-consistent calculation

          k = 0.0556 0.0555 0.0556 ( 33044 PWs)   bands (ev):

   -64.9084 -64.8796 -64.8795 -64.8794 -64.8741 -64.8739 -64.8739 -64.8638
   -64.8637 -64.8637 -64.8614 -64.8611 -64.8609 -64.8608 -64.8608 -64.8607
   -64.8606 -64.8605 -64.8604 -64.8599 -64.8582 -64.8581 -64.8580 -64.8459
   -64.8453 -64.8452 -64.8451 -64.8450 -64.8449 -64.8448 -64.8447 -64.8443
   -30.7918 -30.7918 -30.7917 -30.7900 -30.7716 -30.7716 -30.7710 -30.6948
   -30.6937 -30.6936 -30.6905 -30.6905 -30.6894 -30.6893 -30.6893 -30.6892
   -30.6827 -30.6815 -30.6815 -30.6773 -30.6772 -30.6765 -30.6764 -30.6762
   -30.6762 -30.6588 -30.6588 -30.6578 -30.6578 -30.6577 -30.6576 -30.6174
   -30.6174 -30.6169 -30.5931 -30.5931 -30.5927 -30.5871 -30.5871 -30.5867
   -30.5778 -30.5778 -30.5777 -30.5777 -30.5772 -30.5772 -30.5628 -30.5628
   -30.5625 -30.5624 -30.5622 -30.5620 -30.5619 -30.5617 -30.5616 -30.5612
   -30.5612 -30.5604 -30.5597 -30.5596 -30.5589 -30.4971 -30.4971 -30.4962
   -30.4961 -30.4961 -30.4960 -30.4847 -30.4847 -30.4839 -30.4839 -30.4839
   -30.4838 -30.4809 -30.4809 -30.4802 -30.4769 -30.4763 -30.4762 -30.4758
   -30.4757 -30.4756 -30.4753 -30.4752 -30.4752 -30.4751 -30.4750 -30.4746
   -30.4746 -30.4736 -30.4687 -30.4687 -30.4681 -30.4231 -30.4208 -30.4207
    12.2635  14.0212  14.0212  14.0212  14.0888  14.1025  14.1025  14.1025
    14.2872  14.2928  14.2929  14.2956  14.2957  14.2957  14.4825  14.4880
    14.4880  15.0285  15.0285  15.0341  15.0342  15.0342  15.0343  15.1819
    15.1875  15.1875  15.3343  15.3347  15.3347  15.3672  15.3740  15.3741
    15.4165  15.4165  15.4174  15.4174  15.4176  15.4176  15.4182  15.4198
    15.4198  15.7580  15.7580  15.7615  15.7615  15.7626  15.7627  15.8641
    15.8696  15.8696  15.8857  15.8857  15.8914  15.8914  15.8921  15.8922
    15.9422  15.9486  15.9487  16.1126  16.1126  16.1165  16.1166  16.1181
    16.1182  16.2201  16.2201  16.2236  16.2247  16.2248  16.2249  16.2249
    16.2273  16.2273  16.3328  16.3328  16.3337  16.3902  16.3993  16.3993
    16.4109  16.4252  16.4266  16.4266  16.4358  16.4438  16.4638  16.4709
    17.2557  17.2640  17.2641  17.3206  17.3206  17.3243  17.3931  17.3931
    17.3936  17.3937  17.3965  17.3965  17.3995  17.3996  17.4022  17.4424
    17.4515  17.4516  17.5493  17.5494  17.5555  17.6692  17.6693  17.6710
    17.7928  17.7929  17.7985  17.8505  17.8506  17.8555  17.9244  17.9244
    17.9259  17.9259  17.9261  17.9261  17.9442  17.9443  17.9449  17.9842
    17.9981  17.9982  17.9984  17.9985  17.9999  18.0027  18.0027  18.1073
    18.1073  18.1116  18.4928  18.4928  18.4997  18.5946  18.5946  18.6005
    18.9774  18.9775  18.9821  19.1023  19.1024  19.1031  19.1262  19.1326
    19.1463  19.1512  19.1512  19.3782  19.3792  19.3792  19.4302  19.4303
    19.4306  19.4307  19.4357  19.4371  19.4371  19.4389  19.4389  20.1048
    20.4101  20.4101  20.4102  20.9272  20.9273  20.9367  21.4360  21.4360
    21.4365  21.4366  21.4476  21.4476  21.9644  21.9645  21.9774  22.5323
    22.5637  22.5637  26.2973  26.2973  26.2975  26.4542  27.4355  27.4355
    27.4499  27.4499  27.4644  27.4645  28.1274  28.1275  28.1410  28.1410
    28.1565  28.1567  29.5423  29.5424  29.5484  29.5484  29.5624  29.5624
    29.6841  29.7281  29.7281  30.6564  30.7039  30.7040  30.7090  30.7091
    30.7199  30.7200

          k = 0.0556 0.0555 0.1667 ( 33037 PWs)   bands (ev):

   -64.9074 -64.8849 -64.8791 -64.8789 -64.8737 -64.8735 -64.8684 -64.8667
   -64.8666 -64.8637 -64.8633 -64.8632 -64.8616 -64.8614 -64.8607 -64.8606
   -64.8602 -64.8599 -64.8581 -64.8577 -64.8577 -64.8557 -64.8556 -64.8460
   -64.8459 -64.8455 -64.8455 -64.8454 -64.8453 -64.8451 -64.8450 -64.8443
   -30.7891 -30.7874 -30.7873 -30.7842 -30.7683 -30.7678 -30.7664 -30.7052
   -30.7000 -30.6999 -30.6966 -30.6956 -30.6956 -30.6946 -30.6944 -30.6941
   -30.6920 -30.6838 -30.6825 -30.6808 -30.6801 -30.6760 -30.6750 -30.6726
   -30.6713 -30.6615 -30.6607 -30.6554 -30.6543 -30.6471 -30.6398 -30.6397
   -30.6223 -30.6217 -30.6083 -30.6077 -30.5932 -30.5928 -30.5927 -30.5920
   -30.5811 -30.5672 -30.5670 -30.5649 -30.5643 -30.5624 -30.5620 -30.5620
   -30.5615 -30.5598 -30.5597 -30.5584 -30.5575 -30.5569 -30.5566 -30.5560
   -30.5559 -30.5555 -30.5530 -30.5479 -30.5476 -30.5093 -30.5082 -30.4989
   -30.4989 -30.4941 -30.4932 -30.4884 -30.4877 -30.4866 -30.4865 -30.4851
   -30.4845 -30.4823 -30.4812 -30.4808 -30.4805 -30.4801 -30.4796 -30.4764
   -30.4764 -30.4759 -30.4758 -30.4755 -30.4749 -30.4732 -30.4730 -30.4726
   -30.4724 -30.4718 -30.4688 -30.4641 -30.4636 -30.4296 -30.4228 -30.4221
    12.3369  13.9938  14.0556  14.0675  14.0676  14.1167  14.1440  14.1440
    14.1574  14.3235  14.3377  14.3378  14.3386  14.3441  14.5346  14.5399
    14.5573  14.9481  14.9484  15.0092  15.0636  15.0689  15.0702  15.0756
    15.1033  15.1843  15.1844  15.2081  15.2134  15.2239  15.2296  15.2300
    15.3763  15.3765  15.3893  15.3957  15.4054  15.4075  15.4410  15.4448
    15.4885  15.4898  15.5635  15.7476  15.7491  15.7610  15.7645  15.8063
    15.8101  15.8158  15.8199  15.8744  15.8804  15.9631  15.9670  15.9827
    16.0280  16.0296  16.0763  16.0771  16.0806  16.0853  16.0869  16.1172
    16.1214  16.1645  16.1667  16.1933  16.1949  16.3597  16.3706  16.3749
    16.3751  16.3817  16.3947  16.3956  16.4139  16.4198  16.4398  16.4413
    16.4510  16.4578  16.4690  16.4694  16.4882  16.4998  16.5017  16.5063
    17.0666  17.0711  17.1799  17.1891  17.2022  17.2076  17.2598  17.2599
    17.2776  17.3225  17.3457  17.3491  17.4650  17.4756  17.4787  17.4895
    17.4913  17.5280  17.5299  17.5373  17.5412  17.7482  17.7527  17.7709
    17.7753  17.7795  17.8421  17.8422  17.9208  17.9222  17.9301  17.9311
    17.9317  17.9346  17.9545  18.0052  18.0090  18.0220  18.0224  18.0469
    18.1391  18.1401  18.1464  18.1468  18.1824  18.1858  18.2375  18.2549
    18.2586  18.2894  18.3944  18.5384  18.5444  18.6647  18.6677  18.6719
    18.6973  18.7146  18.7190  18.9296  19.0413  19.0415  19.0641  19.0789
    19.1205  19.1237  19.1257  19.1463  19.1529  19.3096  19.3595  19.3600
    19.3670  19.3678  19.3755  19.4285  19.4298  19.4309  19.4323  20.0947
    20.4643  20.4719  20.5794  20.5794  20.8099  20.8986  20.9468  20.9568
    21.4135  21.4141  21.9457  22.0039  22.0162  22.2012  22.5438  22.5578
    22.8242  22.8546  26.2962  26.4560  26.4567  26.7191  26.7404  26.7477
    26.7511  26.7539  27.3327  27.3466  27.5681  27.5828  28.2516  28.2658
    28.7666  28.7943  29.5859  29.6017  29.6707  29.7139  29.7207  29.8391
    29.8701  29.9215  29.9464  30.1308  30.1548  30.1826  30.2629  30.2643
    30.6781  30.7018

          k = 0.0556 0.0555 0.2778 ( 33038 PWs)   bands (ev):

   -64.9055 -64.8901 -64.8781 -64.8779 -64.8728 -64.8726 -64.8696 -64.8695
   -64.8657 -64.8655 -64.8636 -64.8632 -64.8620 -64.8614 -64.8607 -64.8606
   -64.8599 -64.8598 -64.8583 -64.8549 -64.8548 -64.8534 -64.8532 -64.8478
   -64.8466 -64.8464 -64.8463 -64.8462 -64.8458 -64.8451 -64.8450 -64.8443
   -30.7821 -30.7790 -30.7790 -30.7744 -30.7621 -30.7615 -30.7566 -30.7223
   -30.7166 -30.7165 -30.7116 -30.7112 -30.7084 -30.6981 -30.6972 -30.6959
   -30.6951 -30.6859 -30.6856 -30.6767 -30.6760 -30.6752 -30.6749 -30.6737
   -30.6622 -30.6614 -30.6605 -30.6592 -30.6495 -30.6484 -30.6307 -30.6300
   -30.6228 -30.6224 -30.6224 -30.6221 -30.6068 -30.6060 -30.6041 -30.6034
   -30.5713 -30.5709 -30.5628 -30.5618 -30.5611 -30.5601 -30.5586 -30.5555
   -30.5534 -30.5505 -30.5504 -30.5478 -30.5475 -30.5472 -30.5468 -30.5458
   -30.5457 -30.5377 -30.5338 -30.5335 -30.5279 -30.5211 -30.5196 -30.5043
   -30.5043 -30.4978 -30.4971 -30.4961 -30.4956 -30.4926 -30.4917 -30.4917
   -30.4890 -30.4884 -30.4881 -30.4879 -30.4821 -30.4804 -30.4775 -30.4765
   -30.4758 -30.4757 -30.4756 -30.4753 -30.4749 -30.4726 -30.4723 -30.4722
   -30.4692 -30.4621 -30.4617 -30.4609 -30.4602 -30.4407 -30.4270 -30.4260
    12.4820  13.6438  14.1218  14.1578  14.1578  14.1861  14.2264  14.2265
    14.2525  14.3785  14.4216  14.4220  14.4381  14.4432  14.5254  14.6355
    14.6405  14.8006  14.8009  14.8436  14.8565  14.9341  14.9341  14.9857
    15.0921  15.0935  15.1294  15.1338  15.1518  15.1568  15.1607  15.1637
    15.2603  15.2647  15.2763  15.2774  15.3878  15.3900  15.4325  15.4379
    15.5523  15.5544  15.6924  15.6941  15.7274  15.7297  15.7441  15.7461
    15.7501  15.7634  15.7670  15.7929  15.7937  15.9039  15.9066  15.9762
    15.9767  16.0300  16.0328  16.0343  16.1042  16.1065  16.1242  16.1287
    16.1313  16.1343  16.2018  16.2127  16.2137  16.3027  16.3347  16.3381
    16.3425  16.3943  16.3946  16.4028  16.4943  16.5257  16.5338  16.5454
    16.5520  16.5656  16.7092  16.7115  16.7277  16.7774  16.8624  16.8651
    16.9181  16.9254  16.9365  16.9401  17.0080  17.0876  17.0935  17.0936
    17.1109  17.1171  17.4178  17.4334  17.4360  17.5309  17.5336  17.5976
    17.5998  17.6137  17.6148  17.6719  17.6731  17.7025  17.7057  17.7661
    17.7693  17.8771  17.9083  17.9094  17.9097  17.9120  17.9328  17.9341
    17.9400  17.9401  18.0366  18.1374  18.1889  18.1895  18.2046  18.2047
    18.2149  18.2980  18.3020  18.3036  18.3443  18.3447  18.3456  18.3474
    18.3926  18.3943  18.4197  18.4352  18.4375  18.5079  18.6837  18.6871
    18.7438  18.7517  18.7574  18.7986  18.8976  18.8980  18.9473  18.9474
    18.9537  19.0285  19.0357  19.0395  19.0503  19.1752  19.2272  19.2280
    19.2331  19.2345  19.2617  19.4276  19.4293  19.4310  19.4319  20.0374
    20.0431  20.2665  20.4866  20.4950  20.8019  20.8023  20.8397  21.1795
    21.3654  21.3661  21.5908  21.9022  22.6392  22.6523  23.1848  23.1995
    23.3130  23.3423  25.8577  25.8711  25.9948  26.0232  26.4165  26.4309
    26.4673  26.7712  26.7722  27.1759  27.8158  27.8318  28.4896  28.5050
    28.8266  29.2677  29.2785  29.3710  29.3724  29.6016  29.6240  29.6441
    29.6858  29.7550  29.7633  29.9301  29.9996  30.0348  30.1668  30.1807
    30.1977  30.2030

          k = 0.0556 0.0555 0.3889 ( 33048 PWs)   bands (ev):

   -64.9028 -64.8949 -64.8766 -64.8764 -64.8722 -64.8721 -64.8715 -64.8714
   -64.8678 -64.8677 -64.8634 -64.8624 -64.8614 -64.8607 -64.8606 -64.8599
   -64.8594 -64.8584 -64.8584 -64.8523 -64.8522 -64.8512 -64.8511 -64.8506
   -64.8481 -64.8479 -64.8476 -64.8474 -64.8459 -64.8451 -64.8450 -64.8443
   -30.7712 -30.7671 -30.7670 -30.7612 -30.7530 -30.7525 -30.7423 -30.7403
   -30.7347 -30.7347 -30.7273 -30.7270 -30.7270 -30.7009 -30.6979 -30.6974
   -30.6929 -30.6924 -30.6911 -30.6910 -30.6816 -30.6814 -30.6646 -30.6634
   -30.6568 -30.6560 -30.6467 -30.6456 -30.6416 -30.6415 -30.6406 -30.6404
   -30.6361 -30.6354 -30.6199 -30.6190 -30.6176 -30.6167 -30.6065 -30.6065
   -30.5806 -30.5803 -30.5616 -30.5608 -30.5602 -30.5590 -30.5493 -30.5473
   -30.5427 -30.5350 -30.5350 -30.5343 -30.5341 -30.5337 -30.5335 -30.5323
   -30.5323 -30.5318 -30.5301 -30.5211 -30.5207 -30.5205 -30.5121 -30.5121
   -30.5088 -30.5086 -30.5082 -30.5082 -30.5066 -30.5010 -30.4999 -30.4999
   -30.4994 -30.4993 -30.4921 -30.4833 -30.4830 -30.4798 -30.4783 -30.4765
   -30.4758 -30.4756 -30.4750 -30.4744 -30.4742 -30.4714 -30.4700 -30.4699
   -30.4697 -30.4625 -30.4622 -30.4566 -30.4504 -30.4494 -30.4331 -30.4320
    12.6948  13.2912  14.2143  14.2869  14.2870  14.2964  14.3488  14.3489
    14.3862  14.4357  14.4599  14.5468  14.5477  14.5782  14.5827  14.6242
    14.6245  14.6345  14.6948  14.7060  14.7060  14.7579  14.7777  14.7821
    14.9177  14.9199  14.9252  14.9278  15.1241  15.1266  15.2153  15.2180
    15.2693  15.2736  15.3374  15.3406  15.3580  15.3596  15.4947  15.4986
    15.5530  15.5539  15.5606  15.5608  15.6591  15.6592  15.6983  15.6997
    15.7154  15.7189  15.7562  15.7593  15.8020  15.8076  15.9273  15.9454
    15.9467  15.9785  15.9793  16.0909  16.1302  16.1309  16.1352  16.1360
    16.1655  16.1685  16.2278  16.2342  16.2694  16.2847  16.2902  16.3142
    16.3153  16.3687  16.4434  16.4440  16.5822  16.6245  16.6303  16.6480
    16.6519  16.6608  16.6825  16.6843  16.6909  16.6932  16.8438  16.8871
    16.8920  16.9267  16.9382  16.9412  17.1231  17.1256  17.1267  17.1410
    17.3625  17.3705  17.5000  17.5015  17.5091  17.5252  17.5266  17.6947
    17.6954  17.7306  17.7314  17.7391  17.7406  17.7552  17.7574  17.7682
    17.7924  17.7932  17.8778  17.8787  17.9120  17.9190  17.9200  17.9224
    17.9226  17.9345  17.9365  17.9512  17.9523  18.0353  18.0836  18.1508
    18.1513  18.2180  18.2944  18.3030  18.3921  18.3926  18.4264  18.4658
    18.5486  18.5501  18.5519  18.6091  18.6164  18.6166  18.6379  18.6383
    18.7904  18.7905  18.8056  18.8979  18.9052  18.9081  18.9352  18.9361
    18.9441  18.9447  18.9847  19.0488  19.0503  19.0533  19.0542  19.1223
    19.2407  19.2433  19.3766  19.4276  19.4288  19.4310  19.4318  19.6402
    19.6441  20.0490  20.0556  20.4566  20.7479  20.8592  21.0061  21.0067
    21.2861  21.2868  21.4747  21.8213  23.3476  23.3612  23.8943  23.9093
    23.9132  23.9419  24.9710  24.9845  25.2760  25.3044  25.5191  25.5338
    26.8195  27.2358  27.2370  27.7181  28.0253  28.1663  28.1838  28.5551
    28.5565  28.8242  28.8410  29.0828  29.1035  29.1088  29.4732  29.4933
    29.6051  29.6437  29.6934  29.7138  30.1413  30.1511  30.1668  30.1772
    30.3672  30.3993

          k = 0.0556 0.0555-0.5000 ( 33068 PWs)   bands (ev):

   -64.8996 -64.8988 -64.8750 -64.8748 -64.8742 -64.8740 -64.8702 -64.8701
   -64.8695 -64.8693 -64.8633 -64.8625 -64.8614 -64.8607 -64.8606 -64.8599
   -64.8593 -64.8585 -64.8545 -64.8538 -64.8504 -64.8503 -64.8496 -64.8496
   -64.8495 -64.8494 -64.8488 -64.8487 -64.8459 -64.8451 -64.8450 -64.8443
   -30.7572 -30.7569 -30.7525 -30.7522 -30.7518 -30.7514 -30.7451 -30.7448
   -30.7417 -30.7412 -30.7409 -30.7404 -30.7238 -30.7231 -30.6956 -30.6954
   -30.6953 -30.6950 -30.6879 -30.6877 -30.6877 -30.6875 -30.6534 -30.6530
   -30.6523 -30.6519 -30.6480 -30.6473 -30.6472 -30.6465 -30.6324 -30.6321
   -30.6319 -30.6313 -30.6312 -30.6310 -30.6309 -30.6302 -30.5928 -30.5926
   -30.5921 -30.5919 -30.5616 -30.5609 -30.5601 -30.5594 -30.5417 -30.5409
   -30.5398 -30.5391 -30.5238 -30.5235 -30.5227 -30.5226 -30.5220 -30.5219
   -30.5218 -30.5218 -30.5217 -30.5215 -30.5212 -30.5208 -30.5207 -30.5204
   -30.5155 -30.5152 -30.5148 -30.5145 -30.5095 -30.5094 -30.5087 -30.5086
   -30.5056 -30.5052 -30.4796 -30.4788 -30.4784 -30.4783 -30.4780 -30.4779
   -30.4772 -30.4766 -30.4764 -30.4758 -30.4756 -30.4749 -30.4709 -30.4701
   -30.4654 -30.4653 -30.4651 -30.4651 -30.4413 -30.4406 -30.4403 -30.4396
    12.9679  12.9688  14.3236  14.3244  14.4460  14.4465  14.4466  14.4466
    14.4468  14.4474  14.5091  14.5091  14.5099  14.5099  14.5559  14.5559
    14.5656  14.5664  14.7122  14.7130  14.7137  14.7145  14.7463  14.7470
    14.7498  14.7506  14.9475  14.9482  14.9511  14.9519  15.3003  15.3006
    15.3006  15.3009  15.4140  15.4148  15.4168  15.4175  15.4380  15.4386
    15.4397  15.4403  15.5718  15.5724  15.5739  15.5746  15.7270  15.7272
    15.7286  15.7288  15.7335  15.7337  15.7386  15.7387  15.9466  15.9466
    15.9470  15.9471  16.0884  16.0891  16.1326  16.1332  16.1378  16.1385
    16.1609  16.1614  16.2261  16.2266  16.2302  16.2307  16.3229  16.3234
    16.4793  16.4795  16.4809  16.4810  16.5401  16.5403  16.5412  16.5413
    16.6998  16.7000  16.7501  16.7503  16.7546  16.7549  16.7737  16.7745
    16.7853  16.7855  16.7856  16.7863  17.5185  17.5188  17.5191  17.5192
    17.5195  17.5197  17.5197  17.5198  17.5226  17.5229  17.5664  17.5666
    17.6388  17.6395  17.7373  17.7380  17.7381  17.7388  17.8198  17.8205
    17.8206  17.8213  17.8254  17.8258  17.8338  17.8342  17.8365  17.8367
    17.8371  17.8374  17.8747  17.8753  17.8755  17.8762  18.0496  18.0497
    18.0502  18.0504  18.1441  18.1449  18.5999  18.6004  18.6007  18.6011
    18.6268  18.6270  18.7393  18.7395  18.7416  18.7417  18.7461  18.7467
    18.7735  18.7737  18.7850  18.7852  18.8391  18.8396  18.8415  18.8420
    18.8476  18.8481  18.8493  18.8498  18.9999  19.0002  19.2725  19.2726
    19.2743  19.2745  19.4277  19.4285  19.4310  19.4317  19.6319  19.6320
    19.6366  19.6368  20.0983  20.0990  20.6198  20.6206  21.1679  21.1686
    21.1686  21.1693  21.6848  21.6855  24.1275  24.1279  24.1413  24.1416
    24.5762  24.5768  24.6046  24.6052  24.6738  24.6741  24.6888  24.6891
    27.3463  27.3464  27.8363  27.8365  27.8379  27.8380  28.3665  28.3667
    28.5961  28.5969  28.6152  28.6159  29.2330  29.2338  29.2516  29.2524
    29.5520  29.5527  29.5848  29.5854  30.3131  30.3140  30.3486  30.3495
    30.5969  30.5979

          k = 0.0556 0.1664 0.0556 ( 33041 PWs)   bands (ev):

   -64.9074 -64.8851 -64.8790 -64.8789 -64.8735 -64.8734 -64.8687 -64.8667
   -64.8667 -64.8636 -64.8633 -64.8632 -64.8616 -64.8608 -64.8607 -64.8606
   -64.8605 -64.8602 -64.8582 -64.8577 -64.8576 -64.8557 -64.8556 -64.8466
   -64.8457 -64.8456 -64.8455 -64.8454 -64.8449 -64.8449 -64.8448 -64.8445
   -30.7891 -30.7874 -30.7874 -30.7842 -30.7684 -30.7684 -30.7658 -30.7061
   -30.7010 -30.7010 -30.6956 -30.6955 -30.6951 -30.6951 -30.6944 -30.6944
   -30.6930 -30.6826 -30.6826 -30.6799 -30.6798 -30.6752 -30.6752 -30.6714
   -30.6714 -30.6605 -30.6605 -30.6544 -30.6544 -30.6466 -30.6409 -30.6409
   -30.6222 -30.6221 -30.6082 -30.6082 -30.5930 -30.5930 -30.5923 -30.5923
   -30.5808 -30.5668 -30.5668 -30.5658 -30.5658 -30.5627 -30.5627 -30.5611
   -30.5610 -30.5591 -30.5590 -30.5584 -30.5570 -30.5565 -30.5565 -30.5564
   -30.5561 -30.5560 -30.5527 -30.5481 -30.5481 -30.5084 -30.5079 -30.4999
   -30.4999 -30.4933 -30.4933 -30.4885 -30.4884 -30.4874 -30.4874 -30.4852
   -30.4851 -30.4828 -30.4806 -30.4806 -30.4804 -30.4803 -30.4800 -30.4765
   -30.4758 -30.4752 -30.4752 -30.4750 -30.4749 -30.4731 -30.4730 -30.4726
   -30.4719 -30.4716 -30.4683 -30.4642 -30.4641 -30.4295 -30.4228 -30.4220
    12.3367  13.9886  14.0553  14.0673  14.0673  14.1166  14.1440  14.1440
    14.1573  14.3233  14.3379  14.3379  14.3439  14.3439  14.5397  14.5397
    14.5524  14.9431  14.9432  15.0047  15.0686  15.0687  15.0755  15.0756
    15.1026  15.1832  15.1833  15.2136  15.2137  15.2224  15.2294  15.2294
    15.3758  15.3759  15.3959  15.3960  15.4071  15.4071  15.4438  15.4438
    15.4898  15.4898  15.5554  15.7450  15.7450  15.7655  15.7656  15.8113
    15.8113  15.8207  15.8208  15.8790  15.8791  15.9669  15.9670  15.9775
    16.0229  16.0229  16.0695  16.0784  16.0785  16.0821  16.0821  16.1227
    16.1228  16.1656  16.1656  16.1959  16.1959  16.3499  16.3718  16.3718
    16.3771  16.3772  16.3975  16.3975  16.4021  16.4115  16.4434  16.4482
    16.4529  16.4680  16.4680  16.4795  16.4990  16.5030  16.5041  16.5041
    17.0745  17.0746  17.1850  17.1851  17.2102  17.2103  17.2645  17.2645
    17.2819  17.3290  17.3445  17.3446  17.4636  17.4752  17.4753  17.4882
    17.4883  17.5263  17.5263  17.5333  17.5333  17.7474  17.7475  17.7632
    17.7727  17.7728  17.8416  17.8417  17.9220  17.9220  17.9302  17.9302
    17.9309  17.9310  17.9436  18.0122  18.0159  18.0204  18.0204  18.0519
    18.1393  18.1394  18.1494  18.1494  18.1824  18.1825  18.2403  18.2547
    18.2548  18.2860  18.4023  18.5389  18.5389  18.6677  18.6678  18.6685
    18.7022  18.7179  18.7180  18.9329  19.0404  19.0404  19.0596  19.0800
    19.1190  19.1213  19.1214  19.1458  19.1458  19.3087  19.3591  19.3591
    19.3603  19.3603  19.3745  19.4376  19.4376  19.4388  19.4388  20.0970
    20.4645  20.4646  20.5811  20.5811  20.8112  20.9078  20.9476  20.9476
    21.4247  21.4247  21.9582  22.0023  22.0023  22.1712  22.5428  22.5428
    22.8530  22.8530  26.2956  26.4552  26.4552  26.7258  26.7258  26.7347
    26.7347  26.7499  27.3190  27.3190  27.5960  27.5961  28.2805  28.2807
    28.7798  28.7798  29.6100  29.6100  29.6993  29.7141  29.7141  29.8669
    29.8670  29.9397  29.9397  30.1373  30.1563  30.1563  30.2430  30.2430
    30.7044  30.7045

          k = 0.0556 0.1664 0.1667 ( 33051 PWs)   bands (ev):

   -64.9065 -64.8845 -64.8843 -64.8784 -64.8731 -64.8701 -64.8683 -64.8681
   -64.8666 -64.8665 -64.8632 -64.8631 -64.8625 -64.8611 -64.8600 -64.8599
   -64.8596 -64.8594 -64.8578 -64.8577 -64.8559 -64.8558 -64.8536 -64.8466
   -64.8462 -64.8460 -64.8457 -64.8456 -64.8454 -64.8454 -64.8452 -64.8446
   -30.7863 -30.7863 -30.7817 -30.7770 -30.7653 -30.7637 -30.7631 -30.7087
   -30.7079 -30.7062 -30.7053 -30.6968 -30.6958 -30.6945 -30.6935 -30.6927
   -30.6925 -30.6919 -30.6914 -30.6911 -30.6837 -30.6834 -30.6824 -30.6815
   -30.6580 -30.6517 -30.6515 -30.6503 -30.6499 -30.6460 -30.6450 -30.6380
   -30.6369 -30.6273 -30.6237 -30.5996 -30.5948 -30.5946 -30.5809 -30.5808
   -30.5771 -30.5766 -30.5712 -30.5642 -30.5640 -30.5636 -30.5620 -30.5572
   -30.5569 -30.5567 -30.5564 -30.5563 -30.5554 -30.5548 -30.5534 -30.5529
   -30.5516 -30.5515 -30.5394 -30.5390 -30.5337 -30.5122 -30.5111 -30.5058
   -30.5057 -30.4970 -30.4953 -30.4939 -30.4881 -30.4880 -30.4877 -30.4872
   -30.4849 -30.4843 -30.4839 -30.4839 -30.4836 -30.4828 -30.4792 -30.4782
   -30.4780 -30.4773 -30.4751 -30.4744 -30.4742 -30.4732 -30.4727 -30.4726
   -30.4682 -30.4681 -30.4645 -30.4640 -30.4576 -30.4374 -30.4248 -30.4220
    12.4092  14.0412  14.0461  14.1019  14.1019  14.1090  14.1294  14.1706
    14.2104  14.2105  14.3650  14.3652  14.3829  14.3844  14.5779  14.6049
    14.6094  14.9658  14.9699  14.9857  14.9907  15.0157  15.0158  15.0347
    15.0391  15.0592  15.1095  15.1096  15.1287  15.1292  15.2511  15.2547
    15.2561  15.2634  15.2647  15.3160  15.4275  15.4556  15.4564  15.4594
    15.4613  15.4906  15.4913  15.5731  15.5809  15.7206  15.7240  15.8064
    15.8071  15.8175  15.9089  15.9118  15.9241  15.9263  15.9855  15.9877
    15.9973  16.0544  16.0613  16.0639  16.0698  16.1188  16.1230  16.2201
    16.2668  16.2684  16.3070  16.3114  16.3199  16.3204  16.3698  16.3881
    16.4259  16.4264  16.4296  16.4308  16.4311  16.4452  16.4489  16.4634
    16.4947  16.4982  16.4986  16.5001  16.5082  16.5225  16.5270  16.5317
    16.9733  17.0266  17.0330  17.0824  17.1833  17.1898  17.2920  17.3103
    17.3126  17.3181  17.3194  17.3714  17.3756  17.3946  17.3990  17.4492
    17.4536  17.4605  17.5377  17.6090  17.6198  17.6208  17.6387  17.6397
    17.6611  17.9174  17.9177  17.9332  17.9357  17.9364  18.0026  18.0079
    18.0095  18.0237  18.0260  18.0289  18.0340  18.0348  18.1153  18.1175
    18.1431  18.1435  18.3221  18.3246  18.3625  18.3742  18.3767  18.3786
    18.4193  18.4210  18.4232  18.4297  18.4820  18.4837  18.5138  18.5544
    18.6775  18.7847  18.8371  18.8388  18.9704  18.9724  18.9730  18.9901
    19.0886  19.1167  19.1173  19.1325  19.1346  19.1477  19.3015  19.3018
    19.3581  19.3616  19.3663  19.3688  19.3731  19.3778  19.3965  19.8157
    20.0339  20.4331  20.4403  20.4797  20.9239  20.9328  21.1057  21.1061
    21.4933  21.4952  21.9897  22.0031  22.4619  22.4891  22.5308  22.5452
    23.1149  23.1266  26.1006  26.1159  26.2935  26.2943  26.7561  26.8147
    26.8405  26.8709  26.8830  27.1565  27.4480  27.4741  27.8855  27.8989
    28.9073  28.9221  29.1797  29.2023  29.5943  29.6953  29.7186  29.7412
    29.8294  29.8309  30.0447  30.0572  30.1279  30.1724  30.5292  30.5407
    30.8144  30.8428

          k = 0.0556 0.1664 0.2778 ( 33038 PWs)   bands (ev):

   -64.9046 -64.8894 -64.8833 -64.8774 -64.8734 -64.8722 -64.8692 -64.8676
   -64.8662 -64.8654 -64.8634 -64.8630 -64.8629 -64.8618 -64.8615 -64.8593
   -64.8588 -64.8578 -64.8564 -64.8561 -64.8551 -64.8536 -64.8517 -64.8478
   -64.8470 -64.8468 -64.8467 -64.8465 -64.8459 -64.8457 -64.8454 -64.8446
   -30.7809 -30.7795 -30.7723 -30.7660 -30.7590 -30.7574 -30.7542 -30.7252
   -30.7216 -30.7114 -30.7089 -30.7087 -30.7087 -30.7084 -30.6992 -30.6977
   -30.6975 -30.6922 -30.6914 -30.6892 -30.6881 -30.6858 -30.6839 -30.6770
   -30.6699 -30.6557 -30.6537 -30.6467 -30.6427 -30.6416 -30.6383 -30.6364
   -30.6325 -30.6292 -30.6198 -30.6110 -30.6077 -30.5944 -30.5909 -30.5791
   -30.5765 -30.5751 -30.5686 -30.5635 -30.5615 -30.5592 -30.5571 -30.5563
   -30.5553 -30.5549 -30.5527 -30.5479 -30.5448 -30.5434 -30.5425 -30.5397
   -30.5387 -30.5364 -30.5259 -30.5255 -30.5240 -30.5200 -30.5177 -30.5166
   -30.5019 -30.5012 -30.5007 -30.4993 -30.4969 -30.4964 -30.4963 -30.4951
   -30.4909 -30.4877 -30.4872 -30.4848 -30.4846 -30.4842 -30.4807 -30.4799
   -30.4795 -30.4776 -30.4775 -30.4770 -30.4736 -30.4727 -30.4714 -30.4653
   -30.4634 -30.4627 -30.4623 -30.4563 -30.4538 -30.4498 -30.4291 -30.4242
    12.5524  13.6994  14.1435  14.1686  14.1826  14.1905  14.1927  14.2371
    14.3024  14.3148  14.4194  14.4483  14.4611  14.4723  14.5767  14.6495
    14.7068  14.7852  14.8105  14.8415  14.8685  14.8768  14.8846  14.9171
    15.0062  15.0200  15.0429  15.0534  15.0693  15.0949  15.1723  15.1804
    15.1893  15.2045  15.2364  15.2853  15.3273  15.3466  15.3773  15.4783
    15.4910  15.5011  15.5432  15.6068  15.6496  15.6669  15.6721  15.7628
    15.7677  15.7787  15.7953  15.8099  15.8598  15.9205  15.9320  15.9749
    15.9776  15.9880  16.0746  16.1281  16.1715  16.1751  16.2245  16.2358
    16.2485  16.2535  16.2698  16.2945  16.3276  16.3499  16.3500  16.3812
    16.4076  16.4324  16.4847  16.5075  16.5373  16.5548  16.5559  16.5587
    16.5905  16.6068  16.6090  16.6204  16.6383  16.7398  16.8197  16.8463
    16.8706  16.8820  16.9082  16.9985  17.0117  17.1076  17.1206  17.1353
    17.2069  17.2244  17.2410  17.3145  17.3154  17.3938  17.3973  17.5044
    17.5179  17.5377  17.5470  17.5955  17.6413  17.7249  17.7781  17.7805
    17.7983  17.8755  17.8860  17.9015  17.9336  17.9796  18.0168  18.0234
    18.0484  18.0936  18.0981  18.1386  18.1464  18.1567  18.1581  18.1682
    18.1761  18.2066  18.2787  18.3174  18.3410  18.3731  18.4032  18.4684
    18.4777  18.5052  18.5097  18.5144  18.5216  18.5401  18.5433  18.6293
    18.6423  18.6599  18.7545  18.8348  18.8660  18.8887  18.9655  18.9842
    19.0537  19.0931  19.0947  19.0957  19.1806  19.1938  19.1943  19.1997
    19.2332  19.2366  19.2705  19.3574  19.3630  19.3704  19.3729  19.6451
    19.8469  20.0109  20.3697  20.4717  20.5065  20.8759  21.0060  21.3932
    21.5918  21.8825  21.9590  22.1169  22.4960  22.6524  22.9402  23.1959
    23.5677  23.7651  25.2827  25.4538  25.9386  26.1687  26.2968  26.4440
    26.4681  26.9461  27.1298  27.1589  27.1851  27.6583  27.6622  28.3136
    28.4153  28.6837  28.8448  29.0277  29.1400  29.2211  29.4757  29.6511
    29.8292  29.9288  29.9482  30.1081  30.1874  30.4266  30.5183  30.5425
    30.7621  30.8322

          k = 0.0556 0.1664 0.3889 ( 33062 PWs)   bands (ev):

   -64.9019 -64.8942 -64.8815 -64.8765 -64.8760 -64.8718 -64.8710 -64.8675
   -64.8666 -64.8658 -64.8642 -64.8635 -64.8629 -64.8618 -64.8590 -64.8582
   -64.8580 -64.8580 -64.8565 -64.8534 -64.8526 -64.8515 -64.8505 -64.8499
   -64.8484 -64.8484 -64.8480 -64.8469 -64.8465 -64.8458 -64.8453 -64.8446
   -30.7716 -30.7690 -30.7594 -30.7517 -30.7500 -30.7492 -30.7428 -30.7407
   -30.7390 -30.7263 -30.7257 -30.7245 -30.7163 -30.7083 -30.7063 -30.7015
   -30.7014 -30.7009 -30.6997 -30.6958 -30.6867 -30.6829 -30.6791 -30.6727
   -30.6633 -30.6604 -30.6556 -30.6511 -30.6480 -30.6396 -30.6310 -30.6262
   -30.6252 -30.6247 -30.6198 -30.6142 -30.6073 -30.6039 -30.6036 -30.5922
   -30.5890 -30.5780 -30.5571 -30.5564 -30.5547 -30.5543 -30.5538 -30.5528
   -30.5476 -30.5464 -30.5444 -30.5365 -30.5350 -30.5332 -30.5325 -30.5313
   -30.5287 -30.5275 -30.5248 -30.5226 -30.5149 -30.5141 -30.5109 -30.5107
   -30.5103 -30.5100 -30.5097 -30.5078 -30.5073 -30.5073 -30.5072 -30.4966
   -30.4946 -30.4942 -30.4876 -30.4868 -30.4861 -30.4855 -30.4848 -30.4837
   -30.4827 -30.4815 -30.4759 -30.4749 -30.4742 -30.4715 -30.4695 -30.4664
   -30.4664 -30.4632 -30.4575 -30.4526 -30.4525 -30.4457 -30.4352 -30.4292
    12.7625  13.3511  14.2619  14.2761  14.2891  14.3086  14.3227  14.3431
    14.4318  14.4546  14.4856  14.4995  14.5651  14.5727  14.5799  14.6039
    14.6304  14.6630  14.6665  14.6689  14.7306  14.7452  14.7942  14.8051
    14.8259  14.8515  14.9403  14.9589  14.9757  15.0565  15.1694  15.1854
    15.1904  15.2104  15.2489  15.3044  15.3098  15.4333  15.4438  15.4650
    15.4938  15.5105  15.5702  15.5863  15.6031  15.6122  15.6137  15.6218
    15.6528  15.7002  15.7554  15.7872  15.7958  15.8546  15.9352  15.9567
    15.9894  16.0359  16.1426  16.1515  16.1794  16.2044  16.2241  16.2250
    16.2266  16.2276  16.2733  16.3167  16.3244  16.3302  16.3458  16.3671
    16.4176  16.4458  16.4609  16.5844  16.5931  16.6450  16.6499  16.6652
    16.6706  16.6768  16.7160  16.7247  16.7429  16.8067  16.8119  16.8204
    16.9049  16.9196  16.9282  17.0071  17.0354  17.0581  17.0964  17.1165
    17.2768  17.2912  17.3134  17.3302  17.3395  17.3622  17.4595  17.5518
    17.5523  17.5710  17.6342  17.6827  17.7318  17.7459  17.7559  17.7560
    17.7751  17.7815  17.8304  17.8622  17.9016  17.9250  17.9303  17.9358
    17.9921  17.9999  18.0449  18.0727  18.1009  18.1531  18.1792  18.1880
    18.2224  18.2230  18.2282  18.3631  18.3813  18.3841  18.4116  18.4180
    18.5277  18.5680  18.6095  18.6400  18.6772  18.6989  18.7034  18.7094
    18.7139  18.7178  18.7430  18.8066  18.8079  18.9068  18.9113  18.9372
    18.9625  19.0042  19.0047  19.0508  19.0508  19.0555  19.0595  19.1448
    19.2198  19.2919  19.3575  19.3630  19.3645  19.3680  19.6121  19.6257
    19.7469  19.9955  20.0338  20.2739  20.5336  20.6008  20.8034  21.1649
    21.6279  21.8991  21.9842  22.4155  22.8159  23.3767  23.5177  23.9165
    24.1383  24.4191  24.4670  24.7974  25.0339  25.4625  25.5601  26.0705
    26.4996  26.8253  27.4117  27.5116  27.5376  27.7307  27.9588  28.0405
    28.2159  28.2590  28.4767  28.7552  28.9083  29.1256  29.4631  29.5535
    29.6965  29.8482  29.8771  30.0240  30.0737  30.2954  30.3159  30.3632
    30.4316  30.7035

          k = 0.0556 0.1664-0.5000 ( 33068 PWs)   bands (ev):

   -64.8988 -64.8980 -64.8796 -64.8788 -64.8744 -64.8737 -64.8698 -64.8690
   -64.8656 -64.8654 -64.8648 -64.8647 -64.8628 -64.8620 -64.8588 -64.8581
   -64.8576 -64.8568 -64.8544 -64.8536 -64.8511 -64.8507 -64.8503 -64.8500
   -64.8499 -64.8492 -64.8487 -64.8479 -64.8465 -64.8458 -64.8453 -64.8446
   -30.7588 -30.7585 -30.7554 -30.7551 -30.7439 -30.7435 -30.7389 -30.7388
   -30.7381 -30.7380 -30.7349 -30.7345 -30.7232 -30.7225 -30.7053 -30.7051
   -30.7024 -30.7020 -30.7018 -30.7018 -30.6823 -30.6822 -30.6715 -30.6711
   -30.6606 -30.6603 -30.6602 -30.6599 -30.6406 -30.6403 -30.6308 -30.6303
   -30.6198 -30.6193 -30.6154 -30.6146 -30.6092 -30.6090 -30.6009 -30.6005
   -30.5902 -30.5895 -30.5571 -30.5565 -30.5545 -30.5541 -30.5450 -30.5443
   -30.5387 -30.5380 -30.5356 -30.5349 -30.5334 -30.5331 -30.5262 -30.5260
   -30.5237 -30.5233 -30.5218 -30.5215 -30.5202 -30.5198 -30.5193 -30.5190
   -30.5171 -30.5164 -30.5075 -30.5071 -30.5038 -30.5031 -30.4970 -30.4967
   -30.4965 -30.4958 -30.4919 -30.4914 -30.4869 -30.4865 -30.4849 -30.4842
   -30.4831 -30.4824 -30.4794 -30.4790 -30.4754 -30.4746 -30.4681 -30.4674
   -30.4666 -30.4663 -30.4540 -30.4538 -30.4435 -30.4428 -30.4367 -30.4363
    13.0320  13.0329  14.3722  14.3730  14.4090  14.4091  14.4576  14.4583
    14.4676  14.4684  14.4832  14.4840  14.4876  14.4876  14.5966  14.5967
    14.6035  14.6043  14.6266  14.6267  14.6839  14.6845  14.7368  14.7376
    14.7734  14.7740  14.8523  14.8527  15.0259  15.0266  15.1108  15.1109
    15.3048  15.3049  15.3076  15.3081  15.3413  15.3421  15.4480  15.4487
    15.5211  15.5212  15.5506  15.5513  15.5997  15.6000  15.6249  15.6252
    15.6711  15.6712  15.7046  15.7052  15.7108  15.7113  16.0660  16.0666
    16.0872  16.0878  16.0913  16.0920  16.1059  16.1065  16.1680  16.1681
    16.2741  16.2747  16.2793  16.2797  16.3882  16.3887  16.4224  16.4230
    16.4795  16.4796  16.5220  16.5220  16.5359  16.5361  16.6504  16.6506
    16.6913  16.6915  16.7583  16.7586  16.7736  16.7743  16.7860  16.7867
    16.8470  16.8473  16.8652  16.8655  17.3194  17.3199  17.3294  17.3299
    17.3765  17.3767  17.3893  17.3895  17.4151  17.4154  17.4634  17.4636
    17.5097  17.5103  17.6572  17.6579  17.6627  17.6633  17.7283  17.7286
    17.7457  17.7463  17.7844  17.7847  17.7898  17.7904  17.8554  17.8560
    17.9687  17.9694  18.0069  18.0075  18.0784  18.0790  18.1397  18.1405
    18.2715  18.2723  18.3219  18.3226  18.3926  18.3931  18.5622  18.5628
    18.6034  18.6035  18.6190  18.6196  18.7550  18.7553  18.7800  18.7801
    18.8410  18.8416  18.8671  18.8676  18.8684  18.8686  18.8758  18.8760
    18.8838  18.8843  18.8868  18.8873  18.9755  18.9757  19.0265  19.0267
    19.2423  19.2424  19.3587  19.3593  19.3657  19.3664  19.6156  19.6157
    20.0731  20.0732  20.1466  20.1474  20.4302  20.4308  20.7082  20.7089
    21.7939  21.7946  22.2554  22.2561  23.5876  23.5880  24.1456  24.1462
    24.1734  24.1738  24.7069  24.7072  24.7791  24.7797  25.2360  25.2363
    26.9190  26.9192  27.3573  27.3574  27.7858  27.7866  27.9633  27.9640
    28.3296  28.3304  28.3816  28.3818  28.9398  28.9399  29.3186  29.3188
    29.8555  29.8563  30.0076  30.0081  30.0236  30.0243  30.1473  30.1482
    30.9988  30.9994

          k = 0.0556 0.2773 0.0556 ( 33051 PWs)   bands (ev):

   -64.9056 -64.8903 -64.8779 -64.8779 -64.8726 -64.8726 -64.8696 -64.8695
   -64.8656 -64.8655 -64.8635 -64.8634 -64.8620 -64.8608 -64.8607 -64.8606
   -64.8605 -64.8597 -64.8584 -64.8549 -64.8549 -64.8533 -64.8533 -64.8483
   -64.8466 -64.8466 -64.8464 -64.8463 -64.8450 -64.8449 -64.8448 -64.8447
   -30.7822 -30.7791 -30.7791 -30.7746 -30.7622 -30.7622 -30.7561 -30.7229
   -30.7173 -30.7173 -30.7121 -30.7121 -30.7092 -30.6969 -30.6969 -30.6950
   -30.6950 -30.6852 -30.6851 -30.6759 -30.6759 -30.6747 -30.6740 -30.6739
   -30.6614 -30.6614 -30.6594 -30.6594 -30.6486 -30.6486 -30.6304 -30.6304
   -30.6237 -30.6237 -30.6225 -30.6225 -30.6063 -30.6063 -30.6037 -30.6037
   -30.5725 -30.5725 -30.5628 -30.5607 -30.5606 -30.5591 -30.5590 -30.5542
   -30.5527 -30.5505 -30.5504 -30.5482 -30.5482 -30.5472 -30.5472 -30.5461
   -30.5461 -30.5377 -30.5341 -30.5341 -30.5276 -30.5200 -30.5193 -30.5053
   -30.5052 -30.4979 -30.4978 -30.4962 -30.4961 -30.4931 -30.4925 -30.4925
   -30.4886 -30.4886 -30.4885 -30.4884 -30.4827 -30.4796 -30.4768 -30.4754
   -30.4753 -30.4752 -30.4751 -30.4750 -30.4749 -30.4726 -30.4726 -30.4716
   -30.4686 -30.4621 -30.4621 -30.4605 -30.4600 -30.4406 -30.4270 -30.4260
    12.4813  13.6394  14.1210  14.1571  14.1572  14.1859  14.2263  14.2263
    14.2523  14.3780  14.4219  14.4219  14.4425  14.4426  14.5214  14.6397
    14.6398  14.7966  14.7966  14.8402  14.8557  14.9331  14.9332  14.9845
    15.0920  15.0921  15.1333  15.1334  15.1564  15.1565  15.1630  15.1630
    15.2654  15.2654  15.2758  15.2759  15.3890  15.3890  15.4386  15.4387
    15.5534  15.5535  15.6958  15.6958  15.7263  15.7264  15.7407  15.7481
    15.7482  15.7676  15.7676  15.7938  15.7939  15.9058  15.9059  15.9781
    15.9782  16.0247  16.0309  16.0309  16.0998  16.0998  16.1297  16.1298
    16.1351  16.1352  16.1948  16.2178  16.2179  16.2935  16.3253  16.3319
    16.3319  16.3934  16.3992  16.3993  16.5041  16.5369  16.5369  16.5552
    16.5642  16.5669  16.7116  16.7117  16.7297  16.7788  16.8701  16.8702
    16.9226  16.9226  16.9440  16.9441  17.0147  17.0922  17.0997  17.0997
    17.1167  17.1233  17.4089  17.4304  17.4304  17.5259  17.5259  17.5956
    17.5957  17.6115  17.6116  17.6693  17.6693  17.7006  17.7007  17.7628
    17.7629  17.8656  17.9082  17.9083  17.9084  17.9085  17.9325  17.9326
    17.9375  17.9376  18.0477  18.1338  18.1873  18.1873  18.2028  18.2028
    18.2163  18.3010  18.3079  18.3108  18.3462  18.3462  18.3475  18.3475
    18.3918  18.3919  18.4207  18.4344  18.4344  18.5100  18.6844  18.6845
    18.7449  18.7449  18.7467  18.8024  18.8969  18.8969  18.9465  18.9465
    18.9500  19.0300  19.0348  19.0349  19.0462  19.1747  19.2265  19.2265
    19.2281  19.2281  19.2615  19.4377  19.4377  19.4386  19.4386  20.0377
    20.0377  20.2707  20.4876  20.4876  20.8058  20.8059  20.8484  21.1826
    21.3759  21.3759  21.5631  21.9136  22.6360  22.6360  23.1822  23.1822
    23.3386  23.3386  25.8448  25.8448  26.0118  26.0118  26.4044  26.4044
    26.4645  26.7684  26.7685  27.1727  27.8438  27.8438  28.5181  28.5182
    28.8090  29.2797  29.2797  29.3550  29.3550  29.6273  29.6273  29.6864
    29.6864  29.7683  29.7683  29.9144  30.0355  30.0356  30.1989  30.1989
    30.2074  30.2075

          k = 0.0556 0.2773 0.1667 ( 33034 PWs)   bands (ev):

   -64.9046 -64.8896 -64.8831 -64.8774 -64.8734 -64.8722 -64.8693 -64.8674
   -64.8662 -64.8654 -64.8634 -64.8632 -64.8629 -64.8617 -64.8615 -64.8593
   -64.8588 -64.8580 -64.8565 -64.8562 -64.8550 -64.8535 -64.8517 -64.8483
   -64.8470 -64.8469 -64.8468 -64.8461 -64.8458 -64.8455 -64.8451 -64.8448
   -30.7809 -30.7796 -30.7723 -30.7660 -30.7590 -30.7580 -30.7537 -30.7258
   -30.7223 -30.7122 -30.7094 -30.7090 -30.7080 -30.7078 -30.6985 -30.6984
   -30.6971 -30.6919 -30.6912 -30.6893 -30.6875 -30.6862 -30.6831 -30.6765
   -30.6689 -30.6563 -30.6530 -30.6467 -30.6428 -30.6417 -30.6382 -30.6362
   -30.6314 -30.6302 -30.6210 -30.6107 -30.6078 -30.5945 -30.5902 -30.5795
   -30.5767 -30.5751 -30.5702 -30.5636 -30.5622 -30.5576 -30.5567 -30.5566
   -30.5549 -30.5543 -30.5522 -30.5482 -30.5453 -30.5434 -30.5428 -30.5403
   -30.5385 -30.5361 -30.5264 -30.5255 -30.5227 -30.5201 -30.5177 -30.5175
   -30.5017 -30.5015 -30.5015 -30.4997 -30.4973 -30.4968 -30.4963 -30.4956
   -30.4904 -30.4883 -30.4864 -30.4850 -30.4848 -30.4838 -30.4802 -30.4800
   -30.4798 -30.4781 -30.4773 -30.4763 -30.4731 -30.4731 -30.4707 -30.4647
   -30.4629 -30.4627 -30.4627 -30.4563 -30.4538 -30.4498 -30.4290 -30.4242
    12.5519  13.6954  14.1476  14.1681  14.1825  14.1901  14.1922  14.2370
    14.3023  14.3146  14.4189  14.4484  14.4607  14.4726  14.5730  14.6491
    14.7106  14.7848  14.8075  14.8374  14.8688  14.8735  14.8840  14.9166
    15.0088  15.0190  15.0418  15.0532  15.0737  15.0990  15.1720  15.1798
    15.1891  15.2057  15.2359  15.2864  15.3278  15.3479  15.3769  15.4788
    15.4914  15.5008  15.5439  15.6139  15.6500  15.6647  15.6744  15.7539
    15.7684  15.7789  15.7966  15.8108  15.8579  15.9219  15.9287  15.9731
    15.9796  15.9917  16.0796  16.1261  16.1679  16.1752  16.2289  16.2305
    16.2493  16.2557  16.2612  16.2947  16.3197  16.3440  16.3474  16.3836
    16.4119  16.4235  16.4863  16.5166  16.5390  16.5593  16.5610  16.5669
    16.5907  16.6061  16.6148  16.6224  16.6364  16.7390  16.8229  16.8501
    16.8777  16.8846  16.9057  16.9956  17.0197  17.1176  17.1270  17.1425
    17.2126  17.2299  17.2337  17.3059  17.3129  17.3879  17.3942  17.5004
    17.5130  17.5362  17.5429  17.5933  17.6403  17.7232  17.7736  17.7802
    17.7962  17.8674  17.8855  17.9004  17.9306  17.9804  18.0119  18.0313
    18.0479  18.0952  18.0975  18.1378  18.1447  18.1561  18.1580  18.1664
    18.1776  18.2059  18.2823  18.3249  18.3413  18.3727  18.4049  18.4676
    18.4768  18.5045  18.5113  18.5124  18.5177  18.5379  18.5445  18.6295
    18.6384  18.6606  18.7544  18.8371  18.8653  18.8884  18.9657  18.9806
    19.0522  19.0907  19.0920  19.0964  19.1754  19.1933  19.1944  19.2010
    19.2264  19.2306  19.2675  19.3658  19.3698  19.3758  19.3784  19.6452
    19.8503  20.0056  20.3765  20.4645  20.5090  20.8842  21.0081  21.3963
    21.5933  21.8581  21.9713  22.1133  22.5089  22.6367  22.9641  23.1796
    23.5654  23.7637  25.2691  25.4701  25.9136  26.1582  26.2953  26.4237
    26.4647  26.9372  27.1511  27.1670  27.1833  27.6604  27.6849  28.2949
    28.4276  28.7073  28.8260  29.0295  29.1538  29.2449  29.4652  29.6516
    29.8300  29.9292  29.9341  30.1508  30.2048  30.4277  30.5045  30.5433
    30.7678  30.8663

          k = 0.0556 0.2773 0.2778 ( 33056 PWs)   bands (ev):

   -64.9028 -64.8882 -64.8881 -64.8772 -64.8765 -64.8714 -64.8688 -64.8687
   -64.8651 -64.8650 -64.8648 -64.8627 -64.8624 -64.8624 -64.8583 -64.8581
   -64.8578 -64.8577 -64.8554 -64.8553 -64.8541 -64.8540 -64.8502 -64.8483
   -64.8479 -64.8477 -64.8474 -64.8471 -64.8469 -64.8459 -64.8457 -64.8448
   -30.7758 -30.7758 -30.7620 -30.7540 -30.7530 -30.7497 -30.7491 -30.7258
   -30.7253 -30.7242 -30.7235 -30.7120 -30.7112 -30.7041 -30.7036 -30.7013
   -30.7011 -30.6985 -30.6979 -30.6960 -30.6955 -30.6865 -30.6852 -30.6846
   -30.6805 -30.6799 -30.6520 -30.6465 -30.6401 -30.6393 -30.6321 -30.6320
   -30.6247 -30.6230 -30.6158 -30.6146 -30.5891 -30.5874 -30.5873 -30.5769
   -30.5767 -30.5755 -30.5747 -30.5657 -30.5641 -30.5521 -30.5519 -30.5510
   -30.5504 -30.5502 -30.5491 -30.5489 -30.5451 -30.5445 -30.5365 -30.5363
   -30.5297 -30.5285 -30.5275 -30.5273 -30.5145 -30.5143 -30.5142 -30.5141
   -30.5093 -30.5092 -30.5070 -30.5069 -30.4983 -30.4983 -30.4963 -30.4959
   -30.4952 -30.4946 -30.4941 -30.4932 -30.4844 -30.4843 -30.4830 -30.4822
   -30.4808 -30.4801 -30.4750 -30.4739 -30.4735 -30.4728 -30.4682 -30.4677
   -30.4639 -30.4638 -30.4634 -30.4511 -30.4511 -30.4479 -30.4333 -30.4243
    12.6915  13.8047  13.8081  14.2166  14.2567  14.2599  14.2600  14.2847
    14.4122  14.4122  14.4947  14.5005  14.5009  14.5706  14.6281  14.6690
    14.6734  14.6764  14.7184  14.7184  14.8312  14.8328  14.8349  14.8351
    14.9168  14.9204  14.9403  14.9434  15.1079  15.1084  15.1089  15.1142
    15.1152  15.2132  15.2136  15.2464  15.2465  15.2881  15.2882  15.3680
    15.3680  15.4480  15.5640  15.5644  15.5699  15.5710  15.5957  15.7775
    15.7853  15.8099  15.8115  15.8220  15.8222  15.8290  15.8352  16.0802
    16.0837  16.1509  16.1533  16.2404  16.2420  16.2433  16.2488  16.2853
    16.2869  16.2939  16.3163  16.3171  16.3389  16.4329  16.4585  16.4633
    16.4641  16.5525  16.5554  16.5641  16.5953  16.6188  16.6390  16.6579
    16.6600  16.6618  16.7064  16.7092  16.7190  16.7219  16.7349  16.7705
    16.8696  16.8717  16.8913  16.8961  17.0532  17.0617  17.1064  17.1157
    17.1894  17.1966  17.2447  17.2838  17.3369  17.3418  17.3680  17.3726
    17.3850  17.3897  17.4538  17.4575  17.6006  17.6015  17.7328  17.8214
    17.8221  17.8356  17.8359  17.8418  17.8702  17.9530  17.9541  18.0307
    18.0688  18.1229  18.1241  18.1788  18.1801  18.2251  18.2255  18.2650
    18.2681  18.3759  18.3761  18.3764  18.3814  18.3997  18.3997  18.3998
    18.4044  18.4511  18.4512  18.6062  18.6492  18.6752  18.6766  18.6835
    18.6835  18.6853  18.6864  18.7881  18.7905  18.8303  18.9500  18.9510
    19.0263  19.1006  19.1018  19.1201  19.1319  19.1322  19.2286  19.2338
    19.2354  19.2395  19.2582  19.2623  19.2983  19.3138  19.6189  19.6398
    19.6447  19.9421  19.9472  20.3271  20.4202  20.4269  21.6049  21.6087
    21.9805  21.9818  22.3277  22.3489  22.6281  22.6425  23.1556  23.1701
    23.9713  24.3921  24.6775  24.6919  25.9373  25.9518  26.2947  26.2962
    26.4348  26.4434  26.8905  26.9052  27.5139  27.5238  27.6955  27.8143
    27.8338  28.2230  28.3298  28.3497  28.4310  29.5316  29.7150  29.7279
    29.8694  29.8695  30.2779  30.3050  30.5494  30.5611  30.7162  30.7175
    30.8978  30.9396

          k = 0.0556 0.2773 0.3889 ( 33073 PWs)   bands (ev):

   -64.9002 -64.8927 -64.8862 -64.8806 -64.8751 -64.8711 -64.8703 -64.8681
   -64.8670 -64.8660 -64.8647 -64.8632 -64.8619 -64.8595 -64.8578 -64.8572
   -64.8568 -64.8557 -64.8546 -64.8545 -64.8530 -64.8521 -64.8503 -64.8491
   -64.8489 -64.8488 -64.8488 -64.8481 -64.8472 -64.8464 -64.8457 -64.8449
   -30.7681 -30.7670 -30.7485 -30.7441 -30.7423 -30.7422 -30.7399 -30.7388
   -30.7375 -30.7232 -30.7229 -30.7228 -30.7190 -30.7152 -30.7111 -30.7109
   -30.7100 -30.7033 -30.7029 -30.7024 -30.6967 -30.6926 -30.6863 -30.6843
   -30.6834 -30.6703 -30.6610 -30.6592 -30.6504 -30.6381 -30.6255 -30.6216
   -30.6177 -30.6083 -30.6057 -30.6001 -30.5992 -30.5989 -30.5902 -30.5878
   -30.5733 -30.5675 -30.5655 -30.5604 -30.5591 -30.5576 -30.5515 -30.5500
   -30.5480 -30.5454 -30.5452 -30.5409 -30.5383 -30.5369 -30.5338 -30.5276
   -30.5269 -30.5262 -30.5254 -30.5252 -30.5227 -30.5171 -30.5147 -30.5135
   -30.5122 -30.5100 -30.5054 -30.5054 -30.5037 -30.5015 -30.5012 -30.5006
   -30.4947 -30.4941 -30.4930 -30.4895 -30.4883 -30.4879 -30.4878 -30.4871
   -30.4813 -30.4799 -30.4789 -30.4764 -30.4752 -30.4747 -30.4746 -30.4707
   -30.4657 -30.4649 -30.4573 -30.4468 -30.4449 -30.4410 -30.4395 -30.4272
    12.8960  13.4688  13.9623  14.2884  14.3547  14.3573  14.3692  14.3867
    14.3915  14.5409  14.5418  14.5435  14.5534  14.5784  14.5828  14.6222
    14.6458  14.6523  14.6553  14.6996  14.7103  14.7374  14.7858  14.8024
    14.8163  14.8703  14.8985  14.9109  14.9811  15.0062  15.0297  15.0414
    15.0801  15.1786  15.1831  15.2177  15.2633  15.2890  15.2934  15.3433
    15.3562  15.4043  15.4345  15.4714  15.5098  15.6184  15.6623  15.6798
    15.6967  15.7478  15.8056  15.8396  15.8679  15.8900  15.9464  16.0515
    16.0624  16.0655  16.1482  16.2063  16.2126  16.2744  16.3158  16.3235
    16.3515  16.3539  16.3588  16.4034  16.4343  16.4481  16.4709  16.5598
    16.5637  16.6051  16.6252  16.6275  16.6347  16.6656  16.6685  16.7038
    16.7080  16.7122  16.7232  16.8083  16.8103  16.8320  16.8344  16.8540
    16.8646  16.9307  16.9348  16.9439  17.0151  17.0323  17.1066  17.1215
    17.1271  17.1642  17.1874  17.1972  17.2084  17.2496  17.2739  17.3677
    17.4813  17.4827  17.5035  17.5156  17.5231  17.5348  17.5964  17.6152
    17.6484  17.6819  17.7396  17.7562  17.7678  17.8496  18.0099  18.0548
    18.0685  18.0749  18.0930  18.0985  18.2239  18.2274  18.2445  18.2548
    18.2579  18.3038  18.4083  18.4291  18.4306  18.4418  18.4974  18.5097
    18.5148  18.5862  18.6151  18.6491  18.6531  18.7140  18.7397  18.8091
    18.8231  18.8233  18.8337  18.8339  18.8475  18.8479  18.8773  18.9000
    18.9908  19.0448  19.0476  19.0487  19.0543  19.0581  19.0602  19.0714
    19.1213  19.1905  19.2347  19.2377  19.2493  19.2712  19.5502  19.6260
    19.8496  19.9950  20.1204  20.2244  20.2704  20.3604  21.1046  21.6307
    22.2881  22.2913  22.4931  22.5891  22.8805  23.0696  23.3902  23.8596
    23.8984  24.0749  24.4991  25.0775  25.0797  25.4670  25.7607  26.3123
    26.5046  26.6058  26.7309  26.8725  27.0993  27.1190  27.3744  27.5651
    27.8528  27.8720  28.0712  28.2967  28.8566  29.1773  29.7382  29.8488
    29.9253  29.9619  30.0372  30.1318  30.2227  30.3209  30.8237  30.8556
    31.0134  31.0918

          k = 0.0556 0.2773-0.5000 ( 33078 PWs)   bands (ev):

   -64.8971 -64.8964 -64.8840 -64.8833 -64.8737 -64.8729 -64.8692 -64.8684
   -64.8675 -64.8668 -64.8644 -64.8636 -64.8611 -64.8604 -64.8568 -64.8560
   -64.8560 -64.8552 -64.8541 -64.8534 -64.8518 -64.8513 -64.8511 -64.8507
   -64.8505 -64.8500 -64.8481 -64.8479 -64.8473 -64.8472 -64.8457 -64.8449
   -30.7568 -30.7566 -30.7549 -30.7546 -30.7339 -30.7332 -30.7330 -30.7327
   -30.7323 -30.7322 -30.7220 -30.7217 -30.7213 -30.7213 -30.7185 -30.7185
   -30.7176 -30.7175 -30.7084 -30.7080 -30.6890 -30.6886 -30.6884 -30.6880
   -30.6731 -30.6727 -30.6591 -30.6591 -30.6545 -30.6541 -30.6124 -30.6122
   -30.6108 -30.6105 -30.6040 -30.6037 -30.5993 -30.5985 -30.5865 -30.5864
   -30.5854 -30.5847 -30.5511 -30.5511 -30.5505 -30.5504 -30.5480 -30.5472
   -30.5462 -30.5460 -30.5444 -30.5442 -30.5390 -30.5388 -30.5370 -30.5363
   -30.5261 -30.5255 -30.5238 -30.5236 -30.5171 -30.5166 -30.5165 -30.5161
   -30.5084 -30.5076 -30.5058 -30.5053 -30.5023 -30.5020 -30.5006 -30.5003
   -30.4950 -30.4943 -30.4919 -30.4912 -30.4911 -30.4904 -30.4895 -30.4892
   -30.4842 -30.4835 -30.4815 -30.4811 -30.4772 -30.4765 -30.4689 -30.4686
   -30.4683 -30.4676 -30.4480 -30.4473 -30.4446 -30.4444 -30.4330 -30.4328
    13.1583  13.1592  14.1596  14.1605  14.3972  14.3973  14.4670  14.4678
    14.4899  14.4900  14.4902  14.4907  14.5543  14.5551  14.5953  14.5957
    14.6793  14.6801  14.7065  14.7065  14.7216  14.7217  14.7395  14.7397
    14.7827  14.7835  14.8834  14.8838  14.9277  14.9278  14.9898  14.9904
    15.1635  15.1643  15.1790  15.1795  15.2590  15.2592  15.3229  15.3231
    15.3324  15.3332  15.5135  15.5141  15.5452  15.5452  15.5613  15.5620
    15.8289  15.8290  15.8292  15.8297  15.9388  15.9390  15.9525  15.9531
    15.9725  15.9731  16.0894  16.0899  16.3005  16.3011  16.3832  16.3838
    16.3922  16.3923  16.4256  16.4261  16.4620  16.4622  16.4789  16.4790
    16.5252  16.5254  16.6717  16.6718  16.7229  16.7234  16.7267  16.7269
    16.7514  16.7514  16.7822  16.7828  16.7900  16.7906  16.7989  16.7991
    16.9634  16.9638  16.9835  16.9838  17.1366  17.1366  17.1433  17.1437
    17.1530  17.1535  17.2177  17.2178  17.2305  17.2307  17.2464  17.2466
    17.3035  17.3040  17.5604  17.5610  17.5613  17.5616  17.6178  17.6183
    17.6469  17.6474  17.6712  17.6719  17.6797  17.6800  17.9615  17.9622
    17.9672  17.9678  18.1527  18.1534  18.1828  18.1834  18.1959  18.1966
    18.3566  18.3573  18.4826  18.4833  18.4872  18.4879  18.6083  18.6090
    18.6305  18.6312  18.6772  18.6772  18.7249  18.7249  18.7251  18.7252
    18.8467  18.8473  18.8741  18.8741  18.8991  18.8994  18.9442  18.9446
    18.9462  18.9466  18.9614  18.9617  18.9660  18.9661  18.9844  18.9845
    19.1808  19.1810  19.2423  19.2430  19.2471  19.2476  19.5832  19.5833
    19.7352  19.7359  20.2993  20.3000  20.6095  20.6098  20.9018  20.9024
    22.4869  22.4876  22.8624  22.8630  23.0475  23.0480  23.4707  23.4713
    24.2078  24.2081  24.6823  24.6824  25.1051  25.1057  25.8244  25.8246
    26.5757  26.5758  26.9351  26.9352  26.9928  26.9934  27.3164  27.3171
    27.4623  27.4630  28.6386  28.6387  28.9800  28.9801  29.5574  29.5575
    29.8674  29.8683  30.0088  30.0097  30.4227  30.4236  30.6098  30.6098
    31.2564  31.2569

          k = 0.0556 0.3882 0.0556 ( 33051 PWs)   bands (ev):

   -64.9028 -64.8950 -64.8764 -64.8764 -64.8722 -64.8721 -64.8714 -64.8713
   -64.8678 -64.8677 -64.8632 -64.8625 -64.8608 -64.8607 -64.8607 -64.8605
   -64.8593 -64.8587 -64.8586 -64.8523 -64.8523 -64.8512 -64.8511 -64.8510
   -64.8481 -64.8481 -64.8476 -64.8475 -64.8450 -64.8449 -64.8449 -64.8447
   -30.7714 -30.7673 -30.7672 -30.7614 -30.7531 -30.7531 -30.7417 -30.7407
   -30.7352 -30.7352 -30.7278 -30.7278 -30.7275 -30.7003 -30.6970 -30.6969
   -30.6921 -30.6920 -30.6904 -30.6904 -30.6810 -30.6809 -30.6637 -30.6636
   -30.6561 -30.6561 -30.6458 -30.6457 -30.6410 -30.6410 -30.6406 -30.6406
   -30.6356 -30.6356 -30.6193 -30.6193 -30.6170 -30.6170 -30.6079 -30.6079
   -30.5819 -30.5819 -30.5603 -30.5603 -30.5594 -30.5593 -30.5480 -30.5467
   -30.5429 -30.5353 -30.5353 -30.5349 -30.5349 -30.5341 -30.5340 -30.5325
   -30.5325 -30.5306 -30.5297 -30.5212 -30.5211 -30.5211 -30.5130 -30.5130
   -30.5090 -30.5089 -30.5088 -30.5087 -30.5071 -30.5007 -30.5004 -30.5004
   -30.5000 -30.5000 -30.4925 -30.4831 -30.4830 -30.4790 -30.4777 -30.4752
   -30.4751 -30.4751 -30.4749 -30.4744 -30.4744 -30.4707 -30.4699 -30.4698
   -30.4691 -30.4625 -30.4625 -30.4564 -30.4501 -30.4493 -30.4330 -30.4320
    12.6933  13.2878  14.2130  14.2856  14.2856  14.2962  14.3485  14.3485
    14.3858  14.4326  14.4588  14.5476  14.5476  14.5815  14.5816  14.6212
    14.6212  14.6339  14.6923  14.7052  14.7053  14.7571  14.7808  14.7808
    14.9194  14.9194  14.9260  14.9261  15.1245  15.1245  15.2174  15.2174
    15.2728  15.2729  15.3420  15.3420  15.3584  15.3585  15.5001  15.5001
    15.5525  15.5526  15.5635  15.5635  15.6624  15.6624  15.7005  15.7006
    15.7163  15.7164  15.7595  15.7596  15.8055  15.8055  15.9168  15.9480
    15.9480  15.9781  15.9782  16.0849  16.1359  16.1360  16.1363  16.1364
    16.1611  16.1611  16.2153  16.2260  16.2621  16.2805  16.2805  16.3207
    16.3207  16.3598  16.4500  16.4501  16.5917  16.6351  16.6351  16.6605
    16.6610  16.6621  16.6903  16.6903  16.6981  16.6982  16.8517  16.8951
    16.8951  16.9362  16.9420  16.9483  17.1247  17.1288  17.1288  17.1425
    17.3669  17.3669  17.4953  17.4954  17.4981  17.5197  17.5197  17.6909
    17.6911  17.7283  17.7283  17.7361  17.7362  17.7514  17.7516  17.7566
    17.7895  17.7895  17.8768  17.8769  17.9143  17.9175  17.9175  17.9187
    17.9188  17.9372  17.9372  17.9492  17.9492  18.0370  18.0943  18.1486
    18.1486  18.2275  18.2973  18.2973  18.3904  18.3904  18.4263  18.4651
    18.5490  18.5490  18.5553  18.6085  18.6147  18.6148  18.6359  18.6359
    18.7891  18.7892  18.8029  18.9007  18.9041  18.9041  18.9319  18.9383
    18.9439  18.9439  18.9845  19.0485  19.0485  19.0492  19.0492  19.1231
    19.2410  19.2410  19.3595  19.4379  19.4379  19.4384  19.4384  19.6405
    19.6405  20.0499  20.0500  20.4623  20.7557  20.8344  21.0121  21.0121
    21.2954  21.2954  21.4801  21.8311  23.3423  23.3423  23.8897  23.8898
    23.9361  23.9361  24.9606  24.9606  25.2947  25.2947  25.5095  25.5095
    26.8137  27.2303  27.2304  27.7123  28.0118  28.1937  28.1938  28.5429
    28.5429  28.8521  28.8523  29.0966  29.1089  29.1089  29.4996  29.4997
    29.6451  29.6451  29.7203  29.7204  30.1585  30.1585  30.1791  30.1792
    30.4027  30.4028

          k = 0.0556 0.3882 0.1667 ( 33060 PWs)   bands (ev):

   -64.9019 -64.8943 -64.8814 -64.8764 -64.8760 -64.8718 -64.8710 -64.8675
   -64.8663 -64.8657 -64.8643 -64.8634 -64.8627 -64.8620 -64.8589 -64.8585
   -64.8582 -64.8580 -64.8566 -64.8535 -64.8525 -64.8514 -64.8509 -64.8500
   -64.8486 -64.8484 -64.8480 -64.8471 -64.8458 -64.8456 -64.8451 -64.8449
   -30.7717 -30.7692 -30.7595 -30.7519 -30.7501 -30.7499 -30.7431 -30.7401
   -30.7395 -30.7267 -30.7266 -30.7249 -30.7168 -30.7075 -30.7057 -30.7011
   -30.7007 -30.7004 -30.6992 -30.6956 -30.6864 -30.6825 -30.6795 -30.6719
   -30.6638 -30.6599 -30.6548 -30.6508 -30.6476 -30.6396 -30.6310 -30.6263
   -30.6247 -30.6237 -30.6198 -30.6152 -30.6074 -30.6053 -30.6028 -30.5924
   -30.5896 -30.5795 -30.5568 -30.5567 -30.5541 -30.5540 -30.5538 -30.5513
   -30.5484 -30.5460 -30.5446 -30.5368 -30.5336 -30.5335 -30.5326 -30.5318
   -30.5285 -30.5281 -30.5258 -30.5227 -30.5153 -30.5145 -30.5110 -30.5109
   -30.5102 -30.5100 -30.5098 -30.5085 -30.5079 -30.5077 -30.5076 -30.4967
   -30.4951 -30.4947 -30.4876 -30.4873 -30.4860 -30.4853 -30.4845 -30.4831
   -30.4821 -30.4812 -30.4753 -30.4750 -30.4737 -30.4714 -30.4689 -30.4662
   -30.4658 -30.4634 -30.4575 -30.4526 -30.4522 -30.4456 -30.4351 -30.4292
    12.7613  13.3480  14.2608  14.2759  14.2922  14.3077  14.3215  14.3429
    14.4315  14.4543  14.4829  14.4985  14.5644  14.5727  14.5795  14.6044
    14.6283  14.6599  14.6675  14.6684  14.7282  14.7444  14.7935  14.8042
    14.8251  14.8541  14.9399  14.9582  14.9765  15.0574  15.1687  15.1891
    15.1940  15.2107  15.2484  15.3039  15.3103  15.4345  15.4446  15.4669
    15.4954  15.5107  15.5717  15.5874  15.6047  15.6115  15.6134  15.6207
    15.6588  15.7001  15.7584  15.7882  15.7983  15.8569  15.9255  15.9561
    15.9855  16.0341  16.1427  16.1462  16.1784  16.2068  16.2149  16.2202
    16.2225  16.2303  16.2788  16.3089  16.3302  16.3336  16.3366  16.3674
    16.4072  16.4519  16.4620  16.5953  16.5989  16.6533  16.6605  16.6704
    16.6749  16.6773  16.7171  16.7308  16.7502  16.8129  16.8204  16.8243
    16.9049  16.9157  16.9390  17.0073  17.0379  17.0639  17.1023  17.1238
    17.2805  17.2841  17.3059  17.3259  17.3363  17.3573  17.4539  17.5439
    17.5482  17.5675  17.6308  17.6791  17.7279  17.7462  17.7547  17.7573
    17.7654  17.7834  17.8289  17.8601  17.8995  17.9223  17.9302  17.9374
    17.9891  17.9955  18.0433  18.0818  18.0991  18.1503  18.1784  18.1901
    18.2215  18.2238  18.2308  18.3612  18.3802  18.3837  18.4107  18.4169
    18.5294  18.5666  18.6079  18.6418  18.6754  18.6997  18.7019  18.7079
    18.7121  18.7177  18.7420  18.8033  18.8076  18.9073  18.9111  18.9357
    18.9592  19.0022  19.0048  19.0499  19.0505  19.0510  19.0545  19.1436
    19.2175  19.2918  19.3660  19.3706  19.3709  19.3738  19.6086  19.6277
    19.7352  20.0005  20.0283  20.2803  20.5358  20.6054  20.8108  21.1439
    21.6338  21.9099  21.9887  22.4262  22.8102  23.3586  23.5390  23.8980
    24.1338  24.4081  24.4635  24.8150  25.0111  25.4539  25.5378  26.0620
    26.4946  26.8184  27.4366  27.5199  27.5233  27.7265  27.9850  28.0257
    28.2401  28.2548  28.4806  28.7799  28.9184  29.1151  29.4750  29.5556
    29.6862  29.8567  29.8782  30.0249  30.1123  30.3029  30.3170  30.3669
    30.4387  30.7090

          k = 0.0556 0.3882 0.2778 ( 33070 PWs)   bands (ev):

   -64.9002 -64.8928 -64.8861 -64.8806 -64.8751 -64.8712 -64.8703 -64.8680
   -64.8671 -64.8660 -64.8646 -64.8632 -64.8616 -64.8593 -64.8581 -64.8571
   -64.8567 -64.8558 -64.8548 -64.8546 -64.8530 -64.8520 -64.8508 -64.8491
   -64.8491 -64.8488 -64.8488 -64.8475 -64.8471 -64.8466 -64.8455 -64.8450
   -30.7681 -30.7671 -30.7486 -30.7442 -30.7430 -30.7423 -30.7404 -30.7390
   -30.7369 -30.7239 -30.7226 -30.7224 -30.7194 -30.7156 -30.7108 -30.7102
   -30.7100 -30.7033 -30.7028 -30.7018 -30.6963 -30.6931 -30.6857 -30.6848
   -30.6834 -30.6697 -30.6609 -30.6590 -30.6499 -30.6379 -30.6261 -30.6215
   -30.6178 -30.6072 -30.6058 -30.6004 -30.6003 -30.5991 -30.5902 -30.5869
   -30.5748 -30.5677 -30.5657 -30.5613 -30.5577 -30.5576 -30.5515 -30.5499
   -30.5478 -30.5451 -30.5447 -30.5395 -30.5385 -30.5381 -30.5341 -30.5276
   -30.5273 -30.5260 -30.5255 -30.5252 -30.5227 -30.5174 -30.5146 -30.5136
   -30.5123 -30.5102 -30.5060 -30.5058 -30.5039 -30.5015 -30.5013 -30.5010
   -30.4948 -30.4934 -30.4926 -30.4899 -30.4879 -30.4878 -30.4875 -30.4875
   -30.4813 -30.4804 -30.4784 -30.4766 -30.4752 -30.4747 -30.4745 -30.4702
   -30.4652 -30.4651 -30.4569 -30.4468 -30.4449 -30.4410 -30.4395 -30.4272
    12.8953  13.4663  13.9649  14.2883  14.3542  14.3569  14.3691  14.3874
    14.3907  14.5406  14.5416  14.5433  14.5531  14.5775  14.5806  14.6225
    14.6455  14.6511  14.6550  14.6993  14.7104  14.7348  14.7857  14.8001
    14.8183  14.8709  14.8978  14.9103  14.9809  15.0060  15.0326  15.0442
    15.0801  15.1790  15.1836  15.2187  15.2633  15.2898  15.2929  15.3436
    15.3573  15.4054  15.4346  15.4716  15.5099  15.6187  15.6617  15.6805
    15.6978  15.7483  15.8118  15.8416  15.8657  15.8899  15.9382  16.0486
    16.0632  16.0652  16.1498  16.2009  16.2105  16.2690  16.3160  16.3199
    16.3558  16.3580  16.3629  16.3946  16.4288  16.4542  16.4735  16.5577
    16.5662  16.6054  16.6279  16.6307  16.6403  16.6644  16.6742  16.7076
    16.7081  16.7155  16.7254  16.8118  16.8138  16.8308  16.8380  16.8494
    16.8626  16.9401  16.9410  16.9427  17.0197  17.0404  17.0989  17.1140
    17.1299  17.1708  17.1848  17.2033  17.2052  17.2433  17.2714  17.3652
    17.4777  17.4804  17.5044  17.5121  17.5234  17.5355  17.5921  17.6129
    17.6492  17.6791  17.7387  17.7549  17.7627  17.8492  18.0115  18.0553
    18.0664  18.0798  18.0909  18.0983  18.2224  18.2272  18.2419  18.2566
    18.2606  18.3025  18.4084  18.4295  18.4302  18.4403  18.4974  18.5110
    18.5125  18.5865  18.6138  18.6477  18.6527  18.7143  18.7385  18.8098
    18.8220  18.8223  18.8341  18.8347  18.8473  18.8474  18.8760  18.8975
    18.9907  19.0429  19.0472  19.0486  19.0531  19.0560  19.0588  19.0666
    19.1189  19.1885  19.2411  19.2431  19.2539  19.2748  19.5468  19.6294
    19.8544  19.9899  20.1250  20.2152  20.2732  20.3664  21.1086  21.6130
    22.2851  22.2931  22.4952  22.6012  22.8992  23.0810  23.3738  23.8478
    23.8825  24.0904  24.4967  25.0606  25.0755  25.4557  25.7539  26.3098
    26.4988  26.6009  26.7435  26.8769  27.0849  27.1399  27.3942  27.5494
    27.8549  27.8928  28.0791  28.2943  28.8542  29.1797  29.7299  29.8489
    29.9257  29.9625  30.0493  30.1322  30.2140  30.3128  30.8527  30.8643
    31.0228  31.0995

          k = 0.0556 0.3882 0.3889 ( 33091 PWs)   bands (ev):

   -64.8977 -64.8906 -64.8905 -64.8844 -64.8739 -64.8703 -64.8702 -64.8693
   -64.8676 -64.8664 -64.8663 -64.8644 -64.8576 -64.8572 -64.8559 -64.8557
   -64.8555 -64.8553 -64.8537 -64.8536 -64.8530 -64.8529 -64.8506 -64.8503
   -64.8500 -64.8498 -64.8494 -64.8493 -64.8478 -64.8463 -64.8460 -64.8452
   -30.7610 -30.7610 -30.7383 -30.7382 -30.7376 -30.7373 -30.7354 -30.7347
   -30.7329 -30.7323 -30.7234 -30.7221 -30.7220 -30.7195 -30.7188 -30.7112
   -30.7110 -30.7042 -30.7038 -30.7035 -30.7028 -30.7025 -30.7021 -30.6901
   -30.6879 -30.6876 -30.6731 -30.6587 -30.6540 -30.6379 -30.6375 -30.6123
   -30.6039 -30.6038 -30.5931 -30.5918 -30.5849 -30.5778 -30.5776 -30.5732
   -30.5722 -30.5718 -30.5717 -30.5681 -30.5666 -30.5494 -30.5481 -30.5440
   -30.5439 -30.5435 -30.5435 -30.5426 -30.5404 -30.5403 -30.5384 -30.5383
   -30.5357 -30.5355 -30.5229 -30.5227 -30.5206 -30.5204 -30.5200 -30.5154
   -30.5154 -30.5054 -30.5054 -30.5031 -30.5028 -30.5025 -30.5025 -30.4998
   -30.4943 -30.4939 -30.4937 -30.4928 -30.4927 -30.4904 -30.4872 -30.4833
   -30.4830 -30.4804 -30.4788 -30.4785 -30.4782 -30.4764 -30.4739 -30.4677
   -30.4674 -30.4640 -30.4637 -30.4459 -30.4399 -30.4380 -30.4380 -30.4280
    13.0915  13.6381  13.6399  14.1108  14.3336  14.4271  14.4377  14.4878
    14.4880  14.5198  14.5199  14.5216  14.6366  14.6367  14.6634  14.6811
    14.6811  14.6956  14.6964  14.6973  14.6977  14.7202  14.7216  14.8400
    14.8419  14.8558  14.8733  14.9084  14.9104  15.0131  15.0134  15.0161
    15.0167  15.0422  15.0424  15.0851  15.0853  15.2181  15.2187  15.2335
    15.2342  15.2612  15.2618  15.4980  15.4987  15.5463  15.7354  15.7366
    15.7404  15.7410  15.8380  15.9029  15.9424  15.9439  15.9459  15.9516
    15.9655  16.1546  16.2654  16.2663  16.3206  16.4415  16.4488  16.4543
    16.4865  16.4867  16.4909  16.4927  16.4941  16.4958  16.5296  16.5324
    16.5612  16.5746  16.7110  16.7226  16.7392  16.7422  16.7516  16.7768
    16.7906  16.8050  16.8067  16.8277  16.8279  16.8305  16.9388  16.9411
    16.9452  16.9483  16.9527  16.9549  16.9708  16.9735  17.0637  17.0701
    17.0729  17.0890  17.1668  17.1684  17.1694  17.2274  17.2703  17.2734
    17.2780  17.2879  17.2887  17.3045  17.3080  17.3293  17.3328  17.4878
[...]
    23.9262  23.9263  23.9264  23.9264  26.0503  26.0507  26.0510  26.0514
    26.3981  26.3982  26.3982  26.3983  26.3983  26.3984  26.3985  26.3985
    27.1780  27.1782  27.1784  27.1784  29.8257  29.8259  29.8266  29.8268
    30.3467  30.3467  30.3468  30.3468  30.9379  30.9379  30.9380  30.9380
    31.5071  31.5072

          k =-0.5000 0.1664-0.5000 ( 33092 PWs)   bands (ev):

   -64.8912 -64.8908 -64.8904 -64.8901 -64.8753 -64.8749 -64.8745 -64.8741
   -64.8636 -64.8633 -64.8629 -64.8625 -64.8535 -64.8534 -64.8533 -64.8532
   -64.8531 -64.8531 -64.8529 -64.8528 -64.8527 -64.8527 -64.8525 -64.8524
   -64.8524 -64.8523 -64.8522 -64.8521 -64.8477 -64.8473 -64.8469 -64.8466
   -30.7416 -30.7416 -30.7416 -30.7415 -30.7414 -30.7413 -30.7413 -30.7413
   -30.7192 -30.7192 -30.7189 -30.7189 -30.7186 -30.7186 -30.7183 -30.7183
   -30.7178 -30.7175 -30.7172 -30.7168 -30.7154 -30.7152 -30.7149 -30.7148
   -30.6710 -30.6709 -30.6707 -30.6705 -30.6278 -30.6278 -30.6277 -30.6277
   -30.5716 -30.5716 -30.5716 -30.5716 -30.5716 -30.5716 -30.5715 -30.5715
   -30.5704 -30.5703 -30.5701 -30.5700 -30.5697 -30.5697 -30.5694 -30.5694
   -30.5519 -30.5518 -30.5518 -30.5517 -30.5306 -30.5306 -30.5304 -30.5304
   -30.5302 -30.5300 -30.5300 -30.5298 -30.5295 -30.5294 -30.5294 -30.5293
   -30.5096 -30.5095 -30.5093 -30.5091 -30.5080 -30.5079 -30.5078 -30.5076
   -30.5074 -30.5073 -30.5072 -30.5071 -30.4948 -30.4948 -30.4948 -30.4947
   -30.4693 -30.4693 -30.4693 -30.4692 -30.4644 -30.4641 -30.4639 -30.4637
   -30.4588 -30.4585 -30.4581 -30.4578 -30.4345 -30.4345 -30.4344 -30.4344
    13.6148  13.6153  13.6157  13.6162  14.3152  14.3154  14.3156  14.3158
    14.6574  14.6574  14.6575  14.6575  14.6621  14.6622  14.6622  14.6623
    14.7346  14.7347  14.7348  14.7350  14.7352  14.7354  14.7355  14.7356
    14.9346  14.9346  14.9347  14.9348  14.9349  14.9350  14.9351  14.9351
    15.0400  15.0401  15.0402  15.0403  15.0406  15.0408  15.0409  15.0410
    15.2303  15.2303  15.2304  15.2304  15.7314  15.7315  15.7318  15.7320
    15.7321  15.7322  15.7325  15.7326  16.0520  16.0524  16.0526  16.0530
    16.0685  16.0687  16.0687  16.0688  16.5514  16.5516  16.5516  16.5518
    16.6226  16.6227  16.6227  16.6228  16.6228  16.6230  16.6232  16.6234
    16.7910  16.7911  16.7912  16.7912  16.7912  16.7913  16.7913  16.7913
    16.7914  16.7914  16.7915  16.7917  16.8212  16.8213  16.8215  16.8216
    16.8576  16.8577  16.8577  16.8580  17.1098  17.1098  17.1099  17.1101
    17.1102  17.1103  17.1104  17.1105  17.1398  17.1399  17.1401  17.1402
    17.2344  17.2346  17.2347  17.2349  17.3496  17.3496  17.3497  17.3497
    17.3499  17.3499  17.3501  17.3501  17.6778  17.6780  17.6785  17.6787
    18.1562  18.1564  18.1568  18.1571  18.2973  18.2975  18.2975  18.2978
    18.2978  18.2980  18.2981  18.2982  18.3054  18.3055  18.3058  18.3060
    18.6293  18.6294  18.6297  18.6298  18.6925  18.6927  18.6930  18.6931
    19.0448  19.0448  19.0449  19.0451  19.0451  19.0453  19.0454  19.0454
    19.0671  19.0672  19.0672  19.0673  19.0673  19.0674  19.0674  19.0674
    19.0787  19.0789  19.0789  19.0790  19.1039  19.1040  19.1043  19.1044
    20.3524  20.3527  20.3529  20.3532  22.0639  22.0641  22.0642  22.0643
    22.0645  22.0645  22.0646  22.0648  23.7526  23.7526  23.7528  23.7528
    23.7531  23.7531  23.7532  23.7533  25.4559  25.4562  25.4565  25.4569
    26.6365  26.6366  26.6367  26.6368  26.6369  26.6370  26.6370  26.6371
    27.3099  27.3101  27.3102  27.3103  29.7743  29.7744  29.7745  29.7745
    30.4609  30.4611  30.4618  30.4620  30.6165  30.6167  30.6168  30.6170
    30.6172  30.6173

          k =-0.5000 0.2773-0.5000 ( 33052 PWs)   bands (ev):

   -64.8898 -64.8895 -64.8891 -64.8887 -64.8789 -64.8786 -64.8782 -64.8778
   -64.8599 -64.8596 -64.8592 -64.8588 -64.8535 -64.8534 -64.8533 -64.8532
   -64.8531 -64.8531 -64.8529 -64.8528 -64.8527 -64.8527 -64.8525 -64.8524
   -64.8524 -64.8523 -64.8522 -64.8521 -64.8490 -64.8487 -64.8483 -64.8479
   -30.7389 -30.7389 -30.7388 -30.7388 -30.7386 -30.7386 -30.7385 -30.7385
   -30.7238 -30.7237 -30.7236 -30.7234 -30.7234 -30.7232 -30.7230 -30.7228
   -30.7222 -30.7222 -30.7220 -30.7219 -30.7218 -30.7216 -30.7215 -30.7214
   -30.6514 -30.6512 -30.6511 -30.6509 -30.6119 -30.6119 -30.6118 -30.6117
   -30.5717 -30.5716 -30.5716 -30.5716 -30.5715 -30.5715 -30.5715 -30.5715
   -30.5709 -30.5708 -30.5707 -30.5706 -30.5704 -30.5703 -30.5701 -30.5701
   -30.5677 -30.5677 -30.5676 -30.5675 -30.5293 -30.5291 -30.5289 -30.5288
   -30.5271 -30.5271 -30.5270 -30.5269 -30.5269 -30.5267 -30.5265 -30.5264
   -30.5264 -30.5263 -30.5262 -30.5261 -30.5104 -30.5103 -30.5103 -30.5100
   -30.5100 -30.5097 -30.5097 -30.5096 -30.5028 -30.5028 -30.5028 -30.5028
   -30.4612 -30.4612 -30.4612 -30.4612 -30.4553 -30.4551 -30.4549 -30.4547
   -30.4533 -30.4531 -30.4527 -30.4525 -30.4373 -30.4373 -30.4373 -30.4373
    13.6823  13.6828  13.6831  13.6836  14.1727  14.1730  14.1732  14.1735
    14.6918  14.6919  14.6919  14.6920  14.7121  14.7121  14.7122  14.7123
    14.7127  14.7128  14.7128  14.7129  14.7174  14.7175  14.7176  14.7176
    14.8655  14.8656  14.8657  14.8658  14.8659  14.8660  14.8661  14.8662
    15.1786  15.1786  15.1787  15.1787  15.1793  15.1793  15.1794  15.1794
    15.2865  15.2866  15.2866  15.2867  15.7205  15.7205  15.7209  15.7210
    15.7212  15.7212  15.7216  15.7216  15.8476  15.8480  15.8482  15.8485
    16.1611  16.1613  16.1613  16.1614  16.5631  16.5633  16.5634  16.5637
    16.6966  16.6966  16.6966  16.6966  16.7002  16.7004  16.7006  16.7009
    16.7683  16.7684  16.7686  16.7687  16.7743  16.7744  16.7745  16.7745
    16.7745  16.7746  16.7746  16.7747  16.7747  16.7748  16.7748  16.7749
    16.8100  16.8100  16.8101  16.8103  17.0771  17.0771  17.0773  17.0774
    17.0775  17.0776  17.0777  17.0778  17.1508  17.1511  17.1511  17.1513
    17.2925  17.2927  17.2929  17.2930  17.4249  17.4249  17.4251  17.4251
    17.4252  17.4253  17.4254  17.4254  17.8069  17.8071  17.8075  17.8077
    18.0057  18.0059  18.0062  18.0064  18.0408  18.0409  18.0410  18.0412
    18.0412  18.0414  18.0415  18.0416  18.2528  18.2530  18.2532  18.2534
    18.3115  18.3116  18.3119  18.3120  18.5163  18.5164  18.5168  18.5169
    19.1298  19.1299  19.1299  19.1300  19.1300  19.1300  19.1300  19.1301
    19.1471  19.1473  19.1474  19.1475  19.1698  19.1699  19.1699  19.1701
    19.1701  19.1703  19.1703  19.1704  19.1828  19.1829  19.1831  19.1833
    21.1061  21.1063  21.1066  21.1069  22.2468  22.2469  22.2470  22.2472
    22.2473  22.2475  22.2475  22.2476  23.4710  23.4711  23.4711  23.4713
    23.4714  23.4716  23.4717  23.4717  24.6123  24.6126  24.6130  24.6133
    27.0539  27.0540  27.0541  27.0542  27.0544  27.0545  27.0545  27.0547
    27.5395  27.5396  27.5398  27.5398  29.2277  29.2278  29.2279  29.2279
    29.7619  29.7620  29.7621  29.7622  29.7625  29.7626  29.7628  29.7628
    31.4102  31.4107

          k =-0.5000 0.3882-0.5000 ( 33092 PWs)   bands (ev):

   -64.8879 -64.8875 -64.8871 -64.8868 -64.8823 -64.8820 -64.8816 -64.8812
   -64.8566 -64.8562 -64.8558 -64.8555 -64.8535 -64.8534 -64.8533 -64.8532
   -64.8531 -64.8531 -64.8529 -64.8528 -64.8527 -64.8527 -64.8525 -64.8524
   -64.8524 -64.8523 -64.8522 -64.8521 -64.8509 -64.8506 -64.8502 -64.8498
   -30.7352 -30.7352 -30.7351 -30.7350 -30.7349 -30.7348 -30.7347 -30.7347
   -30.7289 -30.7286 -30.7284 -30.7284 -30.7282 -30.7281 -30.7279 -30.7276
   -30.7263 -30.7263 -30.7261 -30.7260 -30.7259 -30.7257 -30.7256 -30.7256
   -30.6303 -30.6301 -30.6300 -30.6298 -30.5926 -30.5926 -30.5924 -30.5923
   -30.5873 -30.5872 -30.5871 -30.5870 -30.5717 -30.5717 -30.5716 -30.5716
   -30.5715 -30.5715 -30.5714 -30.5714 -30.5713 -30.5712 -30.5711 -30.5710
   -30.5709 -30.5708 -30.5707 -30.5707 -30.5503 -30.5501 -30.5500 -30.5498
   -30.5228 -30.5227 -30.5227 -30.5226 -30.5225 -30.5224 -30.5222 -30.5221
   -30.5221 -30.5220 -30.5219 -30.5219 -30.5139 -30.5138 -30.5137 -30.5136
   -30.5134 -30.5132 -30.5131 -30.5130 -30.5102 -30.5102 -30.5102 -30.5102
   -30.4538 -30.4537 -30.4537 -30.4537 -30.4499 -30.4497 -30.4494 -30.4493
   -30.4493 -30.4491 -30.4488 -30.4485 -30.4417 -30.4416 -30.4416 -30.4416
    13.7780  13.7785  13.7788  13.7793  14.0304  14.0307  14.0310  14.0313
    14.7157  14.7157  14.7158  14.7159  14.7163  14.7163  14.7164  14.7164
    14.7234  14.7234  14.7235  14.7235  14.7453  14.7454  14.7455  14.7456
    14.7979  14.7979  14.7980  14.7981  14.7983  14.7985  14.7985  14.7986
    15.3374  15.3375  15.3376  15.3377  15.3381  15.3383  15.3383  15.3384
    15.3759  15.3760  15.3761  15.3762  15.6389  15.6389  15.6392  15.6394
    15.6394  15.6396  15.6399  15.6399  15.6605  15.6608  15.6610  15.6613
    16.2893  16.2895  16.2895  16.2896  16.5330  16.5332  16.5333  16.5334
    16.7191  16.7191  16.7193  16.7193  16.7430  16.7431  16.7433  16.7434
    16.7523  16.7525  16.7526  16.7528  16.7683  16.7683  16.7685  16.7686
    16.7981  16.7982  16.7982  16.7983  16.8275  16.8276  16.8276  16.8276
    16.8278  16.8278  16.8279  16.8280  17.0163  17.0164  17.0165  17.0166
    17.0167  17.0167  17.0169  17.0170  17.0403  17.0405  17.0405  17.0407
    17.4624  17.4626  17.4628  17.4630  17.5151  17.5151  17.5152  17.5153
    17.5154  17.5155  17.5156  17.5156  17.8125  17.8126  17.8126  17.8128
    17.8129  17.8131  17.8131  17.8132  17.8287  17.8289  17.8292  17.8294
    17.9678  17.9680  17.9684  17.9685  18.1604  18.1605  18.1607  18.1608
    18.1893  18.1895  18.1898  18.1899  18.3317  18.3318  18.3322  18.3323
    19.1936  19.1936  19.1937  19.1937  19.1938  19.1938  19.1939  19.1939
    19.2033  19.2035  19.2036  19.2038  19.2258  19.2259  19.2261  19.2262
    19.2315  19.2315  19.2315  19.2317  19.2317  19.2318  19.2319  19.2319
    21.9251  21.9254  21.9257  21.9260  22.5030  22.5030  22.5031  22.5033
    22.5034  22.5036  22.5037  22.5038  23.1432  23.1433  23.1433  23.1436
    23.1436  23.1439  23.1439  23.1440  23.7026  23.7030  23.7033  23.7036
    27.5979  27.5980  27.5981  27.5982  27.5984  27.5985  27.5986  27.5987
    27.8586  27.8588  27.8589  27.8589  28.7173  28.7174  28.7175  28.7175
    28.9656  28.9657  28.9658  28.9659  28.9662  28.9663  28.9664  28.9665
    32.4785  32.4788

          k =-0.5000-0.4992-0.5000 ( 33016 PWs)   bands (ev):

   -64.8854 -64.8853 -64.8851 -64.8849 -64.8847 -64.8845 -64.8843 -64.8842
   -64.8539 -64.8538 -64.8536 -64.8535 -64.8534 -64.8533 -64.8532 -64.8532
   -64.8531 -64.8530 -64.8530 -64.8529 -64.8528 -64.8527 -64.8527 -64.8526
   -64.8526 -64.8524 -64.8524 -64.8523 -64.8522 -64.8521 -64.8520 -64.8518
   -30.7310 -30.7309 -30.7309 -30.7308 -30.7308 -30.7307 -30.7306 -30.7306
   -30.7305 -30.7304 -30.7304 -30.7303 -30.7303 -30.7303 -30.7303 -30.7302
   -30.7300 -30.7299 -30.7298 -30.7297 -30.7295 -30.7295 -30.7293 -30.7292
   -30.6086 -30.6085 -30.6085 -30.6084 -30.6083 -30.6083 -30.6082 -30.6082
   -30.5718 -30.5717 -30.5717 -30.5716 -30.5715 -30.5715 -30.5715 -30.5715
   -30.5714 -30.5714 -30.5714 -30.5714 -30.5714 -30.5713 -30.5713 -30.5713
   -30.5713 -30.5712 -30.5712 -30.5712 -30.5711 -30.5711 -30.5711 -30.5710
   -30.5181 -30.5181 -30.5180 -30.5180 -30.5179 -30.5179 -30.5179 -30.5179
   -30.5176 -30.5176 -30.5175 -30.5175 -30.5173 -30.5173 -30.5173 -30.5173
   -30.5169 -30.5168 -30.5168 -30.5168 -30.5167 -30.5167 -30.5167 -30.5166
   -30.4480 -30.4480 -30.4479 -30.4478 -30.4477 -30.4476 -30.4473 -30.4473
   -30.4472 -30.4471 -30.4471 -30.4471 -30.4470 -30.4470 -30.4469 -30.4469
    13.8961  13.8966  13.8966  13.8968  13.8970  13.8973  13.8973  13.8977
    14.7446  14.7447  14.7448  14.7448  14.7449  14.7450  14.7451  14.7451
    14.7455  14.7455  14.7455  14.7456  14.7456  14.7456  14.7457  14.7458
    14.7460  14.7460  14.7461  14.7462  14.7462  14.7462  14.7463  14.7463
    15.4995  15.4996  15.4998  15.4998  15.4998  15.4999  15.4999  15.5001
    15.5002  15.5003  15.5003  15.5005  15.5006  15.5006  15.5006  15.5007
    15.5009  15.5012  15.5013  15.5014  15.5015  15.5016  15.5018  15.5019
    16.4294  16.4296  16.4296  16.4297  16.4297  16.4297  16.4297  16.4298
    16.7307  16.7307  16.7308  16.7308  16.7309  16.7309  16.7309  16.7311
    16.7439  16.7440  16.7441  16.7441  16.7442  16.7442  16.7443  16.7444
    16.9174  16.9175  16.9175  16.9176  16.9177  16.9177  16.9177  16.9179
    16.9247  16.9248  16.9249  16.9249  16.9250  16.9250  16.9251  16.9251
    16.9252  16.9252  16.9253  16.9253  16.9253  16.9254  16.9254  16.9256
    17.6372  17.6373  17.6373  17.6374  17.6374  17.6374  17.6375  17.6376
    17.6376  17.6376  17.6377  17.6377  17.6378  17.6378  17.6379  17.6380
    17.6437  17.6438  17.6439  17.6440  17.6442  17.6442  17.6443  17.6445
    18.1417  18.1419  18.1419  18.1420  18.1421  18.1423  18.1423  18.1425
    18.1461  18.1462  18.1463  18.1463  18.1466  18.1467  18.1468  18.1469
    19.2319  19.2319  19.2320  19.2321  19.2321  19.2322  19.2323  19.2324
    19.2344  19.2344  19.2344  19.2344  19.2345  19.2345  19.2345  19.2346
    19.2346  19.2347  19.2347  19.2347  19.2347  19.2348  19.2348  19.2348
    22.7966  22.7966  22.7969  22.7970  22.7972  22.7973  22.7975  22.7976
    22.8102  22.8103  22.8104  22.8106  22.8107  22.8107  22.8107  22.8108
    22.8109  22.8110  22.8110  22.8111  22.8111  22.8113  22.8113  22.8114
    28.2402  28.2403  28.2404  28.2404  28.2405  28.2406  28.2407  28.2407
    28.2408  28.2409  28.2409  28.2410  28.2411  28.2412  28.2412  28.2413
    28.2559  28.2560  28.2561  28.2562  28.2562  28.2563  28.2565  28.2565
    33.4735  33.4735

     the Fermi energy is    19.2551 ev

!    total energy              =  -16384.95868728 Ry
     Harris-Foulkes estimate   =  -16384.95867616 Ry
     estimated scf accuracy    <       0.00000057 Ry

     total all-electron energy =   -322945.812394 Ry

     The total energy is the sum of the following terms:

     one-electron contribution =   -2490.04327656 Ry
     hartree contribution      =    1662.11001237 Ry
     xc contribution           =    -986.49007664 Ry
     ewald contribution        =   -6403.14362707 Ry
     one-center paw contrib.   =   -8167.42513492 Ry
     smearing contrib. (-TS)   =       0.03341554 Ry

     convergence has been achieved in  11 iterations

     Forces acting on atoms (cartesian axes, Ry/au):

     atom    1 type  1   force =     0.00000000    0.00000000    0.00000000
     atom    2 type  1   force =    -0.00000380    0.00025156   -0.00000000
     atom    3 type  1   force =    -0.00003071    0.00000000   -0.00003071
     atom    4 type  1   force =     0.00000000    0.00025156   -0.00000380
     atom    5 type  1   force =     0.00000000    0.00000000   -0.00000000
     atom    6 type  1   force =     0.00004261    0.00042335    0.00000000
     atom    7 type  1   force =    -0.00003071    0.00000000    0.00003071
     atom    8 type  1   force =     0.00000000    0.00025156    0.00000380
     atom    9 type  1   force =     0.00000000   -0.00000000   -0.00000000
     atom   10 type  1   force =    -0.00000380   -0.00025156   -0.00000000
     atom   11 type  1   force =     0.00005856    0.00000000    0.00005856
     atom   12 type  1   force =     0.00000000   -0.00025156   -0.00000380
     atom   13 type  1   force =     0.00000000    0.00000000    0.00000000
     atom   14 type  1   force =     0.00004261   -0.00042335   -0.00000000
     atom   15 type  1   force =     0.00005856    0.00000000   -0.00005856
     atom   16 type  1   force =     0.00000000   -0.00025156    0.00000380
     atom   17 type  1   force =     0.00000000    0.00000000   -0.00000000
     atom   18 type  1   force =     0.00000380    0.00025156    0.00000000
     atom   19 type  1   force =     0.00003071    0.00000000   -0.00003071
     atom   20 type  1   force =     0.00000000    0.00042335    0.00004261
     atom   21 type  1   force =     0.00000000    0.00000000    0.00000000
     atom   22 type  1   force =    -0.00004261    0.00042335   -0.00000000
     atom   23 type  1   force =     0.00003071    0.00000000    0.00003071
     atom   24 type  1   force =    -0.00000000    0.00042335   -0.00004261
     atom   25 type  1   force =     0.00000000    0.00000000    0.00000000
     atom   26 type  1   force =     0.00000380   -0.00025156   -0.00000000
     atom   27 type  1   force =    -0.00005856    0.00000000    0.00005856
     atom   28 type  1   force =    -0.00000000   -0.00042335    0.00004261
     atom   29 type  1   force =     0.00000000    0.00000000    0.00000000
     atom   30 type  1   force =    -0.00004261   -0.00042335    0.00000000
     atom   31 type  1   force =    -0.00005856    0.00000000   -0.00005856
     atom   32 type  1   force =     0.00000000   -0.00042335   -0.00004261

     Total force =     0.001411     Total SCF correction =     0.007160
     SCF correction compared to forces is large: reduce conv_thr to get better values


     Computing stress (Cartesian axis) and pressure

          total   stress  (Ry/bohr**3)                   (kbar)     P=   -1.17
  -0.00000529   0.00000000   0.00000000         -0.78      0.00      0.00
   0.00000000  -0.00001338   0.00000000          0.00     -1.97      0.00
   0.00000000   0.00000000  -0.00000529          0.00      0.00     -0.78


     Writing output data file OzQNNpVfWQJdIgVy.save/
 
     init_run     :     40.76s CPU     44.25s WALL (       1 calls)
     electrons    :   1968.27s CPU   2073.04s WALL (       1 calls)
     forces       :     18.61s CPU     19.41s WALL (       1 calls)
     stress       :    186.06s CPU    187.16s WALL (       1 calls)

     Called by init_run:
     wfcinit      :     39.92s CPU     43.33s WALL (       1 calls)
     potinit      :      0.39s CPU      0.40s WALL (       1 calls)
     hinit0       :      0.27s CPU      0.29s WALL (       1 calls)

     Called by electrons:
     c_bands      :   1789.09s CPU   1874.81s WALL (      12 calls)
     sum_band     :    175.13s CPU    193.78s WALL (      12 calls)
     v_of_rho     :      0.34s CPU      0.36s WALL (      12 calls)
     newd         :      0.85s CPU      1.11s WALL (      12 calls)
     PAW_pot      :      3.06s CPU      3.12s WALL (      12 calls)
     mix_rho      :      0.09s CPU      0.10s WALL (      12 calls)

     Called by c_bands:
     init_us_2    :     10.86s CPU     10.92s WALL (    2025 calls)
     cegterg      :   1728.80s CPU   1814.17s WALL (     900 calls)

     Called by sum_band:
     sum_band:bec :      1.34s CPU      1.37s WALL (     900 calls)
     addusdens    :      0.94s CPU      1.24s WALL (      12 calls)

     Called by *egterg:
     h_psi        :    696.06s CPU    771.70s WALL (    2698 calls)
     s_psi        :     86.33s CPU     86.73s WALL (    2698 calls)
     g_psi        :      2.45s CPU      2.47s WALL (    1723 calls)
     cdiaghg      :    673.13s CPU    675.99s WALL (    2548 calls)

     Called by h_psi:
     h_psi:pot    :    689.33s CPU    764.65s WALL (    2698 calls)
     h_psi:calbec :     88.39s CPU     92.74s WALL (    2698 calls)
     vloc_psi     :    515.60s CPU    586.03s WALL (    2698 calls)
     add_vuspsi   :     85.32s CPU     85.87s WALL (    2698 calls)

     General routines
     calbec       :    150.76s CPU    158.02s WALL (    3973 calls)
     fft          :      0.33s CPU      0.37s WALL (     181 calls)
     ffts         :      0.03s CPU      0.03s WALL (      24 calls)
     fftw         :    600.58s CPU    682.46s WALL ( 1695752 calls)
     interpolate  :      0.04s CPU      0.05s WALL (      12 calls)
 
     Parallel routines
     fft_scatt_xy :     48.68s CPU     54.43s WALL ( 1695957 calls)
     fft_scatt_yz :    397.00s CPU    455.33s WALL ( 1695957 calls)
 
     PWSCF        : 37m 0.76s CPU    40m22.06s WALL

 
   This run was terminated on:  15:19:31  11Nov2020            

=------------------------------------------------------------------------------=
   JOB DONE.
=------------------------------------------------------------------------------=
