--------------------------------------------------------------------------
WARNING: No preset parameters were found for the device that Open MPI
detected:

  Local host:            bear-pg0206u14b
  Device name:           mlx5_0
  Device vendor ID:      0x02c9
  Device vendor part ID: 4123

Default device parameters will be used, which may result in lower
performance.  You can edit any of the files specified by the
btl_openib_device_param_files MCA parameter to set values for your
device.

NOTE: You can turn off this warning by setting the MCA parameter
      btl_openib_warn_no_device_params_found to 0.
--------------------------------------------------------------------------
--------------------------------------------------------------------------
WARNING: There was an error initializing an OpenFabrics device.

  Local host:   bear-pg0206u14b
  Local device: mlx5_0
--------------------------------------------------------------------------

     Program PWSCF v.6.3 starts on 11Nov2020 at 16:39:53 

     This program is part of the open-source Quantum ESPRESSO suite
     for quantum simulation of materials; please cite
         "P. Giannozzi et al., J. Phys.:Condens. Matter 21 395502 (2009);
         "P. Giannozzi et al., J. Phys.:Condens. Matter 29 465901 (2017);
          URL http://www.quantum-espresso.org", 
     in publications or presentations arising from this work. More details at
     http://www.quantum-espresso.org/quote

     Parallel version (MPI & OpenMP), running on      20 processor cores
     Number of MPI processes:                20
     Threads/MPI process:                     1

     MPI processes distributed on     1 nodes
     R & G space division:  proc/nbgrp/npool/nimage =      20
     Reading input from wd/ec/ec_2_006.in
Warning: card &IONS ignored
Warning: card ION_DYNAMICS = 'BFGS', ignored
Warning: card / ignored
Warning: card &CELL ignored
Warning: card CELL_DYNAMICS = 'BFGS', ignored
Warning: card CELL_FACTOR = 2.0, ignored
Warning: card PRESS = 0.0, ignored
Warning: card / ignored

     Current dimensions of program PWSCF are:
     Max number of different atomic species (ntypx) = 10
     Max number of k-points (npk) =  40000
     Max angular momentum in pseudopotentials (lmaxx) =  3
               file Pd.pbe-spn-kjpaw_psl.1.0.0.UPF: wavefunction(s)  4S 5S 4D renormalized

     Subspace diagonalization in iterative solution of the eigenvalue problem:
     a serial algorithm will be used

 
     Parallelization info
     --------------------
     sticks:   dense  smooth     PW     G-vecs:    dense   smooth      PW
     Min         378     249     67                24694    13251    1879
     Max         379     250     68                24698    13254    1884
     Sum        7563    4993   1357               493915   265035   37625
 


     bravais-lattice index     =            0
     lattice parameter (alat)  =      14.8394  a.u.
     unit-cell volume          =    3281.3803 (a.u.)^3
     number of atoms/cell      =           32
     number of atomic types    =            1
     number of electrons       =       576.00
     number of Kohn-Sham states=          346
     kinetic-energy cutoff     =      71.0000  Ry
     charge density cutoff     =     430.0000  Ry
     convergence threshold     =      1.0E-06
     mixing beta               =       0.1000
     number of iterations used =           10  plain     mixing
     Exchange-correlation      = SLA PW PBX PBC ( 1  4  3  4 0 0)

     celldm(1)=  14.839420  celldm(2)=   0.000000  celldm(3)=   0.000000
     celldm(4)=   0.000000  celldm(5)=   0.000000  celldm(6)=   0.000000

     crystal axes: (cart. coord. in units of alat)
               a(1) = (   1.000000   0.000000   0.000000 )  
               a(2) = (   0.000000   1.004167   0.000000 )  
               a(3) = (   0.000000   0.000000   1.000000 )  

     reciprocal axes: (cart. coord. in units 2 pi/alat)
               b(1) = (  1.000000  0.000000  0.000000 )  
               b(2) = (  0.000000  0.995851  0.000000 )  
               b(3) = (  0.000000  0.000000  1.000000 )  


     PseudoPot. # 1 for Pd read from file:
     /rds/homes/b/bxp912/pp/Pd.pbe-spn-kjpaw_psl.1.0.0.UPF
     MD5 check sum: 790f2ebce206edfd9790dcb9844eca51
     Pseudo is Projector augmented-wave + core cor, Zval = 18.0
     Generated using "atomic" code by A. Dal Corso v.6.3
     Shape of augmentation charge: PSQ
     Using radial grid of 1235 points,  6 beta functions with: 
                l(1) =   0
                l(2) =   0
                l(3) =   1
                l(4) =   1
                l(5) =   2
                l(6) =   2
     Q(r) pseudized with 0 coefficients 


     atomic species   valence    mass     pseudopotential
        Pd            18.00   106.42000     Pd( 1.00)

     16 Sym. Ops., with inversion, found



   Cartesian axes

     site n.     atom                  positions (alat units)
         1           Pd  tau(   1) = (   0.0000000   0.0000000   0.0000000  )
         2           Pd  tau(   2) = (   0.2500045   0.2510461   0.0000000  )
         3           Pd  tau(   3) = (   0.2500045   0.0000000   0.2500040  )
         4           Pd  tau(   4) = (   0.0000000   0.2510461   0.2500040  )
         5           Pd  tau(   5) = (   0.0000000   0.0000000   0.4999990  )
         6           Pd  tau(   6) = (   0.2500116   0.2510533   0.4999990  )
         7           Pd  tau(   7) = (   0.2500045   0.0000000   0.7499950  )
         8           Pd  tau(   8) = (   0.0000000   0.2510461   0.7499950  )
         9           Pd  tau(   9) = (   0.0000000   0.5020831   0.0000000  )
        10           Pd  tau(  10) = (   0.2500045   0.7531202   0.0000000  )
        11           Pd  tau(  11) = (   0.2500116   0.5020831   0.2500109  )
        12           Pd  tau(  12) = (   0.0000000   0.7531202   0.2500040  )
        13           Pd  tau(  13) = (   0.0000000   0.5020831   0.4999990  )
        14           Pd  tau(  14) = (   0.2500116   0.7531131   0.4999990  )
        15           Pd  tau(  15) = (   0.2500116   0.5020831   0.7499881  )
        16           Pd  tau(  16) = (   0.0000000   0.7531202   0.7499950  )
        17           Pd  tau(  17) = (   0.4999998   0.0000000   0.0000000  )
        18           Pd  tau(  18) = (   0.7499952   0.2510461   0.0000000  )
        19           Pd  tau(  19) = (   0.7499952   0.0000000   0.2500040  )
        20           Pd  tau(  20) = (   0.4999998   0.2510533   0.2500109  )
        21           Pd  tau(  21) = (   0.4999998   0.0000000   0.4999990  )
        22           Pd  tau(  22) = (   0.7499881   0.2510533   0.4999990  )
        23           Pd  tau(  23) = (   0.7499952   0.0000000   0.7499950  )
        24           Pd  tau(  24) = (   0.4999998   0.2510533   0.7499881  )
        25           Pd  tau(  25) = (   0.4999998   0.5020831   0.0000000  )
        26           Pd  tau(  26) = (   0.7499952   0.7531202   0.0000000  )
        27           Pd  tau(  27) = (   0.7499881   0.5020831   0.2500109  )
        28           Pd  tau(  28) = (   0.4999998   0.7531131   0.2500109  )
        29           Pd  tau(  29) = (   0.4999998   0.5020831   0.4999990  )
        30           Pd  tau(  30) = (   0.7499881   0.7531131   0.4999990  )
        31           Pd  tau(  31) = (   0.7499881   0.5020831   0.7499881  )
        32           Pd  tau(  32) = (   0.4999998   0.7531131   0.7499881  )

     number of k points=    75  Marzari-Vanderbilt smearing, width (Ry)=  0.0400
                       cart. coord. in units 2pi/alat
        k(    1) = (   0.0555556   0.0553250   0.0555556), wk =   0.0219479
        k(    2) = (   0.0555556   0.0553250   0.1666667), wk =   0.0438957
        k(    3) = (   0.0555556   0.0553250   0.2777778), wk =   0.0438957
        k(    4) = (   0.0555556   0.0553250   0.3888889), wk =   0.0438957
        k(    5) = (   0.0555556   0.0553250  -0.5000000), wk =   0.0219479
        k(    6) = (   0.0555556   0.1659751   0.0555556), wk =   0.0219479
        k(    7) = (   0.0555556   0.1659751   0.1666667), wk =   0.0438957
        k(    8) = (   0.0555556   0.1659751   0.2777778), wk =   0.0438957
        k(    9) = (   0.0555556   0.1659751   0.3888889), wk =   0.0438957
        k(   10) = (   0.0555556   0.1659751  -0.5000000), wk =   0.0219479
        k(   11) = (   0.0555556   0.2766252   0.0555556), wk =   0.0219479
        k(   12) = (   0.0555556   0.2766252   0.1666667), wk =   0.0438957
        k(   13) = (   0.0555556   0.2766252   0.2777778), wk =   0.0438957
        k(   14) = (   0.0555556   0.2766252   0.3888889), wk =   0.0438957
        k(   15) = (   0.0555556   0.2766252  -0.5000000), wk =   0.0219479
        k(   16) = (   0.0555556   0.3872752   0.0555556), wk =   0.0219479
        k(   17) = (   0.0555556   0.3872752   0.1666667), wk =   0.0438957
        k(   18) = (   0.0555556   0.3872752   0.2777778), wk =   0.0438957
        k(   19) = (   0.0555556   0.3872752   0.3888889), wk =   0.0438957
        k(   20) = (   0.0555556   0.3872752  -0.5000000), wk =   0.0219479
        k(   21) = (   0.0555556  -0.4979253   0.0555556), wk =   0.0109739
        k(   22) = (   0.0555556  -0.4979253   0.1666667), wk =   0.0219479
        k(   23) = (   0.0555556  -0.4979253   0.2777778), wk =   0.0219479
        k(   24) = (   0.0555556  -0.4979253   0.3888889), wk =   0.0219479
        k(   25) = (   0.0555556  -0.4979253  -0.5000000), wk =   0.0109739
        k(   26) = (   0.1666667   0.0553250   0.1666667), wk =   0.0219479
        k(   27) = (   0.1666667   0.0553250   0.2777778), wk =   0.0438957
        k(   28) = (   0.1666667   0.0553250   0.3888889), wk =   0.0438957
        k(   29) = (   0.1666667   0.0553250  -0.5000000), wk =   0.0219479
        k(   30) = (   0.1666667   0.1659751   0.1666667), wk =   0.0219479
        k(   31) = (   0.1666667   0.1659751   0.2777778), wk =   0.0438957
        k(   32) = (   0.1666667   0.1659751   0.3888889), wk =   0.0438957
        k(   33) = (   0.1666667   0.1659751  -0.5000000), wk =   0.0219479
        k(   34) = (   0.1666667   0.2766252   0.1666667), wk =   0.0219479
        k(   35) = (   0.1666667   0.2766252   0.2777778), wk =   0.0438957
        k(   36) = (   0.1666667   0.2766252   0.3888889), wk =   0.0438957
        k(   37) = (   0.1666667   0.2766252  -0.5000000), wk =   0.0219479
        k(   38) = (   0.1666667   0.3872752   0.1666667), wk =   0.0219479
        k(   39) = (   0.1666667   0.3872752   0.2777778), wk =   0.0438957
        k(   40) = (   0.1666667   0.3872752   0.3888889), wk =   0.0438957
        k(   41) = (   0.1666667   0.3872752  -0.5000000), wk =   0.0219479
        k(   42) = (   0.1666667  -0.4979253   0.1666667), wk =   0.0109739
        k(   43) = (   0.1666667  -0.4979253   0.2777778), wk =   0.0219479
        k(   44) = (   0.1666667  -0.4979253   0.3888889), wk =   0.0219479
        k(   45) = (   0.1666667  -0.4979253  -0.5000000), wk =   0.0109739
        k(   46) = (   0.2777778   0.0553250   0.2777778), wk =   0.0219479
        k(   47) = (   0.2777778   0.0553250   0.3888889), wk =   0.0438957
        k(   48) = (   0.2777778   0.0553250  -0.5000000), wk =   0.0219479
        k(   49) = (   0.2777778   0.1659751   0.2777778), wk =   0.0219479
        k(   50) = (   0.2777778   0.1659751   0.3888889), wk =   0.0438957
        k(   51) = (   0.2777778   0.1659751  -0.5000000), wk =   0.0219479
        k(   52) = (   0.2777778   0.2766252   0.2777778), wk =   0.0219479
        k(   53) = (   0.2777778   0.2766252   0.3888889), wk =   0.0438957
        k(   54) = (   0.2777778   0.2766252  -0.5000000), wk =   0.0219479
        k(   55) = (   0.2777778   0.3872752   0.2777778), wk =   0.0219479
        k(   56) = (   0.2777778   0.3872752   0.3888889), wk =   0.0438957
        k(   57) = (   0.2777778   0.3872752  -0.5000000), wk =   0.0219479
        k(   58) = (   0.2777778  -0.4979253   0.2777778), wk =   0.0109739
        k(   59) = (   0.2777778  -0.4979253   0.3888889), wk =   0.0219479
        k(   60) = (   0.2777778  -0.4979253  -0.5000000), wk =   0.0109739
        k(   61) = (   0.3888889   0.0553250   0.3888889), wk =   0.0219479
        k(   62) = (   0.3888889   0.0553250  -0.5000000), wk =   0.0219479
        k(   63) = (   0.3888889   0.1659751   0.3888889), wk =   0.0219479
        k(   64) = (   0.3888889   0.1659751  -0.5000000), wk =   0.0219479
        k(   65) = (   0.3888889   0.2766252   0.3888889), wk =   0.0219479
        k(   66) = (   0.3888889   0.2766252  -0.5000000), wk =   0.0219479
        k(   67) = (   0.3888889   0.3872752   0.3888889), wk =   0.0219479
        k(   68) = (   0.3888889   0.3872752  -0.5000000), wk =   0.0219479
        k(   69) = (   0.3888889  -0.4979253   0.3888889), wk =   0.0109739
        k(   70) = (   0.3888889  -0.4979253  -0.5000000), wk =   0.0109739
        k(   71) = (  -0.5000000   0.0553250  -0.5000000), wk =   0.0054870
        k(   72) = (  -0.5000000   0.1659751  -0.5000000), wk =   0.0054870
        k(   73) = (  -0.5000000   0.2766252  -0.5000000), wk =   0.0054870
        k(   74) = (  -0.5000000   0.3872752  -0.5000000), wk =   0.0054870
        k(   75) = (  -0.5000000  -0.4979253  -0.5000000), wk =   0.0027435

     Dense  grid:   493915 G-vectors     FFT dimensions: ( 100, 100, 100)

     Smooth grid:   265035 G-vectors     FFT dimensions: (  80,  80,  80)

     Estimated max dynamical RAM per process >     894.18 MB

     Estimated total dynamical RAM >      17.46 GB

     Check: negative/imaginary core charge=   -0.000002    0.000000

     Initial potential from superposition of free atoms

     starting charge  575.98776, renormalised to  576.00000
     Starting wfcs are  320 randomized atomic wfcs +   26 random wfcs
     Checking if some PAW data can be deallocated... 

     total cpu time spent up to now is       45.0 secs

     Self-consistent Calculation

     iteration #  1     ecut=    71.00 Ry     beta= 0.10
     Davidson diagonalization with overlap
     ethr =  1.00E-02,  avg # of iterations =  3.1

     Threshold (ethr) on eigenvalues was too large:
     Diagonalizing with lowered threshold

     Davidson diagonalization with overlap
     ethr =  8.54E-05,  avg # of iterations =  3.1

     total cpu time spent up to now is      493.8 secs

     total energy              =  -16385.02258193 Ry
     Harris-Foulkes estimate   =  -16385.09193703 Ry
     estimated scf accuracy    <       0.48598151 Ry

     iteration #  2     ecut=    71.00 Ry     beta= 0.10
     Davidson diagonalization with overlap
     ethr =  8.44E-05,  avg # of iterations =  1.0

     total cpu time spent up to now is      629.7 secs

     total energy              =  -16384.93071557 Ry
     Harris-Foulkes estimate   =  -16385.03056971 Ry
     estimated scf accuracy    <       0.26431189 Ry

     iteration #  3     ecut=    71.00 Ry     beta= 0.10
     Davidson diagonalization with overlap
     ethr =  4.59E-05,  avg # of iterations =  2.1

     total cpu time spent up to now is      817.0 secs

     total energy              =  -16384.96184376 Ry
     Harris-Foulkes estimate   =  -16384.96898268 Ry
     estimated scf accuracy    <       0.09307110 Ry

     iteration #  4     ecut=    71.00 Ry     beta= 0.10
     Davidson diagonalization with overlap
     ethr =  1.62E-05,  avg # of iterations =  1.4

     total cpu time spent up to now is      965.0 secs

     total energy              =  -16384.96294567 Ry
     Harris-Foulkes estimate   =  -16384.96533677 Ry
     estimated scf accuracy    <       0.02183373 Ry

     iteration #  5     ecut=    71.00 Ry     beta= 0.10
     Davidson diagonalization with overlap
     ethr =  3.79E-06,  avg # of iterations =  1.2

     total cpu time spent up to now is     1108.9 secs

     total energy              =  -16384.95807757 Ry
     Harris-Foulkes estimate   =  -16384.96313622 Ry
     estimated scf accuracy    <       0.01450316 Ry

     iteration #  6     ecut=    71.00 Ry     beta= 0.10
     Davidson diagonalization with overlap
     ethr =  2.52E-06,  avg # of iterations =  1.1

     total cpu time spent up to now is     1248.7 secs

     total energy              =  -16384.95910366 Ry
     Harris-Foulkes estimate   =  -16384.95919369 Ry
     estimated scf accuracy    <       0.00115267 Ry

     iteration #  7     ecut=    71.00 Ry     beta= 0.10
     Davidson diagonalization with overlap
     ethr =  2.00E-07,  avg # of iterations =  3.1

     total cpu time spent up to now is     1464.1 secs

     total energy              =  -16384.95920526 Ry
     Harris-Foulkes estimate   =  -16384.95923694 Ry
     estimated scf accuracy    <       0.00014270 Ry

     iteration #  8     ecut=    71.00 Ry     beta= 0.10
     Davidson diagonalization with overlap
     ethr =  2.48E-08,  avg # of iterations =  1.0

     total cpu time spent up to now is     1600.3 secs

     total energy              =  -16384.95920295 Ry
     Harris-Foulkes estimate   =  -16384.95920918 Ry
     estimated scf accuracy    <       0.00005574 Ry

     iteration #  9     ecut=    71.00 Ry     beta= 0.10
     Davidson diagonalization with overlap
     ethr =  9.68E-09,  avg # of iterations =  1.0

     total cpu time spent up to now is     1736.2 secs

     total energy              =  -16384.95920186 Ry
     Harris-Foulkes estimate   =  -16384.95920408 Ry
     estimated scf accuracy    <       0.00003708 Ry

     iteration # 10     ecut=    71.00 Ry     beta= 0.10
     Davidson diagonalization with overlap
     ethr =  6.44E-09,  avg # of iterations =  2.0

     total cpu time spent up to now is     1929.4 secs

     total energy              =  -16384.95920921 Ry
     Harris-Foulkes estimate   =  -16384.95920638 Ry
     estimated scf accuracy    <       0.00000111 Ry

     iteration # 11     ecut=    71.00 Ry     beta= 0.10
     Davidson diagonalization with overlap
     ethr =  1.93E-10,  avg # of iterations =  2.0

     total cpu time spent up to now is     2101.1 secs

     End of self-consistent calculation

          k = 0.0556 0.0553 0.0556 ( 33123 PWs)   bands (ev):

   -64.9657 -64.9374 -64.9370 -64.9370 -64.9320 -64.9315 -64.9315 -64.9216
   -64.9215 -64.9215 -64.9193 -64.9189 -64.9188 -64.9187 -64.9186 -64.9185
   -64.9185 -64.9183 -64.9182 -64.9177 -64.9161 -64.9160 -64.9159 -64.9041
   -64.9033 -64.9032 -64.9032 -64.9030 -64.9027 -64.9027 -64.9026 -64.9023
   -30.8475 -30.8475 -30.8474 -30.8456 -30.8277 -30.8277 -30.8262 -30.7524
   -30.7496 -30.7495 -30.7482 -30.7482 -30.7454 -30.7453 -30.7451 -30.7451
   -30.7405 -30.7375 -30.7375 -30.7349 -30.7348 -30.7328 -30.7328 -30.7323
   -30.7322 -30.7167 -30.7167 -30.7142 -30.7142 -30.7139 -30.7138 -30.6748
   -30.6748 -30.6737 -30.6509 -30.6509 -30.6495 -30.6447 -30.6447 -30.6439
   -30.6357 -30.6357 -30.6353 -30.6353 -30.6344 -30.6343 -30.6215 -30.6213
   -30.6208 -30.6207 -30.6202 -30.6201 -30.6198 -30.6198 -30.6195 -30.6182
   -30.6182 -30.6172 -30.6169 -30.6168 -30.6156 -30.5564 -30.5564 -30.5541
   -30.5541 -30.5540 -30.5537 -30.5439 -30.5439 -30.5421 -30.5420 -30.5419
   -30.5418 -30.5398 -30.5397 -30.5379 -30.5360 -30.5353 -30.5352 -30.5347
   -30.5346 -30.5345 -30.5342 -30.5337 -30.5333 -30.5332 -30.5330 -30.5329
   -30.5325 -30.5315 -30.5276 -30.5276 -30.5261 -30.4822 -30.4798 -30.4798
    12.2174  13.9766  13.9767  13.9768  14.0427  14.0563  14.0563  14.0564
    14.2324  14.2465  14.2466  14.2500  14.2502  14.2502  14.4282  14.4420
    14.4421  14.9749  14.9750  14.9890  14.9891  14.9892  14.9893  15.1275
    15.1416  15.1416  15.2831  15.2840  15.2840  15.3109  15.3280  15.3280
    15.3647  15.3648  15.3660  15.3669  15.3670  15.3673  15.3674  15.3700
    15.3701  15.7029  15.7029  15.7114  15.7114  15.7144  15.7145  15.8070
    15.8207  15.8208  15.8281  15.8281  15.8422  15.8422  15.8440  15.8441
    15.8841  15.9000  15.9001  16.0554  16.0554  16.0652  16.0652  16.0692
    16.0692  16.1658  16.1658  16.1709  16.1710  16.1713  16.1714  16.1746
    16.1773  16.1773  16.2795  16.2795  16.2816  16.3261  16.3427  16.3428
    16.3467  16.3759  16.3760  16.3787  16.3822  16.3927  16.4137  16.4241
    17.1902  17.2112  17.2112  17.2619  17.2619  17.2708  17.3340  17.3340
    17.3352  17.3353  17.3409  17.3410  17.3422  17.3423  17.3476  17.3755
    17.3985  17.3986  17.4880  17.4881  17.5034  17.6100  17.6101  17.6143
    17.7308  17.7309  17.7449  17.7886  17.7887  17.8010  17.8634  17.8634
    17.8671  17.8672  17.8675  17.8676  17.8844  17.8845  17.8862  17.9122
    17.9357  17.9358  17.9364  17.9365  17.9470  17.9471  17.9513  18.0445
    18.0446  18.0554  18.4270  18.4270  18.4443  18.5289  18.5289  18.5437
    18.9114  18.9114  18.9230  19.0370  19.0370  19.0391  19.0564  19.0724
    19.0763  19.0888  19.0888  19.3107  19.3116  19.3116  19.3594  19.3594
    19.3604  19.3604  19.3685  19.3737  19.3737  19.3810  19.3810  20.0453
    20.3491  20.3491  20.3493  20.8531  20.8531  20.8766  21.3594  21.3595
    21.3609  21.3609  21.3883  21.3883  21.8866  21.8866  21.9188  22.4360
    22.5142  22.5142  26.2130  26.2131  26.2137  26.3701  27.3356  27.3356
    27.3715  27.3715  27.4077  27.4077  28.0267  28.0268  28.0606  28.0606
    28.0993  28.0994  29.4424  29.4424  29.4574  29.4574  29.4936  29.4936
    29.5504  29.6600  29.6600  30.5460  30.6113  30.6114  30.6241  30.6241
    30.6500  30.6500

          k = 0.0556 0.0553 0.1667 ( 33131 PWs)   bands (ev):

   -64.9647 -64.9424 -64.9369 -64.9365 -64.9315 -64.9311 -64.9261 -64.9245
   -64.9244 -64.9215 -64.9211 -64.9209 -64.9194 -64.9192 -64.9186 -64.9184
   -64.9180 -64.9177 -64.9160 -64.9156 -64.9155 -64.9136 -64.9135 -64.9041
   -64.9039 -64.9036 -64.9035 -64.9033 -64.9032 -64.9031 -64.9030 -64.9023
   -30.8447 -30.8431 -30.8430 -30.8398 -30.8244 -30.8230 -30.8225 -30.7611
   -30.7561 -30.7558 -30.7541 -30.7532 -30.7517 -30.7507 -30.7507 -30.7499
   -30.7480 -30.7415 -30.7383 -30.7382 -30.7366 -30.7336 -30.7311 -30.7305
   -30.7274 -30.7192 -30.7172 -30.7133 -30.7105 -30.7043 -30.6963 -30.6960
   -30.6798 -30.6783 -30.6660 -30.6645 -30.6510 -30.6506 -30.6498 -30.6489
   -30.6387 -30.6250 -30.6247 -30.6231 -30.6210 -30.6204 -30.6201 -30.6193
   -30.6193 -30.6190 -30.6181 -30.6152 -30.6148 -30.6147 -30.6147 -30.6137
   -30.6132 -30.6127 -30.6109 -30.6059 -30.6050 -30.5686 -30.5660 -30.5568
   -30.5566 -30.5533 -30.5511 -30.5471 -30.5453 -30.5447 -30.5445 -30.5438
   -30.5423 -30.5406 -30.5403 -30.5396 -30.5389 -30.5386 -30.5376 -30.5354
   -30.5351 -30.5347 -30.5344 -30.5344 -30.5334 -30.5319 -30.5317 -30.5317
   -30.5306 -30.5301 -30.5278 -30.5230 -30.5217 -30.4885 -30.4819 -30.4812
    12.2908  13.9474  14.0111  14.0229  14.0230  14.0704  14.0977  14.0978
    14.1111  14.2780  14.2840  14.2919  14.2921  14.2977  14.4805  14.4938
    14.5116  14.9029  14.9035  14.9634  15.0104  15.0168  15.0236  15.0303
    15.0539  15.1349  15.1351  15.1539  15.1670  15.1747  15.1787  15.1797
    15.3255  15.3259  15.3333  15.3492  15.3534  15.3584  15.3877  15.3971
    15.4363  15.4397  15.5174  15.6970  15.7008  15.7058  15.7146  15.7505
    15.7600  15.7600  15.7700  15.8175  15.8326  15.9072  15.9172  15.9335
    15.9777  15.9818  16.0226  16.0272  16.0316  16.0338  16.0377  16.0599
    16.0702  16.1105  16.1161  16.1389  16.1429  16.3096  16.3098  16.3206
    16.3211  16.3383  16.3397  16.3419  16.3605  16.3649  16.3868  16.3917
    16.3938  16.3966  16.4122  16.4221  16.4226  16.4405  16.4546  16.4566
    17.0041  17.0153  17.1209  17.1340  17.1388  17.1522  17.2007  17.2009
    17.2187  17.2621  17.2874  17.2959  17.4083  17.4167  17.4242  17.4316
    17.4359  17.4701  17.4748  17.4792  17.4889  17.6874  17.6985  17.7153
    17.7160  17.7258  17.7832  17.7834  17.8602  17.8636  17.8695  17.8701
    17.8733  17.8787  17.8949  17.9444  17.9474  17.9626  17.9638  17.9842
    18.0784  18.0808  18.0842  18.0850  18.1199  18.1284  18.1752  18.1921
    18.2012  18.2307  18.3285  18.4726  18.4876  18.6012  18.6025  18.6132
    18.6316  18.6489  18.6598  18.8646  18.9769  18.9776  19.0019  19.0136
    19.0527  19.0611  19.0655  19.0785  19.0950  19.2427  19.2899  19.2901
    19.3086  19.3095  19.3116  19.3561  19.3584  19.3613  19.3649  20.0322
    20.3920  20.4110  20.5159  20.5160  20.7462  20.8248  20.8719  20.8969
    21.3373  21.3388  21.8684  21.9271  21.9578  22.1511  22.4650  22.4999
    22.7285  22.8041  26.2126  26.3721  26.3739  26.6200  26.6631  26.6677
    26.6914  26.6966  27.2538  27.2882  27.4684  27.5047  28.1503  28.1857
    28.6655  28.7343  29.4796  29.5190  29.5377  29.6456  29.6469  29.7239
    29.8016  29.8140  29.8768  30.0214  30.0812  30.1152  30.1871  30.1906
    30.5682  30.6881

          k = 0.0556 0.0553 0.2778 ( 33113 PWs)   bands (ev):

   -64.9629 -64.9476 -64.9358 -64.9355 -64.9307 -64.9302 -64.9274 -64.9272
   -64.9235 -64.9233 -64.9214 -64.9209 -64.9198 -64.9192 -64.9186 -64.9184
   -64.9177 -64.9176 -64.9161 -64.9128 -64.9126 -64.9113 -64.9111 -64.9057
   -64.9046 -64.9044 -64.9042 -64.9040 -64.9040 -64.9033 -64.9031 -64.9023
   -30.8378 -30.8347 -30.8346 -30.8301 -30.8182 -30.8169 -30.8128 -30.7782
   -30.7726 -30.7724 -30.7678 -30.7670 -30.7644 -30.7555 -30.7535 -30.7533
   -30.7514 -30.7432 -30.7423 -30.7340 -30.7329 -30.7322 -30.7321 -30.7296
   -30.7198 -30.7185 -30.7179 -30.7153 -30.7074 -30.7047 -30.6883 -30.6865
   -30.6805 -30.6790 -30.6790 -30.6788 -30.6647 -30.6628 -30.6620 -30.6602
   -30.6287 -30.6276 -30.6205 -30.6204 -30.6193 -30.6183 -30.6154 -30.6148
   -30.6107 -30.6084 -30.6082 -30.6055 -30.6051 -30.6049 -30.6042 -30.6035
   -30.6032 -30.5957 -30.5917 -30.5911 -30.5861 -30.5803 -30.5772 -30.5621
   -30.5620 -30.5564 -30.5548 -30.5547 -30.5534 -30.5507 -30.5498 -30.5497
   -30.5480 -30.5465 -30.5464 -30.5460 -30.5403 -30.5393 -30.5362 -30.5353
   -30.5347 -30.5346 -30.5344 -30.5337 -30.5335 -30.5313 -30.5311 -30.5304
   -30.5281 -30.5209 -30.5201 -30.5198 -30.5187 -30.4996 -30.4860 -30.4850
    12.4358  13.5972  14.0772  14.1132  14.1132  14.1396  14.1799  14.1800
    14.2060  14.3330  14.3751  14.3762  14.3839  14.3965  14.4800  14.5817
    14.5942  14.7553  14.7561  14.7979  14.8079  14.8855  14.8856  14.9372
    15.0407  15.0442  15.0771  15.0879  15.0987  15.1093  15.1111  15.1165
    15.2064  15.2174  15.2252  15.2281  15.3362  15.3417  15.3770  15.3905
    15.5001  15.5052  15.6388  15.6430  15.6758  15.6814  15.6900  15.6950
    15.7038  15.7083  15.7172  15.7408  15.7429  15.8501  15.8565  15.9232
    15.9246  15.9806  15.9808  15.9844  16.0530  16.0587  16.0667  16.0756
    16.0778  16.0830  16.1525  16.1571  16.1597  16.2535  16.2780  16.2909
    16.2982  16.3385  16.3392  16.3518  16.4376  16.4624  16.4831  16.4843
    16.4871  16.5179  16.6525  16.6582  16.6722  16.7220  16.8017  16.8084
    16.8568  16.8749  16.8753  16.8841  16.9490  17.0260  17.0343  17.0345
    17.0519  17.0604  17.3648  17.3762  17.3824  17.4739  17.4806  17.5395
    17.5446  17.5561  17.5588  17.6142  17.6171  17.6431  17.6510  17.7070
    17.7151  17.8218  17.8483  17.8498  17.8511  17.8555  17.8729  17.8761
    17.8817  17.8819  17.9718  18.0789  18.1289  18.1303  18.1448  18.1452
    18.1533  18.2361  18.2365  18.2402  18.2811  18.2820  18.2844  18.2886
    18.3304  18.3347  18.3575  18.3726  18.3783  18.4462  18.6186  18.6273
    18.6766  18.6963  18.7013  18.7333  18.8343  18.8352  18.8837  18.8838
    18.8915  18.9631  18.9697  18.9793  18.9877  19.1096  19.1593  19.1594
    19.1740  19.1754  19.1972  19.3545  19.3573  19.3620  19.3642  19.9671
    19.9815  20.2005  20.4137  20.4346  20.7351  20.7361  20.7667  21.1128
    21.2901  21.2918  21.5398  21.8259  22.5618  22.5946  23.1055  23.1421
    23.2174  23.2904  25.7805  25.8138  25.8966  25.9674  26.3378  26.3736
    26.3849  26.6883  26.6909  27.0936  27.7143  27.7543  28.3872  28.4254
    28.7515  29.1723  29.1963  29.2939  29.2974  29.4937  29.5129  29.5496
    29.6168  29.6631  29.6812  29.8530  29.8789  29.9667  30.0504  30.0718
    30.1272  30.1278

          k = 0.0556 0.0553 0.3889 ( 33123 PWs)   bands (ev):

   -64.9601 -64.9523 -64.9343 -64.9340 -64.9300 -64.9297 -64.9294 -64.9290
   -64.9257 -64.9254 -64.9212 -64.9202 -64.9192 -64.9186 -64.9184 -64.9177
   -64.9173 -64.9163 -64.9161 -64.9103 -64.9101 -64.9092 -64.9089 -64.9084
   -64.9061 -64.9057 -64.9056 -64.9052 -64.9040 -64.9033 -64.9030 -64.9023
   -30.8270 -30.8229 -30.8227 -30.8169 -30.8091 -30.8080 -30.7986 -30.7961
   -30.7907 -30.7904 -30.7836 -30.7829 -30.7826 -30.7576 -30.7551 -30.7538
   -30.7501 -30.7489 -30.7480 -30.7479 -30.7386 -30.7382 -30.7224 -30.7194
   -30.7145 -30.7124 -30.7048 -30.7018 -30.6994 -30.6993 -30.6969 -30.6968
   -30.6938 -30.6918 -30.6778 -30.6756 -30.6756 -30.6734 -30.6632 -30.6631
   -30.6376 -30.6369 -30.6205 -30.6197 -30.6176 -30.6160 -30.6086 -30.6047
   -30.6005 -30.5929 -30.5927 -30.5920 -30.5916 -30.5916 -30.5912 -30.5911
   -30.5903 -30.5901 -30.5876 -30.5791 -30.5786 -30.5782 -30.5699 -30.5699
   -30.5673 -30.5669 -30.5660 -30.5658 -30.5646 -30.5594 -30.5581 -30.5579
   -30.5573 -30.5572 -30.5502 -30.5421 -30.5412 -30.5388 -30.5371 -30.5353
   -30.5346 -30.5345 -30.5338 -30.5330 -30.5326 -30.5302 -30.5287 -30.5286
   -30.5283 -30.5213 -30.5207 -30.5153 -30.5094 -30.5081 -30.4920 -30.4910
    12.6485  13.2447  14.1696  14.2421  14.2423  14.2497  14.3019  14.3021
    14.3393  14.3905  14.4143  14.4995  14.5017  14.5246  14.5356  14.5791
    14.5798  14.5866  14.6492  14.6581  14.6582  14.7101  14.7244  14.7355
    14.8679  14.8731  14.8732  14.8794  15.0723  15.0786  15.1644  15.1709
    15.2167  15.2273  15.2840  15.2921  15.3075  15.3116  15.4400  15.4499
    15.5028  15.5050  15.5087  15.5091  15.6067  15.6069  15.6453  15.6488
    15.6622  15.6708  15.7017  15.7096  15.7463  15.7600  15.8809  15.8918
    15.8949  15.9262  15.9283  16.0417  16.0724  16.0731  16.0847  16.0858
    16.1136  16.1212  16.1810  16.1852  16.2200  16.2305  16.2446  16.2574
    16.2601  16.3189  16.3863  16.3878  16.5240  16.5621  16.5769  16.5803
    16.5931  16.6122  16.6231  16.6274  16.6313  16.6372  16.7849  16.8254
    16.8375  16.8603  16.8819  16.8866  17.0667  17.0678  17.0704  17.0847
    17.2992  17.3191  17.4437  17.4473  17.4565  17.4692  17.4726  17.6376
    17.6393  17.6728  17.6747  17.6811  17.6847  17.6970  17.7023  17.7142
    17.7345  17.7366  17.8186  17.8208  17.8523  17.8598  17.8623  17.8646
    17.8653  17.8737  17.8785  17.8919  17.8946  17.9758  18.0180  18.0912
    18.0925  18.1521  18.2279  18.2493  18.3312  18.3324  18.3646  18.4042
    18.4853  18.4879  18.4892  18.5469  18.5544  18.5550  18.5759  18.5769
    18.7277  18.7278  18.7435  18.8324  18.8403  18.8475  18.8703  18.8727
    18.8802  18.8815  18.9210  18.9821  18.9843  18.9934  18.9941  19.0573
    19.1746  19.1812  19.3230  19.3546  19.3563  19.3625  19.3638  19.5721
    19.5817  19.9782  19.9947  20.3881  20.6759  20.8075  20.9364  20.9379
    21.2121  21.2139  21.4051  21.7467  23.2699  23.3039  23.8149  23.8173
    23.8523  23.8888  24.8936  24.9274  25.1787  25.2493  25.4401  25.4768
    26.7390  27.1542  27.1574  27.6370  27.9487  28.0635  28.1070  28.4766
    28.4801  28.7203  28.7623  28.9765  29.0282  29.0304  29.3613  29.4128
    29.4769  29.5733  29.5861  29.6370  30.0196  30.0586  30.0991  30.1091
    30.2491  30.3290

          k = 0.0556 0.0553-0.5000 ( 33158 PWs)   bands (ev):

   -64.9569 -64.9562 -64.9327 -64.9324 -64.9320 -64.9317 -64.9281 -64.9277
   -64.9273 -64.9270 -64.9211 -64.9203 -64.9192 -64.9185 -64.9184 -64.9177
   -64.9171 -64.9164 -64.9123 -64.9115 -64.9084 -64.9081 -64.9076 -64.9076
   -64.9073 -64.9073 -64.9069 -64.9065 -64.9040 -64.9033 -64.9030 -64.9023
   -30.8130 -30.8127 -30.8083 -30.8080 -30.8075 -30.8072 -30.8010 -30.8006
   -30.7979 -30.7971 -30.7968 -30.7961 -30.7803 -30.7796 -30.7527 -30.7524
   -30.7520 -30.7517 -30.7449 -30.7447 -30.7445 -30.7443 -30.7111 -30.7107
   -30.7084 -30.7080 -30.7057 -30.7050 -30.7036 -30.7029 -30.6904 -30.6901
   -30.6898 -30.6891 -30.6877 -30.6874 -30.6874 -30.6867 -30.6496 -30.6493
   -30.6489 -30.6486 -30.6205 -30.6198 -30.6172 -30.6165 -30.6010 -30.6002
   -30.5973 -30.5965 -30.5818 -30.5815 -30.5804 -30.5802 -30.5801 -30.5797
   -30.5797 -30.5796 -30.5795 -30.5795 -30.5793 -30.5792 -30.5783 -30.5780
   -30.5735 -30.5732 -30.5728 -30.5725 -30.5675 -30.5672 -30.5667 -30.5664
   -30.5636 -30.5633 -30.5384 -30.5376 -30.5369 -30.5367 -30.5365 -30.5363
   -30.5357 -30.5353 -30.5351 -30.5346 -30.5345 -30.5338 -30.5297 -30.5290
   -30.5241 -30.5239 -30.5238 -30.5236 -30.5003 -30.4995 -30.4991 -30.4985
    12.9215  12.9224  14.2787  14.2795  14.3993  14.3994  14.4011  14.4018
    14.4019  14.4026  14.4617  14.4618  14.4626  14.4627  14.5085  14.5086
    14.5200  14.5208  14.6638  14.6646  14.6674  14.6682  14.6934  14.6941
    14.7023  14.7030  14.8948  14.8956  14.9039  14.9047  15.2511  15.2515
    15.2518  15.2521  15.3625  15.3632  15.3694  15.3701  15.3853  15.3859
    15.3897  15.3903  15.5181  15.5188  15.5235  15.5242  15.6738  15.6741
    15.6780  15.6781  15.6784  15.6786  15.6911  15.6912  15.8938  15.8939
    15.8950  15.8951  16.0419  16.0426  16.0745  16.0751  16.0877  16.0883
    16.1118  16.1124  16.1733  16.1739  16.1835  16.1841  16.2733  16.2739
    16.4212  16.4213  16.4251  16.4253  16.4818  16.4820  16.4845  16.4847
    16.6411  16.6413  16.6883  16.6886  16.6997  16.7000  16.7063  16.7071
    16.7263  16.7266  16.7356  16.7364  17.4599  17.4602  17.4624  17.4626
    17.4639  17.4642  17.4645  17.4646  17.4647  17.4649  17.5085  17.5088
    17.5856  17.5864  17.6801  17.6808  17.6821  17.6827  17.7603  17.7607
    17.7614  17.7620  17.7632  17.7639  17.7792  17.7797  17.7798  17.7803
    17.7814  17.7818  17.8163  17.8169  17.8183  17.8189  17.9908  17.9910
    17.9914  17.9916  18.0783  18.0791  18.5381  18.5387  18.5391  18.5397
    18.5649  18.5650  18.6754  18.6755  18.6808  18.6810  18.6819  18.6825
    18.7099  18.7101  18.7226  18.7229  18.7747  18.7752  18.7807  18.7812
    18.7839  18.7844  18.7882  18.7887  18.9345  18.9348  19.2067  19.2069
    19.2113  19.2114  19.3549  19.3557  19.3628  19.3635  19.5633  19.5634
    19.5752  19.5753  20.0458  20.0465  20.5494  20.5501  21.0958  21.0965
    21.0975  21.0983  21.6124  21.6131  24.0500  24.0504  24.0841  24.0845
    24.4796  24.4802  24.5504  24.5510  24.5946  24.5949  24.6319  24.6322
    27.2678  27.2679  27.7564  27.7565  27.7599  27.7601  28.2868  28.2870
    28.4916  28.4923  28.5391  28.5399  29.1275  29.1282  29.1738  29.1746
    29.4291  29.4298  29.5114  29.5120  30.1918  30.1927  30.2803  30.2812
    30.4789  30.4798

          k = 0.0556 0.1660 0.0556 ( 33127 PWs)   bands (ev):

   -64.9647 -64.9428 -64.9365 -64.9364 -64.9311 -64.9310 -64.9267 -64.9245
   -64.9244 -64.9214 -64.9210 -64.9209 -64.9194 -64.9186 -64.9185 -64.9185
   -64.9183 -64.9180 -64.9161 -64.9156 -64.9155 -64.9136 -64.9135 -64.9049
   -64.9038 -64.9037 -64.9036 -64.9035 -64.9028 -64.9027 -64.9026 -64.9024
   -30.8447 -30.8431 -30.8431 -30.8399 -30.8245 -30.8245 -30.8214 -30.7634
   -30.7583 -30.7583 -30.7524 -30.7524 -30.7514 -30.7514 -30.7506 -30.7502
   -30.7502 -30.7387 -30.7387 -30.7360 -30.7359 -30.7316 -30.7315 -30.7276
   -30.7276 -30.7168 -30.7167 -30.7109 -30.7109 -30.7030 -30.6991 -30.6991
   -30.6794 -30.6794 -30.6656 -30.6656 -30.6506 -30.6506 -30.6498 -30.6498
   -30.6381 -30.6250 -30.6250 -30.6242 -30.6241 -30.6209 -30.6209 -30.6181
   -30.6180 -30.6165 -30.6164 -30.6153 -30.6146 -30.6145 -30.6144 -30.6143
   -30.6141 -30.6134 -30.6103 -30.6063 -30.6063 -30.5659 -30.5654 -30.5591
   -30.5591 -30.5514 -30.5514 -30.5473 -30.5472 -30.5466 -30.5466 -30.5440
   -30.5439 -30.5420 -30.5394 -30.5393 -30.5388 -30.5387 -30.5378 -30.5356
   -30.5337 -30.5331 -30.5330 -30.5330 -30.5328 -30.5318 -30.5318 -30.5305
   -30.5301 -30.5298 -30.5263 -30.5231 -30.5231 -30.4883 -30.4818 -30.4811
    12.2902  13.9343  14.0103  14.0225  14.0225  14.0704  14.0976  14.0976
    14.1109  14.2773  14.2922  14.2922  14.2972  14.2972  14.4932  14.4933
    14.4994  14.8905  14.8905  14.9521  15.0230  15.0231  15.0301  15.0302
    15.0520  15.1322  15.1323  15.1676  15.1677  15.1712  15.1781  15.1782
    15.3244  15.3245  15.3498  15.3499  15.3575  15.3576  15.3948  15.3948
    15.4396  15.4396  15.4971  15.6905  15.6905  15.7170  15.7171  15.7629
    15.7630  15.7721  15.7722  15.8292  15.8293  15.9169  15.9170  15.9206
    15.9650  15.9650  16.0106  16.0257  16.0257  16.0260  16.0261  16.0737
    16.0737  16.1132  16.1132  16.1453  16.1454  16.2865  16.3123  16.3124
    16.3261  16.3262  16.3357  16.3465  16.3465  16.3476  16.3922  16.4014
    16.4050  16.4203  16.4203  16.4359  16.4505  16.4513  16.4513  16.4562
    17.0239  17.0240  17.1236  17.1338  17.1587  17.1588  17.2123  17.2123
    17.2292  17.2781  17.2847  17.2847  17.4050  17.4158  17.4159  17.4285
    17.4285  17.4659  17.4659  17.4692  17.4692  17.6854  17.6855  17.6967
    17.7090  17.7091  17.7820  17.7821  17.8630  17.8630  17.8678  17.8679
    17.8715  17.8716  17.8719  17.9553  17.9588  17.9589  17.9671  17.9967
    18.0789  18.0789  18.0915  18.0915  18.1199  18.1200  18.1820  18.1916
    18.1917  18.2223  18.3482  18.4739  18.4740  18.6027  18.6028  18.6105
    18.6439  18.6570  18.6571  18.8730  18.9747  18.9748  18.9906  19.0162
    19.0494  19.0547  19.0548  19.0771  19.0771  19.2418  19.2889  19.2889
    19.2907  19.2907  19.3078  19.3787  19.3787  19.3809  19.3809  20.0377
    20.3926  20.3926  20.5202  20.5202  20.7495  20.8476  20.8740  20.8741
    21.3653  21.3653  21.8994  21.9231  21.9232  22.0764  22.4625  22.4626
    22.8000  22.8000  26.2110  26.3700  26.3700  26.6266  26.6266  26.6589
    26.6589  26.6647  27.2196  27.2196  27.5378  27.5379  28.2225  28.2226
    28.6986  28.6986  29.5404  29.5404  29.5935  29.6460  29.6460  29.7932
    29.7932  29.8590  29.8591  30.0023  30.0849  30.0849  30.1376  30.1376
    30.6337  30.6338

          k = 0.0556 0.1660 0.1667 ( 33137 PWs)   bands (ev):

   -64.9638 -64.9421 -64.9418 -64.9360 -64.9306 -64.9279 -64.9263 -64.9257
   -64.9243 -64.9242 -64.9210 -64.9209 -64.9203 -64.9189 -64.9179 -64.9177
   -64.9174 -64.9172 -64.9157 -64.9156 -64.9138 -64.9137 -64.9115 -64.9049
   -64.9042 -64.9041 -64.9038 -64.9036 -64.9034 -64.9033 -64.9030 -64.9025
   -30.8420 -30.8420 -30.8375 -30.8327 -30.8214 -30.8198 -30.8184 -30.7658
   -30.7638 -30.7635 -30.7611 -30.7540 -30.7518 -30.7510 -30.7506 -30.7499
   -30.7488 -30.7483 -30.7475 -30.7469 -30.7404 -30.7397 -30.7396 -30.7376
   -30.7142 -30.7083 -30.7080 -30.7074 -30.7062 -30.7039 -30.7014 -30.6962
   -30.6934 -30.6847 -30.6811 -30.6572 -30.6522 -30.6518 -30.6384 -30.6380
   -30.6353 -30.6341 -30.6296 -30.6228 -30.6219 -30.6213 -30.6188 -30.6151
   -30.6145 -30.6143 -30.6141 -30.6136 -30.6130 -30.6122 -30.6115 -30.6104
   -30.6098 -30.6094 -30.5975 -30.5966 -30.5919 -30.5715 -30.5686 -30.5637
   -30.5634 -30.5559 -30.5535 -30.5526 -30.5469 -30.5469 -30.5463 -30.5449
   -30.5436 -30.5428 -30.5426 -30.5425 -30.5419 -30.5410 -30.5377 -30.5365
   -30.5359 -30.5357 -30.5342 -30.5333 -30.5326 -30.5320 -30.5307 -30.5306
   -30.5265 -30.5264 -30.5234 -30.5221 -30.5167 -30.4962 -30.4838 -30.4809
    12.3627  13.9872  13.9993  14.0569  14.0570  14.0641  14.0831  14.1242
    14.1639  14.1640  14.3190  14.3196  14.3370  14.3377  14.5314  14.5520
    14.5632  14.9139  14.9241  14.9331  14.9454  14.9658  14.9662  14.9823
    14.9932  15.0080  15.0637  15.0639  15.0783  15.0795  15.2034  15.2047
    15.2069  15.2121  15.2154  15.2673  15.3809  15.4066  15.4066  15.4086
    15.4113  15.4393  15.4412  15.5152  15.5346  15.6666  15.6750  15.7561
    15.7576  15.7681  15.8543  15.8616  15.8691  15.8748  15.9319  15.9375
    15.9447  15.9965  16.0061  16.0135  16.0208  16.0627  16.0730  16.1692
    16.2138  16.2176  16.2459  16.2562  16.2676  16.2686  16.3201  16.3294
    16.3731  16.3744  16.3746  16.3778  16.3785  16.3868  16.3960  16.4110
    16.4370  16.4456  16.4462  16.4505  16.4522  16.4706  16.4813  16.4844
    16.9207  16.9665  16.9825  17.0297  17.1228  17.1388  17.2327  17.2457
    17.2521  17.2657  17.2683  17.3118  17.3221  17.3348  17.3457  17.3878
    17.3899  17.4071  17.4789  17.5480  17.5605  17.5627  17.5783  17.5809
    17.5990  17.8583  17.8589  17.8673  17.8719  17.8798  17.9467  17.9505
    17.9506  17.9604  17.9667  17.9728  17.9736  17.9748  18.0539  18.0594
    18.0808  18.0818  18.2590  18.2653  18.2992  18.3110  18.3174  18.3187
    18.3583  18.3591  18.3634  18.3746  18.4191  18.4231  18.4509  18.4892
    18.6124  18.7203  18.7723  18.7766  18.9034  18.9084  18.9111  18.9254
    19.0261  19.0499  19.0512  19.0638  19.0691  19.0850  19.2319  19.2329
    19.2873  19.2926  19.3064  19.3078  19.3105  19.3181  19.3309  19.7548
    19.9640  20.3615  20.3794  20.4172  20.8507  20.8728  21.0414  21.0426
    21.4156  21.4204  21.9110  21.9443  22.3677  22.4354  22.4511  22.4869
    23.0456  23.0615  26.0023  26.0406  26.2091  26.2110  26.6712  26.7167
    26.7811  26.7954  26.8257  27.0717  27.3487  27.4138  27.7854  27.8188
    28.8260  28.8630  29.0740  29.1304  29.5222  29.6131  29.6267  29.6695
    29.7592  29.7630  29.9534  29.9863  29.9939  30.1050  30.4249  30.4536
    30.7099  30.7751

          k = 0.0556 0.1660 0.2778 ( 33126 PWs)   bands (ev):

   -64.9620 -64.9469 -64.9409 -64.9350 -64.9312 -64.9298 -64.9269 -64.9256
   -64.9240 -64.9231 -64.9212 -64.9208 -64.9206 -64.9197 -64.9193 -64.9172
   -64.9167 -64.9157 -64.9142 -64.9140 -64.9130 -64.9115 -64.9096 -64.9056
   -64.9051 -64.9049 -64.9047 -64.9045 -64.9039 -64.9038 -64.9033 -64.9025
   -30.8367 -30.8352 -30.8281 -30.8218 -30.8152 -30.8128 -30.8105 -30.7811
   -30.7774 -30.7672 -30.7658 -30.7656 -30.7652 -30.7645 -30.7562 -30.7538
   -30.7537 -30.7488 -30.7476 -30.7455 -30.7454 -30.7416 -30.7414 -30.7339
   -30.7276 -30.7120 -30.7113 -30.7034 -30.6991 -30.6981 -30.6957 -30.6939
   -30.6907 -30.6858 -30.6764 -30.6687 -30.6647 -30.6515 -30.6491 -30.6369
   -30.6337 -30.6326 -30.6253 -30.6211 -30.6190 -30.6184 -30.6146 -30.6139
   -30.6137 -30.6130 -30.6100 -30.6052 -30.6025 -30.6015 -30.6003 -30.5973
   -30.5968 -30.5943 -30.5838 -30.5837 -30.5833 -30.5782 -30.5754 -30.5742
   -30.5603 -30.5593 -30.5586 -30.5576 -30.5553 -30.5548 -30.5541 -30.5529
   -30.5498 -30.5461 -30.5458 -30.5434 -30.5432 -30.5424 -30.5393 -30.5382
   -30.5376 -30.5366 -30.5360 -30.5358 -30.5324 -30.5308 -30.5302 -30.5242
   -30.5225 -30.5212 -30.5205 -30.5149 -30.5128 -30.5085 -30.4881 -30.4832
    12.5058  13.6525  14.0898  14.1236  14.1361  14.1456  14.1477  14.1906
    14.2555  14.2680  14.3738  14.4022  14.4142  14.4257  14.5308  14.6029
    14.6542  14.7366  14.7647  14.7963  14.8171  14.8310  14.8361  14.8680
    14.9555  14.9714  14.9943  15.0040  15.0167  15.0426  15.1260  15.1331
    15.1431  15.1534  15.1884  15.2342  15.2799  15.2951  15.3268  15.4295
    15.4434  15.4495  15.4927  15.5497  15.5988  15.6176  15.6190  15.7157
    15.7163  15.7271  15.7444  15.7580  15.8107  15.8655  15.8816  15.9227
    15.9238  15.9330  16.0197  16.0767  16.1154  16.1287  16.1705  16.1829
    16.1903  16.1997  16.2224  16.2447  16.2766  16.2971  16.3050  16.3264
    16.3526  16.3886  16.4327  16.4435  16.4816  16.4920  16.4953  16.5012
    16.5426  16.5547  16.5580  16.5654  16.5867  16.6865  16.7653  16.7860
    16.8113  16.8279  16.8578  16.9474  16.9508  17.0424  17.0591  17.0742
    17.1473  17.1651  17.1892  17.2575  17.2625  17.3384  17.3404  17.4500
    17.4618  17.4784  17.4926  17.5353  17.5829  17.6664  17.7207  17.7217
    17.7398  17.8159  17.8274  17.8432  17.8766  17.9189  17.9610  17.9629
    17.9879  18.0344  18.0408  18.0777  18.0878  18.0957  18.0993  18.1088
    18.1141  18.1458  18.2162  18.2525  18.2802  18.3112  18.3406  18.4075
    18.4167  18.4420  18.4458  18.4534  18.4640  18.4794  18.4799  18.5637
    18.5858  18.5950  18.6922  18.7676  18.8029  18.8246  18.9009  18.9240
    18.9903  19.0282  19.0282  19.0338  19.1183  19.1261  19.1262  19.1328
    19.1739  19.1777  19.2094  19.2862  19.2945  19.3032  19.3035  19.5772
    19.7818  19.9494  20.2987  20.4112  20.4414  20.8035  20.9301  21.3257
    21.5252  21.8276  21.8812  22.0413  22.4175  22.5941  22.8461  23.1380
    23.5135  23.6838  25.2074  25.3566  25.8801  26.1117  26.2139  26.3817
    26.3869  26.8667  27.0333  27.0831  27.1009  27.5574  27.5783  28.2404
    28.3161  28.5787  28.7718  28.9551  29.0593  29.1160  29.4100  29.5810
    29.7600  29.8618  29.8690  29.9765  30.0881  30.3541  30.4390  30.4753
    30.6852  30.7125

          k = 0.0556 0.1660 0.3889 ( 33144 PWs)   bands (ev):

   -64.9593 -64.9516 -64.9392 -64.9342 -64.9336 -64.9294 -64.9286 -64.9252
   -64.9245 -64.9236 -64.9220 -64.9215 -64.9206 -64.9196 -64.9169 -64.9160
   -64.9159 -64.9159 -64.9144 -64.9112 -64.9105 -64.9095 -64.9083 -64.9078
   -64.9064 -64.9062 -64.9061 -64.9048 -64.9048 -64.9040 -64.9033 -64.9025
   -30.8274 -30.8247 -30.8153 -30.8076 -30.8062 -30.8045 -30.7987 -30.7970
   -30.7947 -30.7824 -30.7813 -30.7808 -30.7723 -30.7652 -30.7631 -30.7582
   -30.7581 -30.7574 -30.7563 -30.7523 -30.7433 -30.7402 -30.7349 -30.7303
   -30.7193 -30.7177 -30.7134 -30.7085 -30.7056 -30.6964 -30.6876 -30.6830
   -30.6829 -30.6827 -30.6768 -30.6711 -30.6643 -30.6618 -30.6605 -30.6490
   -30.6464 -30.6346 -30.6144 -30.6137 -30.6133 -30.6129 -30.6121 -30.6114
   -30.6051 -30.6038 -30.6022 -30.5943 -30.5942 -30.5912 -30.5904 -30.5890
   -30.5863 -30.5853 -30.5823 -30.5807 -30.5729 -30.5719 -30.5693 -30.5688
   -30.5685 -30.5682 -30.5679 -30.5656 -30.5655 -30.5650 -30.5649 -30.5546
   -30.5527 -30.5523 -30.5460 -30.5449 -30.5449 -30.5437 -30.5436 -30.5424
   -30.5415 -30.5400 -30.5349 -30.5333 -30.5330 -30.5302 -30.5284 -30.5253
   -30.5249 -30.5215 -30.5161 -30.5117 -30.5114 -30.5043 -30.4942 -30.4881
    12.7158  13.3043  14.2168  14.2293  14.2359  14.2635  14.2777  14.2963
    14.3846  14.4075  14.4400  14.4538  14.5179  14.5264  14.5320  14.5564
    14.5848  14.6146  14.6178  14.6211  14.6849  14.6983  14.7462  14.7568
    14.7778  14.7992  14.8935  14.9106  14.9260  15.0073  15.1217  15.1334
    15.1378  15.1592  15.2014  15.2576  15.2593  15.3817  15.3951  15.4137
    15.4420  15.4619  15.5166  15.5373  15.5508  15.5629  15.5646  15.5726
    15.5968  15.6505  15.7027  15.7357  15.7401  15.8021  15.8885  15.9051
    15.9389  15.9829  16.0898  16.0998  16.1236  16.1501  16.1703  16.1713
    16.1767  16.1817  16.2170  16.2692  16.2723  16.2742  16.2991  16.3171
    16.3733  16.3898  16.4095  16.5205  16.5365  16.5812  16.5841  16.6097
    16.6158  16.6281  16.6647  16.6689  16.6843  16.7471  16.7502  16.7600
    16.8523  16.8641  16.8699  16.9541  16.9788  16.9995  17.0361  17.0559
    17.2147  17.2380  17.2601  17.2736  17.2881  17.3054  17.4045  17.4934
    17.4974  17.5136  17.5785  17.6270  17.6747  17.6891  17.6974  17.6979
    17.7188  17.7213  17.7725  17.8046  17.8429  17.8664  17.8705  17.8757
    17.9344  17.9434  17.9852  18.0092  18.0408  18.0943  18.1186  18.1230
    18.1576  18.1635  18.1742  18.3027  18.3208  18.3233  18.3498  18.3569
    18.4660  18.5076  18.5481  18.5740  18.6147  18.6342  18.6406  18.6488
    18.6515  18.6541  18.6802  18.7444  18.7463  18.8434  18.8476  18.8758
    18.9022  18.9382  18.9398  18.9842  18.9847  18.9958  18.9991  19.0818
    19.1579  19.2262  19.2860  19.2919  19.2964  19.3008  19.5499  19.5561
    19.6873  19.9282  19.9729  20.2038  20.4596  20.5332  20.7322  21.1087
    21.5570  21.8229  21.9142  22.3390  22.7401  23.3187  23.4233  23.8587
    24.0834  24.3436  24.3857  24.7013  24.9758  25.4061  25.5015  25.9900
    26.4193  26.7465  27.3106  27.4372  27.4625  27.6476  27.8567  27.9661
    28.1118  28.1762  28.4035  28.6509  28.8122  29.0450  29.3833  29.4782
    29.6160  29.7569  29.8064  29.9469  29.9572  30.2176  30.2490  30.2748
    30.3460  30.6299

          k = 0.0556 0.1660-0.5000 ( 33152 PWs)   bands (ev):

   -64.9561 -64.9554 -64.9373 -64.9365 -64.9320 -64.9313 -64.9274 -64.9267
   -64.9235 -64.9232 -64.9228 -64.9225 -64.9205 -64.9198 -64.9167 -64.9160
   -64.9155 -64.9147 -64.9122 -64.9114 -64.9089 -64.9087 -64.9081 -64.9080
   -64.9079 -64.9073 -64.9065 -64.9058 -64.9048 -64.9040 -64.9033 -64.9025
   -30.8147 -30.8144 -30.8111 -30.8108 -30.7999 -30.7995 -30.7950 -30.7943
   -30.7943 -30.7936 -30.7909 -30.7905 -30.7797 -30.7790 -30.7620 -30.7619
   -30.7590 -30.7586 -30.7584 -30.7584 -30.7392 -30.7390 -30.7275 -30.7270
   -30.7182 -30.7178 -30.7176 -30.7172 -30.6984 -30.6981 -30.6876 -30.6872
   -30.6766 -30.6761 -30.6735 -30.6728 -30.6659 -30.6656 -30.6580 -30.6576
   -30.6469 -30.6461 -30.6143 -30.6137 -30.6132 -30.6128 -30.6043 -30.6035
   -30.5962 -30.5954 -30.5931 -30.5924 -30.5912 -30.5910 -30.5842 -30.5839
   -30.5816 -30.5812 -30.5800 -30.5797 -30.5781 -30.5777 -30.5770 -30.5767
   -30.5749 -30.5742 -30.5655 -30.5652 -30.5618 -30.5611 -30.5552 -30.5549
   -30.5547 -30.5540 -30.5501 -30.5497 -30.5452 -30.5448 -30.5437 -30.5430
   -30.5417 -30.5410 -30.5379 -30.5375 -30.5342 -30.5335 -30.5271 -30.5263
   -30.5251 -30.5248 -30.5128 -30.5126 -30.5026 -30.5018 -30.4955 -30.4950
    12.9853  12.9862  14.3269  14.3277  14.3617  14.3618  14.4123  14.4130
    14.4150  14.4158  14.4381  14.4389  14.4403  14.4404  14.5491  14.5491
    14.5578  14.5586  14.5791  14.5791  14.6363  14.6369  14.6903  14.6911
    14.7248  14.7254  14.8049  14.8053  14.9741  14.9748  15.0627  15.0629
    15.2556  15.2557  15.2560  15.2565  15.2888  15.2896  15.4002  15.4010
    15.4693  15.4694  15.5022  15.5029  15.5496  15.5499  15.5760  15.5763
    15.6161  15.6161  15.6502  15.6508  15.6602  15.6607  16.0151  16.0156
    16.0347  16.0353  16.0441  16.0447  16.0518  16.0524  16.1141  16.1142
    16.2230  16.2233  16.2291  16.2296  16.3425  16.3431  16.3718  16.3725
    16.4243  16.4244  16.4640  16.4641  16.4798  16.4800  16.5927  16.5928
    16.6285  16.6287  16.6950  16.6953  16.7073  16.7080  16.7363  16.7370
    16.7945  16.7948  16.8086  16.8089  17.2644  17.2649  17.2745  17.2750
    17.3183  17.3184  17.3324  17.3326  17.3580  17.3583  17.4055  17.4057
    17.4530  17.4536  17.6022  17.6029  17.6060  17.6066  17.6645  17.6648
    17.6888  17.6894  17.7319  17.7322  17.7330  17.7336  17.7962  17.7969
    17.9113  17.9120  17.9478  17.9484  18.0200  18.0207  18.0753  18.0761
    18.2110  18.2117  18.2615  18.2622  18.3292  18.3297  18.5006  18.5012
    18.5428  18.5429  18.5563  18.5570  18.6941  18.6944  18.7198  18.7199
    18.7804  18.7810  18.8029  18.8030  18.8056  18.8060  18.8116  18.8119
    18.8191  18.8196  18.8226  18.8230  18.9121  18.9123  18.9627  18.9629
    19.1794  19.1795  19.2871  19.2877  19.2981  19.2989  19.5543  19.5544
    20.0011  20.0013  20.0777  20.0785  20.3725  20.3731  20.6386  20.6393
    21.7200  21.7207  22.1819  22.1826  23.5119  23.5123  24.0504  24.0510
    24.1155  24.1158  24.6490  24.6492  24.7234  24.7240  25.1551  25.1553
    26.8415  26.8416  27.2808  27.2810  27.6831  27.6839  27.8896  27.8903
    28.2264  28.2271  28.2998  28.2999  28.8581  28.8582  29.2312  29.2314
    29.7766  29.7774  29.8916  29.8922  29.9456  29.9463  30.0805  30.0814
    30.9240  30.9254

          k = 0.0556 0.2766 0.0556 ( 33144 PWs)   bands (ev):

   -64.9629 -64.9478 -64.9355 -64.9354 -64.9302 -64.9302 -64.9273 -64.9272
   -64.9233 -64.9233 -64.9216 -64.9212 -64.9199 -64.9186 -64.9185 -64.9185
   -64.9183 -64.9176 -64.9163 -64.9129 -64.9128 -64.9112 -64.9112 -64.9066
   -64.9047 -64.9047 -64.9044 -64.9043 -64.9028 -64.9027 -64.9027 -64.9025
   -30.8379 -30.8349 -30.8349 -30.8304 -30.8185 -30.8185 -30.8116 -30.7798
   -30.7743 -30.7743 -30.7692 -30.7692 -30.7664 -30.7528 -30.7527 -30.7509
   -30.7509 -30.7411 -30.7411 -30.7322 -30.7322 -30.7308 -30.7303 -30.7303
   -30.7178 -30.7178 -30.7157 -30.7157 -30.7051 -30.7051 -30.6876 -30.6876
   -30.6822 -30.6822 -30.6797 -30.6797 -30.6635 -30.6635 -30.6610 -30.6610
   -30.6316 -30.6316 -30.6205 -30.6178 -30.6178 -30.6163 -30.6163 -30.6110
   -30.6095 -30.6083 -30.6083 -30.6067 -30.6067 -30.6053 -30.6053 -30.6045
   -30.6045 -30.5957 -30.5925 -30.5925 -30.5853 -30.5773 -30.5766 -30.5644
   -30.5644 -30.5566 -30.5565 -30.5548 -30.5548 -30.5522 -30.5516 -30.5516
   -30.5476 -30.5475 -30.5467 -30.5467 -30.5417 -30.5374 -30.5346 -30.5337
   -30.5337 -30.5331 -30.5330 -30.5329 -30.5328 -30.5314 -30.5313 -30.5295
   -30.5266 -30.5210 -30.5210 -30.5189 -30.5184 -30.4992 -30.4859 -30.4849
    12.4340  13.5864  14.0753  14.1115  14.1115  14.1393  14.1795  14.1795
    14.2055  14.3316  14.3761  14.3761  14.3950  14.3951  14.4701  14.5924
    14.5924  14.7454  14.7454  14.7893  14.8061  14.8832  14.8832  14.9343
    15.0406  15.0407  15.0868  15.0868  15.1102  15.1103  15.1148  15.1148
    15.2193  15.2193  15.2240  15.2241  15.3392  15.3393  15.3924  15.3925
    15.5028  15.5029  15.6474  15.6475  15.6730  15.6730  15.6804  15.7000
    15.7001  15.7187  15.7188  15.7434  15.7434  15.8548  15.8549  15.9278
    15.9279  15.9676  15.9760  15.9761  16.0420  16.0420  16.0805  16.0806
    16.0850  16.0851  16.1350  16.1699  16.1700  16.2312  16.2589  16.2715
    16.2715  16.3301  16.3506  16.3507  16.4603  16.4904  16.4904  16.5109
    16.5163  16.5199  16.6585  16.6585  16.6773  16.7256  16.8211  16.8212
    16.8679  16.8679  16.8940  16.8941  16.9654  17.0394  17.0497  17.0497
    17.0662  17.0736  17.3427  17.3687  17.3687  17.4615  17.4615  17.5345
    17.5347  17.5507  17.5508  17.6078  17.6078  17.6385  17.6386  17.6989
    17.6990  17.7942  17.8460  17.8460  17.8487  17.8487  17.8722  17.8722
    17.8754  17.8755  17.9984  18.0699  18.1248  18.1248  18.1405  18.1405
    18.1569  18.2439  18.2508  18.2579  18.2859  18.2859  18.2891  18.2891
    18.3286  18.3286  18.3599  18.3705  18.3705  18.4515  18.6205  18.6205
    18.6749  18.6792  18.6792  18.7427  18.8323  18.8323  18.8815  18.8815
    18.8822  18.9670  18.9676  18.9676  18.9775  19.1089  19.1575  19.1575
    19.1596  19.1596  19.1960  19.3794  19.3795  19.3807  19.3807  19.9679
    19.9680  20.2110  20.4160  20.4161  20.7449  20.7449  20.7882  21.1207
    21.3162  21.3162  21.4709  21.8542  22.5539  22.5539  23.0992  23.0992
    23.2811  23.2811  25.7484  25.7485  25.9390  25.9390  26.3075  26.3076
    26.3781  26.6815  26.6815  27.0857  27.7841  27.7842  28.4583  28.4584
    28.7078  29.2025  29.2025  29.2540  29.2540  29.5578  29.5578  29.6183
    29.6183  29.6937  29.6937  29.8138  29.9684  29.9685  30.1304  30.1304
    30.1383  30.1384

          k = 0.0556 0.2766 0.1667 ( 33133 PWs)   bands (ev):

   -64.9620 -64.9472 -64.9406 -64.9350 -64.9311 -64.9298 -64.9270 -64.9250
   -64.9239 -64.9232 -64.9213 -64.9212 -64.9207 -64.9194 -64.9193 -64.9171
   -64.9167 -64.9158 -64.9145 -64.9141 -64.9130 -64.9114 -64.9096 -64.9066
   -64.9051 -64.9050 -64.9048 -64.9041 -64.9036 -64.9034 -64.9030 -64.9026
   -30.8366 -30.8354 -30.8282 -30.8220 -30.8153 -30.8143 -30.8093 -30.7825
   -30.7792 -30.7692 -30.7665 -30.7662 -30.7640 -30.7636 -30.7557 -30.7541
   -30.7528 -30.7479 -30.7474 -30.7455 -30.7440 -30.7425 -30.7394 -30.7325
   -30.7253 -30.7132 -30.7094 -30.7031 -30.6993 -30.6983 -30.6953 -30.6934
   -30.6883 -30.6880 -30.6795 -30.6682 -30.6650 -30.6518 -30.6475 -30.6379
   -30.6342 -30.6328 -30.6294 -30.6212 -30.6206 -30.6145 -30.6140 -30.6137
   -30.6127 -30.6117 -30.6090 -30.6061 -30.6038 -30.6015 -30.6011 -30.5986
   -30.5964 -30.5936 -30.5847 -30.5835 -30.5801 -30.5785 -30.5769 -30.5750
   -30.5605 -30.5603 -30.5597 -30.5586 -30.5560 -30.5555 -30.5549 -30.5543
   -30.5486 -30.5473 -30.5441 -30.5438 -30.5434 -30.5416 -30.5391 -30.5381
   -30.5379 -30.5372 -30.5357 -30.5344 -30.5318 -30.5311 -30.5287 -30.5228
   -30.5216 -30.5213 -30.5212 -30.5148 -30.5127 -30.5084 -30.4879 -30.4832
    12.5046  13.6425  14.1001  14.1224  14.1359  14.1446  14.1466  14.1903
    14.2554  14.2676  14.3724  14.4025  14.4133  14.4263  14.5218  14.6020
    14.6635  14.7357  14.7572  14.7862  14.8177  14.8226  14.8345  14.8669
    14.9621  14.9688  14.9915  15.0036  15.0277  15.0529  15.1252  15.1317
    15.1427  15.1564  15.1872  15.2370  15.2809  15.2984  15.3257  15.4308
    15.4446  15.4488  15.4943  15.5674  15.5998  15.6124  15.6248  15.6942
    15.7173  15.7275  15.7478  15.7604  15.8059  15.8691  15.8734  15.9181
    15.9287  15.9420  16.0320  16.0718  16.1106  16.1247  16.1699  16.1813
    16.1923  16.2010  16.2050  16.2451  16.2568  16.2898  16.2905  16.3323
    16.3633  16.3651  16.4366  16.4676  16.4858  16.5078  16.5096  16.5156
    16.5433  16.5561  16.5688  16.5703  16.5820  16.6849  16.7733  16.7955
    16.8290  16.8343  16.8514  16.9402  16.9704  17.0674  17.0752  17.0920
    17.1614  17.1712  17.1788  17.2411  17.2513  17.3257  17.3308  17.4401
    17.4498  17.4747  17.4824  17.5299  17.5804  17.6620  17.7103  17.7199
    17.7345  17.7969  17.8261  17.8405  17.8690  17.9208  17.9487  17.9812
    17.9868  18.0386  18.0395  18.0758  18.0834  18.0943  18.0990  18.1042
    18.1178  18.1438  18.2251  18.2713  18.2809  18.3102  18.3447  18.4054
    18.4146  18.4404  18.4483  18.4498  18.4541  18.4737  18.4828  18.5643
    18.5760  18.5966  18.6921  18.7734  18.8011  18.8240  18.9012  18.9150
    18.9869  19.0223  19.0272  19.0299  19.1054  19.1248  19.1264  19.1360
    19.1569  19.1627  19.2017  19.3073  19.3115  19.3169  19.3170  19.5774
    19.7904  19.9361  20.3157  20.3933  20.4476  20.8241  20.9352  21.3333
    21.5291  21.7666  21.9120  22.0325  22.4498  22.5550  22.9058  23.0971
    23.5079  23.6801  25.1735  25.3973  25.8179  26.0858  26.2104  26.3313
    26.3785  26.8437  27.0864  27.0965  27.1043  27.5737  27.6238  28.1937
    28.3467  28.6374  28.7250  28.9596  29.0936  29.1752  29.3848  29.5823
    29.7622  29.8339  29.8626  30.0831  30.1321  30.3560  30.4047  30.4771
    30.6993  30.7855

          k = 0.0556 0.2766 0.2778 ( 33133 PWs)   bands (ev):

   -64.9602 -64.9458 -64.9456 -64.9348 -64.9341 -64.9291 -64.9265 -64.9264
   -64.9229 -64.9228 -64.9225 -64.9207 -64.9202 -64.9201 -64.9162 -64.9160
   -64.9157 -64.9155 -64.9133 -64.9133 -64.9120 -64.9119 -64.9081 -64.9065
   -64.9059 -64.9058 -64.9053 -64.9052 -64.9047 -64.9039 -64.9035 -64.9027
   -30.8316 -30.8315 -30.8179 -30.8100 -30.8093 -30.8060 -30.8047 -30.7823
   -30.7812 -30.7809 -30.7793 -30.7689 -30.7669 -30.7611 -30.7601 -30.7576
   -30.7572 -30.7557 -30.7543 -30.7523 -30.7512 -30.7429 -30.7426 -30.7409
   -30.7372 -30.7359 -30.7091 -30.7037 -30.6977 -30.6958 -30.6889 -30.6887
   -30.6813 -30.6804 -30.6742 -30.6712 -30.6470 -30.6448 -30.6446 -30.6344
   -30.6341 -30.6340 -30.6320 -30.6249 -30.6209 -30.6095 -30.6093 -30.6088
   -30.6081 -30.6076 -30.6067 -30.6062 -30.6036 -30.6023 -30.5947 -30.5942
   -30.5889 -30.5858 -30.5858 -30.5852 -30.5725 -30.5722 -30.5722 -30.5719
   -30.5679 -30.5675 -30.5657 -30.5653 -30.5567 -30.5566 -30.5548 -30.5546
   -30.5531 -30.5528 -30.5519 -30.5518 -30.5427 -30.5423 -30.5413 -30.5410
   -30.5391 -30.5387 -30.5340 -30.5327 -30.5317 -30.5309 -30.5272 -30.5261
   -30.5228 -30.5222 -30.5216 -30.5098 -30.5097 -30.5071 -30.4922 -30.4834
    12.6442  13.7521  13.7606  14.1699  14.2113  14.2142  14.2142  14.2379
    14.3649  14.3650  14.4474  14.4539  14.4550  14.5235  14.5771  14.6219
    14.6223  14.6297  14.6698  14.6698  14.7821  14.7859  14.7864  14.7865
    14.8656  14.8746  14.8895  14.8974  15.0577  15.0600  15.0605  15.0639
    15.0664  15.1652  15.1660  15.1991  15.1994  15.2371  15.2374  15.3180
    15.3182  15.4000  15.5132  15.5141  15.5185  15.5211  15.5477  15.7189
    15.7385  15.7569  15.7610  15.7698  15.7702  15.7787  15.7812  16.0258
    16.0344  16.0929  16.0989  16.1858  16.1882  16.1900  16.2021  16.2281
    16.2288  16.2456  16.2623  16.2642  16.2903  16.3832  16.4088  16.4110
    16.4130  16.4973  16.5043  16.5058  16.5378  16.5597  16.5909  16.6028
    16.6078  16.6098  16.6539  16.6603  16.6607  16.6675  16.6839  16.7193
    16.8161  16.8213  16.8350  16.8472  16.9901  17.0112  17.0412  17.0642
    17.1265  17.1445  17.1847  17.2224  17.2772  17.2893  17.3086  17.3200
    17.3234  17.3352  17.3936  17.3955  17.5397  17.5418  17.6733  17.7640
    17.7657  17.7761  17.7765  17.7772  17.8107  17.8916  17.8944  17.9762
    18.0088  18.0613  18.0643  18.1176  18.1209  18.1632  18.1642  18.2026
    18.2105  18.3132  18.3140  18.3143  18.3257  18.3388  18.3390  18.3393
    18.3467  18.3869  18.3871  18.5422  18.5848  18.6102  18.6139  18.6208
    18.6213  18.6214  18.6237  18.7242  18.7259  18.7694  18.8853  18.8876
    18.9636  19.0328  19.0358  19.0571  19.0643  19.0650  19.1589  19.1664
    19.1758  19.1806  19.1923  19.2025  19.2326  19.2482  19.5563  19.5679
    19.5800  19.8731  19.8859  20.2638  20.3498  20.3665  21.5256  21.5351
    21.9129  21.9160  22.2365  22.2893  22.5476  22.5833  23.0747  23.1109
    23.9137  24.3085  24.5829  24.6188  25.8492  25.8855  26.2102  26.2138
    26.3628  26.3844  26.7992  26.8361  27.4175  27.4420  27.6093  27.7138
    27.7624  28.1371  28.2292  28.2788  28.3608  29.4565  29.6340  29.6660
    29.8028  29.8029  30.1942  30.2391  30.4503  30.4796  30.6373  30.6420
    30.7668  30.8715

          k = 0.0556 0.2766 0.3889 ( 33153 PWs)   bands (ev):

   -64.9576 -64.9501 -64.9438 -64.9382 -64.9327 -64.9288 -64.9280 -64.9259
   -64.9247 -64.9237 -64.9224 -64.9209 -64.9199 -64.9175 -64.9155 -64.9151
   -64.9146 -64.9137 -64.9126 -64.9123 -64.9110 -64.9101 -64.9081 -64.9071
   -64.9069 -64.9067 -64.9067 -64.9063 -64.9055 -64.9043 -64.9037 -64.9028
   -30.8239 -30.8228 -30.8046 -30.8004 -30.7981 -30.7979 -30.7957 -30.7950
   -30.7939 -30.7795 -30.7794 -30.7787 -30.7754 -30.7715 -30.7676 -30.7674
   -30.7661 -30.7597 -30.7592 -30.7591 -30.7538 -30.7483 -30.7435 -30.7404
   -30.7399 -30.7277 -30.7180 -30.7165 -30.7076 -30.6956 -30.6823 -30.6786
   -30.6746 -30.6668 -30.6626 -30.6576 -30.6566 -30.6557 -30.6475 -30.6463
   -30.6301 -30.6247 -30.6229 -30.6183 -30.6177 -30.6151 -30.6086 -30.6074
   -30.6064 -30.6038 -30.6027 -30.6001 -30.5959 -30.5942 -30.5919 -30.5856
   -30.5847 -30.5838 -30.5832 -30.5832 -30.5808 -30.5751 -30.5732 -30.5718
   -30.5703 -30.5678 -30.5633 -30.5631 -30.5619 -30.5597 -30.5595 -30.5587
   -30.5531 -30.5528 -30.5516 -30.5476 -30.5468 -30.5465 -30.5461 -30.5455
   -30.5396 -30.5382 -30.5379 -30.5347 -30.5340 -30.5332 -30.5331 -30.5296
   -30.5245 -30.5232 -30.5162 -30.5055 -30.5039 -30.4998 -30.4985 -30.4862
    12.8487  13.4213  13.9101  14.2415  14.3089  14.3118  14.3223  14.3354
    14.3457  14.4935  14.4939  14.4959  14.5058  14.5326  14.5364  14.5755
    14.5980  14.6062  14.6072  14.6525  14.6623  14.6915  14.7377  14.7565
    14.7654  14.8223  14.8502  14.8626  14.9339  14.9588  14.9784  14.9908
    15.0303  15.1284  15.1330  15.1672  15.2153  15.2387  15.2450  15.2947
    15.3059  15.3517  15.3851  15.4213  15.4604  15.5692  15.6122  15.6289
    15.6424  15.6984  15.7487  15.7872  15.8170  15.8372  15.8988  15.9988
    16.0066  16.0141  16.0949  16.1549  16.1612  16.2284  16.2624  16.2775
    16.2959  16.2989  16.3027  16.3585  16.3890  16.3927  16.4157  16.5060
    16.5081  16.5548  16.5716  16.5726  16.5745  16.6063  16.6104  16.6416
    16.6578  16.6592  16.6658  16.7519  16.7579  16.7800  16.7814  16.8037
    16.8152  16.8656  16.8732  16.8917  16.9553  16.9694  17.0538  17.0666
    17.0683  17.1046  17.1295  17.1381  17.1498  17.1952  17.2226  17.3081
    17.4242  17.4271  17.4452  17.4612  17.4670  17.4783  17.5380  17.5564
    17.5899  17.6244  17.6819  17.6986  17.7072  17.7900  17.9465  17.9939
    18.0140  18.0154  18.0334  18.0379  18.1633  18.1648  18.1862  18.1921
    18.1983  18.2432  18.3466  18.3664  18.3698  18.3814  18.4360  18.4482
    18.4562  18.5241  18.5538  18.5884  18.5903  18.6509  18.6763  18.7450
    18.7592  18.7594  18.7680  18.7690  18.7841  18.7855  18.8153  18.8392
    18.9272  18.9816  18.9823  18.9833  18.9886  18.9909  19.0004  19.0104
    19.0600  19.1292  19.1649  19.1709  19.1832  19.2030  19.4883  19.5603
    19.7813  19.9343  20.0465  20.1608  20.2046  20.2911  21.0270  21.5698
    22.2164  22.2174  22.4235  22.5105  22.7890  22.9914  23.3308  23.7861
    23.8386  23.9815  24.4412  24.9941  25.0185  25.4001  25.7021  26.2308
    26.4256  26.5256  26.6401  26.7990  27.0221  27.0254  27.2750  27.4923
    27.7721  27.7822  27.9759  28.2115  28.7715  29.0901  29.6554  29.7818
    29.8592  29.8892  29.9566  30.0659  30.1544  30.2382  30.7061  30.7763
    30.9211  31.0142

          k = 0.0556 0.2766-0.5000 ( 33148 PWs)   bands (ev):

   -64.9545 -64.9538 -64.9417 -64.9409 -64.9313 -64.9305 -64.9268 -64.9261
   -64.9253 -64.9245 -64.9221 -64.9214 -64.9192 -64.9184 -64.9147 -64.9140
   -64.9139 -64.9131 -64.9119 -64.9111 -64.9096 -64.9092 -64.9089 -64.9087
   -64.9085 -64.9080 -64.9063 -64.9058 -64.9055 -64.9050 -64.9036 -64.9028
   -30.8127 -30.8124 -30.8106 -30.8103 -30.7895 -30.7893 -30.7889 -30.7888
   -30.7886 -30.7885 -30.7785 -30.7779 -30.7778 -30.7775 -30.7749 -30.7749
   -30.7739 -30.7737 -30.7650 -30.7645 -30.7457 -30.7451 -30.7446 -30.7441
   -30.7304 -30.7300 -30.7161 -30.7160 -30.7120 -30.7116 -30.6695 -30.6693
   -30.6680 -30.6677 -30.6611 -30.6608 -30.6577 -30.6570 -30.6435 -30.6433
   -30.6421 -30.6414 -30.6103 -30.6096 -30.6084 -30.6077 -30.6053 -30.6048
   -30.6046 -30.6046 -30.6021 -30.6019 -30.5969 -30.5967 -30.5944 -30.5937
   -30.5839 -30.5834 -30.5821 -30.5819 -30.5750 -30.5746 -30.5742 -30.5738
   -30.5664 -30.5657 -30.5638 -30.5633 -30.5603 -30.5601 -30.5588 -30.5584
   -30.5533 -30.5526 -30.5504 -30.5497 -30.5495 -30.5488 -30.5478 -30.5474
   -30.5426 -30.5418 -30.5400 -30.5396 -30.5361 -30.5354 -30.5274 -30.5272
   -30.5271 -30.5265 -30.5070 -30.5062 -30.5034 -30.5033 -30.4920 -30.4917
    13.1109  13.1119  14.1079  14.1088  14.3499  14.3500  14.4210  14.4217
    14.4426  14.4427  14.4445  14.4450  14.5085  14.5093  14.5476  14.5481
    14.6334  14.6342  14.6586  14.6586  14.6737  14.6738  14.6919  14.6922
    14.7358  14.7366  14.8345  14.8349  14.8803  14.8803  14.9392  14.9398
    15.1124  15.1132  15.1285  15.1290  15.2093  15.2095  15.2722  15.2724
    15.2842  15.2849  15.4648  15.4654  15.4914  15.4914  15.5118  15.5125
    15.7745  15.7750  15.7785  15.7785  15.8877  15.8880  15.9009  15.9015
    15.9184  15.9190  16.0406  16.0411  16.2550  16.2556  16.3303  16.3308
    16.3376  16.3378  16.3811  16.3816  16.4065  16.4067  16.4248  16.4249
    16.4706  16.4707  16.6138  16.6139  16.6628  16.6630  16.6715  16.6721
    16.6956  16.6956  16.7180  16.7186  16.7367  16.7369  16.7404  16.7410
    16.9130  16.9133  16.9284  16.9287  17.0789  17.0789  17.0878  17.0882
    17.0975  17.0979  17.1607  17.1608  17.1727  17.1728  17.1900  17.1902
    17.2465  17.2470  17.4992  17.4996  17.5025  17.5031  17.5618  17.5623
    17.5908  17.5913  17.6128  17.6135  17.6272  17.6274  17.9014  17.9021
    17.9069  17.9074  18.0909  18.0916  18.1229  18.1235  18.1366  18.1373
    18.2964  18.2971  18.4206  18.4213  18.4256  18.4262  18.5460  18.5467
    18.5671  18.5677  18.6166  18.6166  18.6636  18.6638  18.6639  18.6639
    18.7862  18.7868  18.8133  18.8134  18.8367  18.8371  18.8793  18.8796
    18.8811  18.8815  18.8962  18.8964  18.8995  18.8996  18.9220  18.9221
    19.1184  19.1185  19.1758  19.1765  19.1777  19.1782  19.5221  19.5223
    19.6679  19.6686  20.2314  20.2321  20.5338  20.5340  20.8396  20.8402
    22.4112  22.4119  22.7883  22.7889  22.9737  22.9742  23.3783  23.3788
    24.1479  24.1482  24.6210  24.6212  25.0468  25.0474  25.7416  25.7418
    26.4981  26.4982  26.8596  26.8598  26.8956  26.8963  27.2453  27.2460
    27.3635  27.3642  28.5457  28.5458  28.8960  28.8961  29.4735  29.4736
    29.7991  29.8000  29.9428  29.9437  30.3428  30.3436  30.5209  30.5210
    31.1642  31.1648

          k = 0.0556 0.3873 0.0556 ( 33117 PWs)   bands (ev):

   -64.9602 -64.9525 -64.9340 -64.9339 -64.9298 -64.9298 -64.9290 -64.9289
   -64.9255 -64.9254 -64.9210 -64.9203 -64.9186 -64.9185 -64.9185 -64.9183
   -64.9172 -64.9169 -64.9165 -64.9103 -64.9103 -64.9093 -64.9091 -64.9091
   -64.9062 -64.9061 -64.9056 -64.9056 -64.9028 -64.9027 -64.9027 -64.9025
   -30.8274 -30.8233 -30.8233 -30.8175 -30.8096 -30.8096 -30.7972 -30.7972
   -30.7918 -30.7918 -30.7846 -30.7846 -30.7842 -30.7562 -30.7528 -30.7527
   -30.7480 -30.7480 -30.7464 -30.7464 -30.7371 -30.7371 -30.7201 -30.7201
   -30.7127 -30.7127 -30.7023 -30.7023 -30.6979 -30.6979 -30.6973 -30.6973
   -30.6926 -30.6926 -30.6763 -30.6763 -30.6740 -30.6740 -30.6666 -30.6666
   -30.6409 -30.6409 -30.6175 -30.6174 -30.6166 -30.6165 -30.6049 -30.6036
   -30.6011 -30.5936 -30.5935 -30.5935 -30.5935 -30.5925 -30.5924 -30.5907
   -30.5907 -30.5878 -30.5868 -30.5798 -30.5798 -30.5795 -30.5720 -30.5720
   -30.5676 -30.5675 -30.5674 -30.5673 -30.5658 -30.5591 -30.5591 -30.5590
   -30.5590 -30.5587 -30.5514 -30.5414 -30.5414 -30.5368 -30.5355 -30.5331
   -30.5331 -30.5330 -30.5329 -30.5329 -30.5328 -30.5286 -30.5284 -30.5283
   -30.5270 -30.5213 -30.5213 -30.5149 -30.5086 -30.5079 -30.4918 -30.4909
    12.6449  13.2364  14.1662  14.2389  14.2389  14.2490  14.3012  14.3012
    14.3383  14.3830  14.4116  14.5013  14.5013  14.5329  14.5330  14.5716
    14.5716  14.5852  14.6429  14.6563  14.6563  14.7079  14.7322  14.7322
    14.8720  14.8720  14.8751  14.8752  15.0732  15.0733  15.1695  15.1696
    15.2254  15.2255  15.2956  15.2956  15.3085  15.3086  15.4536  15.4536
    15.5016  15.5017  15.5160  15.5160  15.6149  15.6150  15.6510  15.6510
    15.6644  15.6644  15.7100  15.7101  15.7549  15.7550  15.8546  15.8980
    15.8980  15.9253  15.9253  16.0268  16.0865  16.0866  16.0869  16.0869
    16.1028  16.1028  16.1500  16.1651  16.2019  16.2204  16.2204  16.2735
    16.2735  16.2975  16.4028  16.4028  16.5470  16.5884  16.5885  16.6124
    16.6147  16.6156  16.6424  16.6425  16.6494  16.6495  16.8043  16.8452
    16.8452  16.8865  16.8931  16.8998  17.0706  17.0757  17.0757  17.0881
    17.3101  17.3101  17.4291  17.4322  17.4322  17.4554  17.4555  17.6283
    17.6284  17.6670  17.6670  17.6735  17.6737  17.6858  17.6877  17.6878
    17.7274  17.7275  17.8162  17.8163  17.8554  17.8555  17.8561  17.8562
    17.8581  17.8803  17.8803  17.8871  17.8871  17.9799  18.0445  18.0858
    18.0858  18.1759  18.2350  18.2350  18.3269  18.3270  18.3644  18.4027
    18.4863  18.4863  18.4964  18.5453  18.5504  18.5504  18.5710  18.5710
    18.7244  18.7245  18.7367  18.8378  18.8378  18.8396  18.8647  18.8764
    18.8796  18.8797  18.9201  18.9813  18.9814  18.9816  18.9816  19.0589
    19.1754  19.1754  19.2805  19.3798  19.3798  19.3805  19.3805  19.5728
    19.5728  19.9805  19.9805  20.4022  20.6955  20.7458  20.9514  20.9514
    21.2354  21.2354  21.4185  21.7711  23.2569  23.2569  23.8036  23.8036
    23.8742  23.8742  24.8678  24.8678  25.2253  25.2253  25.4162  25.4163
    26.7245  27.1407  27.1408  27.6227  27.9149  28.1318  28.1318  28.4461
    28.4461  28.7901  28.7902  29.0002  29.0417  29.0417  29.4291  29.4291
    29.5768  29.5768  29.6533  29.6535  30.0767  30.0767  30.1141  30.1145
    30.3374  30.3377

          k = 0.0556 0.3873 0.1667 ( 33138 PWs)   bands (ev):

   -64.9593 -64.9518 -64.9389 -64.9341 -64.9336 -64.9295 -64.9286 -64.9252
   -64.9240 -64.9234 -64.9221 -64.9212 -64.9205 -64.9198 -64.9167 -64.9166
   -64.9161 -64.9159 -64.9145 -64.9115 -64.9105 -64.9094 -64.9092 -64.9079
   -64.9067 -64.9065 -64.9060 -64.9051 -64.9036 -64.9034 -64.9029 -64.9027
   -30.8276 -30.8252 -30.8157 -30.8080 -30.8066 -30.8062 -30.7995 -30.7960
   -30.7955 -30.7835 -30.7833 -30.7817 -30.7736 -30.7634 -30.7618 -30.7569
   -30.7565 -30.7562 -30.7552 -30.7518 -30.7426 -30.7389 -30.7359 -30.7284
   -30.7205 -30.7163 -30.7114 -30.7077 -30.7045 -30.6962 -30.6878 -30.6830
   -30.6818 -30.6804 -30.6768 -30.6735 -30.6645 -30.6640 -30.6598 -30.6496
   -30.6480 -30.6386 -30.6140 -30.6139 -30.6121 -30.6116 -30.6114 -30.6082
   -30.6071 -30.6030 -30.6027 -30.5948 -30.5922 -30.5908 -30.5908 -30.5901
   -30.5866 -30.5857 -30.5849 -30.5809 -30.5739 -30.5731 -30.5696 -30.5692
   -30.5687 -30.5683 -30.5679 -30.5673 -30.5665 -30.5662 -30.5662 -30.5549
   -30.5540 -30.5535 -30.5462 -30.5460 -30.5449 -30.5431 -30.5428 -30.5410
   -30.5399 -30.5391 -30.5337 -30.5332 -30.5317 -30.5299 -30.5268 -30.5246
   -30.5238 -30.5222 -30.5162 -30.5114 -30.5108 -30.5043 -30.4939 -30.4881
    12.7129  13.2967  14.2141  14.2288  14.2437  14.2613  14.2747  14.2956
    14.3840  14.4066  14.4333  14.4512  14.5161  14.5264  14.5311  14.5575
    14.5795  14.6103  14.6171  14.6197  14.6788  14.6964  14.7443  14.7546
    14.7758  14.8058  14.8926  14.9088  14.9280  15.0097  15.1200  15.1427
    15.1470  15.1600  15.2002  15.2563  15.2604  15.3847  15.3972  15.4186
    15.4461  15.4623  15.5203  15.5400  15.5547  15.5612  15.5636  15.5700
    15.6119  15.6504  15.7104  15.7383  15.7465  15.8078  15.8641  15.9035
    15.9290  15.9784  16.0868  16.0900  16.1213  16.1515  16.1560  16.1632
    16.1672  16.1795  16.2307  16.2527  16.2764  16.2828  16.2834  16.3178
    16.3471  16.4050  16.4123  16.5479  16.5511  16.6022  16.6107  16.6227
    16.6265  16.6294  16.6675  16.6840  16.7026  16.7625  16.7698  16.7713
    16.8537  16.8602  16.8894  16.9548  16.9852  17.0138  17.0506  17.0741
    17.2203  17.2238  17.2415  17.2629  17.2801  17.2931  17.3906  17.4767
    17.4843  17.5049  17.5701  17.6180  17.6647  17.6898  17.6942  17.6953
    17.7015  17.7261  17.7688  17.7994  17.8378  17.8598  17.8701  17.8799
    17.9270  17.9325  17.9812  18.0315  18.0363  18.0874  18.1167  18.1281
    18.1599  18.1633  18.1784  18.2981  18.3181  18.3223  18.3478  18.3543
    18.4702  18.5042  18.5442  18.5786  18.6102  18.6362  18.6370  18.6448
    18.6470  18.6538  18.6778  18.7381  18.7435  18.8446  18.8471  18.8722
    18.8940  18.9348  18.9386  18.9825  18.9836  18.9844  18.9864  19.0788
    19.1523  19.2261  19.3073  19.3108  19.3126  19.3153  19.5412  19.5610
    19.6583  19.9404  19.9591  20.2196  20.4649  20.5446  20.7505  21.0565
    21.5717  21.8497  21.9253  22.3659  22.7258  23.2736  23.4764  23.8126
    24.0721  24.3160  24.3771  24.7452  24.9188  25.3847  25.4460  25.9689
    26.4066  26.7294  27.3727  27.4268  27.4579  27.6371  27.9219  27.9290
    28.1655  28.1723  28.4132  28.7124  28.8374  29.0189  29.4128  29.4835
    29.5903  29.7812  29.8089  29.9595  30.0438  30.2363  30.2517  30.2838
    30.3614  30.6435

          k = 0.0556 0.3873 0.2778 ( 33150 PWs)   bands (ev):

   -64.9576 -64.9503 -64.9436 -64.9382 -64.9327 -64.9289 -64.9279 -64.9257
   -64.9248 -64.9238 -64.9223 -64.9210 -64.9193 -64.9171 -64.9162 -64.9150
   -64.9146 -64.9137 -64.9127 -64.9126 -64.9109 -64.9100 -64.9090 -64.9072
   -64.9071 -64.9069 -64.9068 -64.9053 -64.9049 -64.9046 -64.9033 -64.9029
   -30.8239 -30.8231 -30.8048 -30.8006 -30.7994 -30.7986 -30.7967 -30.7953
   -30.7924 -30.7806 -30.7785 -30.7781 -30.7762 -30.7725 -30.7668 -30.7661
   -30.7659 -30.7603 -30.7585 -30.7576 -30.7529 -30.7495 -30.7423 -30.7414
   -30.7399 -30.7264 -30.7176 -30.7160 -30.7065 -30.6950 -30.6839 -30.6783
   -30.6747 -30.6639 -30.6626 -30.6590 -30.6583 -30.6562 -30.6474 -30.6440
   -30.6339 -30.6252 -30.6235 -30.6200 -30.6155 -30.6145 -30.6088 -30.6073
   -30.6059 -30.6027 -30.6022 -30.5971 -30.5967 -30.5963 -30.5927 -30.5857
   -30.5856 -30.5839 -30.5834 -30.5828 -30.5809 -30.5758 -30.5733 -30.5719
   -30.5705 -30.5680 -30.5646 -30.5642 -30.5624 -30.5598 -30.5597 -30.5597
   -30.5534 -30.5512 -30.5504 -30.5487 -30.5462 -30.5459 -30.5458 -30.5458
   -30.5395 -30.5394 -30.5366 -30.5353 -30.5341 -30.5330 -30.5329 -30.5283
   -30.5240 -30.5233 -30.5155 -30.5056 -30.5038 -30.4998 -30.4983 -30.4862
    12.8469  13.4151  13.9165  14.2412  14.3075  14.3108  14.3219  14.3371
    14.3439  14.4928  14.4936  14.4955  14.5053  14.5302  14.5311  14.5763
    14.5973  14.6033  14.6064  14.6518  14.6626  14.6851  14.7374  14.7507
    14.7705  14.8238  14.8484  14.8609  14.9336  14.9583  14.9857  14.9979
    15.0301  15.1294  15.1342  15.1696  15.2154  15.2406  15.2437  15.2955
    15.3086  15.3545  15.3853  15.4216  15.4605  15.5699  15.6107  15.6307
    15.6452  15.6996  15.7643  15.7922  15.8113  15.8367  15.8785  15.9915
    16.0086  16.0134  16.0989  16.1414  16.1558  16.2147  16.2627  16.2682
    16.3035  16.3120  16.3126  16.3363  16.3748  16.4079  16.4221  16.5007
    16.5142  16.5555  16.5794  16.5825  16.5862  16.6076  16.6205  16.6511
    16.6596  16.6663  16.6715  16.7615  16.7658  16.7784  16.7889  16.7923
    16.8102  16.8849  16.8889  16.8928  16.9669  16.9897  17.0346  17.0497
    17.0736  17.1206  17.1230  17.1418  17.1530  17.1795  17.2164  17.3018
    17.4181  17.4183  17.4475  17.4525  17.4678  17.4800  17.5275  17.5505
    17.5919  17.6174  17.6797  17.6950  17.6955  17.7891  17.9503  17.9951
    18.0088  18.0272  18.0284  18.0373  18.1597  18.1643  18.1797  18.1948
    18.2065  18.2400  18.3469  18.3673  18.3689  18.3777  18.4361  18.4505
    18.4513  18.5247  18.5507  18.5851  18.5891  18.6517  18.6734  18.7465
    18.7564  18.7568  18.7695  18.7704  18.7839  18.7840  18.8123  18.8333
    18.9269  18.9786  18.9803  18.9819  18.9858  18.9900  18.9927  18.9984
    19.0540  19.1243  19.1810  19.1841  19.1947  19.2121  19.4798  19.5687
    19.7933  19.9214  20.0579  20.1379  20.2117  20.3059  21.0371  21.5259
    22.2020  22.2289  22.4287  22.5407  22.8355  23.0197  23.2901  23.7568
    23.7991  24.0200  24.4352  24.9710  24.9892  25.3719  25.6852  26.2245
    26.4112  26.5126  26.6714  26.8106  26.9895  27.0739  27.3245  27.4534
    27.7874  27.8240  27.9957  28.2056  28.7657  29.0961  29.6346  29.7822
    29.8600  29.8905  29.9866  30.0668  30.1335  30.2179  30.7807  30.7980
    30.9465  31.0331

          k = 0.0556 0.3873 0.3889 ( 33175 PWs)   bands (ev):

   -64.9551 -64.9481 -64.9480 -64.9419 -64.9315 -64.9280 -64.9279 -64.9270
   -64.9253 -64.9242 -64.9240 -64.9221 -64.9157 -64.9150 -64.9139 -64.9136
   -64.9134 -64.9131 -64.9116 -64.9116 -64.9110 -64.9108 -64.9088 -64.9082
   -64.9081 -64.9077 -64.9076 -64.9071 -64.9057 -64.9042 -64.9039 -64.9031
   -30.8169 -30.8168 -30.7945 -30.7942 -30.7939 -30.7932 -30.7918 -30.7911
   -30.7894 -30.7878 -30.7798 -30.7783 -30.7780 -30.7761 -30.7744 -30.7681
   -30.7675 -30.7607 -30.7600 -30.7594 -30.7594 -30.7587 -30.7585 -30.7469
   -30.7450 -30.7442 -30.7301 -30.7154 -30.7112 -30.6953 -30.6944 -30.6698
   -30.6610 -30.6609 -30.6518 -30.6486 -30.6418 -30.6354 -30.6350 -30.6319
   -30.6294 -30.6293 -30.6292 -30.6272 -30.6235 -30.6085 -30.6053 -30.6014
   -30.6011 -30.6011 -30.6009 -30.6009 -30.5980 -30.5979 -30.5966 -30.5963
   -30.5943 -30.5937 -30.5806 -30.5804 -30.5788 -30.5785 -30.5784 -30.5734
   -30.5733 -30.5638 -30.5636 -30.5616 -30.5612 -30.5605 -30.5603 -30.5578
   -30.5525 -30.5521 -30.5517 -30.5513 -30.5511 -30.5491 -30.5454 -30.5422
   -30.5416 -30.5391 -30.5375 -30.5368 -30.5366 -30.5353 -30.5322 -30.5265
   -30.5257 -30.5229 -30.5223 -30.5047 -30.4990 -30.4969 -30.4969 -30.4871
    13.0432  13.5872  13.5915  14.0604  14.2865  14.3799  14.3918  14.4409
    14.4412  14.4720  14.4721  14.4740  14.5888  14.5889  14.6160  14.6330
    14.6330  14.6482  14.6501  14.6501  14.6512  14.6708  14.6742  14.7902
    14.7951  14.8070  14.8262  14.8591  14.8641  14.9637  14.9646  14.9665
    14.9680  14.9945  14.9950  15.0357  15.0361  15.1668  15.1682  15.1843
    15.1861  15.2110  15.2126  15.4484  15.4501  15.4935  15.6832  15.6862
    15.6884  15.6899  15.7879  15.8513  15.8875  15.8887  15.8912  15.9029
    15.9153  16.0999  16.2144  16.2164  16.2721  16.3926  16.3942  16.4080
    16.4325  16.4330  16.4345  16.4384  16.4420  16.4467  16.4730  16.4800
    16.5115  16.5248  16.6513  16.6643  16.6830  16.6904  16.7025  16.7255
    16.7305  16.7494  16.7535  16.7746  16.7772  16.7816  16.8800  16.8808
    16.8847  16.8857  16.8996  16.9012  16.9159  16.9227  16.9997  17.0133
    17.0157  17.0279  17.1132  17.1135  17.1172  17.1659  17.2102  17.2180
    17.2218  17.2321  17.2341  17.2465  17.2553  17.2714  17.2799  17.4269
    17.5331  17.5341  17.5592  17.5595  17.6574  17.7248  17.7285  17.7683
[...]
    23.8549  23.8551  23.8551  23.8552  25.9507  25.9511  25.9514  25.9518
    26.3171  26.3171  26.3171  26.3172  26.3172  26.3173  26.3174  26.3174
    27.1216  27.1218  27.1219  27.1220  29.6972  29.6974  29.6981  29.6983
    30.2707  30.2708  30.2709  30.2709  30.8598  30.8598  30.8599  30.8599
    31.4049  31.4051

          k =-0.5000 0.1660-0.5000 ( 33172 PWs)   bands (ev):

   -64.9486 -64.9483 -64.9479 -64.9475 -64.9330 -64.9326 -64.9322 -64.9319
   -64.9215 -64.9212 -64.9208 -64.9204 -64.9113 -64.9113 -64.9111 -64.9110
   -64.9110 -64.9109 -64.9108 -64.9106 -64.9106 -64.9105 -64.9103 -64.9102
   -64.9102 -64.9101 -64.9100 -64.9099 -64.9059 -64.9055 -64.9051 -64.9048
   -30.7980 -30.7980 -30.7979 -30.7978 -30.7978 -30.7977 -30.7977 -30.7976
   -30.7759 -30.7759 -30.7757 -30.7756 -30.7754 -30.7753 -30.7751 -30.7751
   -30.7736 -30.7733 -30.7729 -30.7726 -30.7711 -30.7709 -30.7706 -30.7704
   -30.7273 -30.7272 -30.7270 -30.7268 -30.6849 -30.6849 -30.6848 -30.6848
   -30.6295 -30.6295 -30.6295 -30.6294 -30.6294 -30.6294 -30.6294 -30.6294
   -30.6275 -30.6275 -30.6272 -30.6272 -30.6269 -30.6268 -30.6266 -30.6265
   -30.6102 -30.6102 -30.6101 -30.6101 -30.5893 -30.5893 -30.5891 -30.5890
   -30.5888 -30.5887 -30.5885 -30.5884 -30.5866 -30.5866 -30.5866 -30.5866
   -30.5682 -30.5680 -30.5678 -30.5677 -30.5665 -30.5664 -30.5663 -30.5661
   -30.5660 -30.5658 -30.5657 -30.5656 -30.5525 -30.5525 -30.5524 -30.5524
   -30.5274 -30.5274 -30.5274 -30.5273 -30.5234 -30.5231 -30.5229 -30.5227
   -30.5173 -30.5170 -30.5166 -30.5163 -30.4931 -30.4931 -30.4931 -30.4931
    13.5676  13.5681  13.5685  13.5690  14.2661  14.2663  14.2665  14.2667
    14.6083  14.6084  14.6084  14.6084  14.6147  14.6148  14.6148  14.6149
    14.6884  14.6885  14.6886  14.6888  14.6890  14.6891  14.6893  14.6893
    14.8864  14.8865  14.8866  14.8867  14.8867  14.8868  14.8869  14.8870
    14.9914  14.9915  14.9916  14.9917  14.9921  14.9922  14.9923  14.9924
    15.1849  15.1849  15.1850  15.1850  15.6817  15.6818  15.6821  15.6822
    15.6823  15.6825  15.6828  15.6829  15.9970  15.9973  15.9976  15.9979
    16.0179  16.0182  16.0182  16.0183  16.4878  16.4879  16.4879  16.4881
    16.5616  16.5617  16.5618  16.5618  16.5655  16.5657  16.5659  16.5661
    16.7258  16.7261  16.7262  16.7265  16.7367  16.7367  16.7368  16.7368
    16.7368  16.7369  16.7370  16.7370  16.7765  16.7766  16.7768  16.7769
    16.8099  16.8099  16.8100  16.8102  17.0559  17.0559  17.0560  17.0562
    17.0562  17.0563  17.0564  17.0565  17.0927  17.0928  17.0930  17.0932
    17.1690  17.1693  17.1693  17.1696  17.2885  17.2885  17.2886  17.2886
    17.2888  17.2888  17.2889  17.2890  17.6261  17.6263  17.6268  17.6270
    18.0979  18.0981  18.0985  18.0987  18.2353  18.2354  18.2355  18.2357
    18.2358  18.2360  18.2361  18.2362  18.2386  18.2388  18.2390  18.2392
    18.5666  18.5667  18.5669  18.5670  18.6293  18.6294  18.6297  18.6298
    18.9787  18.9787  18.9788  18.9790  18.9790  18.9793  18.9793  18.9793
    19.0055  19.0056  19.0056  19.0057  19.0057  19.0058  19.0058  19.0059
    19.0142  19.0144  19.0144  19.0145  19.0366  19.0368  19.0370  19.0371
    20.2804  20.2807  20.2809  20.2812  22.0064  22.0066  22.0067  22.0067
    22.0069  22.0070  22.0071  22.0072  23.6822  23.6822  23.6823  23.6824
    23.6826  23.6826  23.6828  23.6828  25.3588  25.3592  25.3595  25.3599
    26.5546  26.5546  26.5547  26.5548  26.5549  26.5550  26.5551  26.5552
    27.2513  27.2514  27.2516  27.2516  29.7007  29.7008  29.7009  29.7009
    30.3317  30.3319  30.3326  30.3328  30.5176  30.5178  30.5179  30.5180
    30.5181  30.5183

          k =-0.5000 0.2766-0.5000 ( 33128 PWs)   bands (ev):

   -64.9473 -64.9470 -64.9466 -64.9462 -64.9366 -64.9363 -64.9358 -64.9355
   -64.9179 -64.9176 -64.9172 -64.9168 -64.9113 -64.9113 -64.9111 -64.9110
   -64.9110 -64.9109 -64.9108 -64.9106 -64.9106 -64.9105 -64.9103 -64.9103
   -64.9102 -64.9101 -64.9100 -64.9099 -64.9072 -64.9068 -64.9064 -64.9061
   -30.7953 -30.7953 -30.7952 -30.7952 -30.7950 -30.7950 -30.7949 -30.7949
   -30.7795 -30.7794 -30.7793 -30.7792 -30.7790 -30.7789 -30.7788 -30.7788
   -30.7787 -30.7787 -30.7787 -30.7786 -30.7785 -30.7782 -30.7782 -30.7781
   -30.7079 -30.7078 -30.7076 -30.7075 -30.6692 -30.6692 -30.6691 -30.6690
   -30.6294 -30.6293 -30.6293 -30.6293 -30.6293 -30.6293 -30.6292 -30.6292
   -30.6281 -30.6281 -30.6279 -30.6279 -30.6276 -30.6276 -30.6274 -30.6273
   -30.6257 -30.6257 -30.6256 -30.6255 -30.5876 -30.5875 -30.5873 -30.5872
   -30.5857 -30.5857 -30.5856 -30.5854 -30.5853 -30.5850 -30.5850 -30.5849
   -30.5837 -30.5837 -30.5837 -30.5837 -30.5689 -30.5688 -30.5688 -30.5685
   -30.5685 -30.5682 -30.5682 -30.5681 -30.5603 -30.5603 -30.5603 -30.5602
   -30.5194 -30.5194 -30.5194 -30.5194 -30.5145 -30.5143 -30.5140 -30.5138
   -30.5122 -30.5119 -30.5116 -30.5113 -30.4959 -30.4959 -30.4959 -30.4959
    13.6347  13.6352  13.6356  13.6361  14.1238  14.1240  14.1243  14.1245
    14.6441  14.6441  14.6442  14.6442  14.6655  14.6656  14.6656  14.6657
    14.6661  14.6662  14.6663  14.6663  14.6685  14.6686  14.6686  14.6687
    14.8178  14.8179  14.8180  14.8181  14.8182  14.8183  14.8184  14.8185
    15.1296  15.1296  15.1297  15.1298  15.1303  15.1303  15.1304  15.1304
    15.2405  15.2405  15.2406  15.2406  15.6698  15.6698  15.6702  15.6702
    15.6704  15.6704  15.6708  15.6709  15.7950  15.7953  15.7956  15.7959
    16.1100  16.1102  16.1102  16.1103  16.5025  16.5027  16.5029  16.5031
    16.6350  16.6350  16.6350  16.6350  16.6395  16.6397  16.6399  16.6402
    16.7091  16.7093  16.7094  16.7097  16.7218  16.7219  16.7219  16.7220
    16.7220  16.7221  16.7222  16.7222  16.7239  16.7239  16.7242  16.7242
    16.7632  16.7633  16.7633  16.7635  17.0236  17.0237  17.0238  17.0240
    17.0240  17.0241  17.0242  17.0243  17.0862  17.0864  17.0865  17.0867
    17.2441  17.2442  17.2444  17.2446  17.3634  17.3634  17.3635  17.3635
    17.3637  17.3637  17.3638  17.3638  17.7535  17.7537  17.7541  17.7543
    17.9494  17.9496  17.9500  17.9502  17.9792  17.9793  17.9794  17.9796
    17.9796  17.9798  17.9799  17.9800  18.1866  18.1868  18.1871  18.1872
    18.2496  18.2497  18.2500  18.2501  18.4549  18.4550  18.4554  18.4555
    19.0674  19.0675  19.0675  19.0676  19.0676  19.0677  19.0677  19.0678
    19.0812  19.0813  19.0814  19.0815  19.1041  19.1042  19.1042  19.1044
    19.1044  19.1046  19.1046  19.1047  19.1149  19.1150  19.1152  19.1153
    21.0299  21.0302  21.0304  21.0307  22.1874  22.1875  22.1876  22.1877
    22.1879  22.1880  22.1881  22.1882  23.4021  23.4021  23.4022  23.4024
    23.4025  23.4027  23.4028  23.4028  24.5187  24.5190  24.5194  24.5197
    26.9703  26.9704  26.9705  26.9706  26.9708  26.9709  26.9710  26.9711
    27.4787  27.4788  27.4790  27.4790  29.1567  29.1568  29.1569  29.1569
    29.6665  29.6666  29.6667  29.6668  29.6671  29.6672  29.6674  29.6674
    31.2791  31.2799

          k =-0.5000 0.3873-0.5000 ( 33144 PWs)   bands (ev):

   -64.9454 -64.9450 -64.9446 -64.9443 -64.9399 -64.9396 -64.9392 -64.9388
   -64.9146 -64.9143 -64.9139 -64.9135 -64.9113 -64.9113 -64.9111 -64.9110
   -64.9110 -64.9109 -64.9108 -64.9106 -64.9106 -64.9105 -64.9103 -64.9103
   -64.9102 -64.9101 -64.9100 -64.9099 -64.9091 -64.9087 -64.9083 -64.9080
   -30.7916 -30.7916 -30.7915 -30.7914 -30.7913 -30.7912 -30.7911 -30.7911
   -30.7843 -30.7841 -30.7840 -30.7839 -30.7837 -30.7836 -30.7834 -30.7832
   -30.7829 -30.7828 -30.7827 -30.7826 -30.7825 -30.7823 -30.7822 -30.7821
   -30.6872 -30.6871 -30.6869 -30.6868 -30.6502 -30.6501 -30.6500 -30.6499
   -30.6450 -30.6449 -30.6447 -30.6447 -30.6293 -30.6293 -30.6292 -30.6292
   -30.6291 -30.6291 -30.6291 -30.6291 -30.6287 -30.6286 -30.6285 -30.6285
   -30.6283 -30.6283 -30.6281 -30.6281 -30.6083 -30.6082 -30.6080 -30.6079
   -30.5814 -30.5813 -30.5812 -30.5811 -30.5809 -30.5807 -30.5806 -30.5805
   -30.5795 -30.5795 -30.5795 -30.5795 -30.5724 -30.5723 -30.5722 -30.5721
   -30.5719 -30.5717 -30.5716 -30.5716 -30.5676 -30.5676 -30.5676 -30.5675
   -30.5121 -30.5121 -30.5121 -30.5121 -30.5090 -30.5088 -30.5085 -30.5083
   -30.5083 -30.5081 -30.5078 -30.5075 -30.5002 -30.5002 -30.5002 -30.5002
    13.7301  13.7306  13.7309  13.7313  13.9817  13.9821  13.9823  13.9827
    14.6689  14.6690  14.6691  14.6691  14.6695  14.6695  14.6697  14.6697
    14.6752  14.6753  14.6753  14.6754  14.6965  14.6966  14.6967  14.6968
    14.7505  14.7506  14.7507  14.7508  14.7510  14.7511  14.7512  14.7513
    15.2878  15.2879  15.2879  15.2881  15.2884  15.2886  15.2886  15.2887
    15.3288  15.3290  15.3291  15.3292  15.5879  15.5879  15.5882  15.5884
    15.5884  15.5886  15.5889  15.5890  15.6101  15.6104  15.6105  15.6108
    16.2372  16.2374  16.2374  16.2375  16.4762  16.4763  16.4764  16.4766
    16.6557  16.6558  16.6559  16.6560  16.6871  16.6873  16.6874  16.6876
    16.6984  16.6984  16.6986  16.6987  16.7225  16.7225  16.7227  16.7228
    16.7359  16.7360  16.7360  16.7361  16.7758  16.7759  16.7760  16.7760
    16.7762  16.7762  16.7763  16.7764  16.9636  16.9637  16.9639  16.9640
    16.9640  16.9641  16.9642  16.9643  16.9764  16.9766  16.9767  16.9768
    17.4123  17.4125  17.4127  17.4129  17.4534  17.4534  17.4535  17.4535
    17.4537  17.4537  17.4538  17.4539  17.7510  17.7511  17.7511  17.7513
    17.7514  17.7516  17.7516  17.7517  17.7746  17.7748  17.7751  17.7753
    17.9124  17.9126  17.9130  17.9131  18.0978  18.0979  18.0982  18.0983
    18.1241  18.1242  18.1245  18.1247  18.2723  18.2724  18.2728  18.2729
    19.1303  19.1303  19.1304  19.1304  19.1305  19.1305  19.1305  19.1306
    19.1362  19.1364  19.1365  19.1366  19.1576  19.1578  19.1580  19.1581
    19.1663  19.1664  19.1664  19.1666  19.1666  19.1667  19.1667  19.1668
    21.8446  21.8449  21.8452  21.8455  22.4410  22.4411  22.4412  22.4414
    22.4415  22.4417  22.4418  22.4418  23.0763  23.0764  23.0764  23.0767
    23.0767  23.0770  23.0770  23.0771  23.6132  23.6135  23.6138  23.6141
    27.5121  27.5122  27.5122  27.5124  27.5126  27.5127  27.5128  27.5129
    27.7955  27.7956  27.7958  27.7958  28.6489  28.6490  28.6491  28.6492
    28.8737  28.8738  28.8739  28.8740  28.8743  28.8744  28.8745  28.8746
    32.3453  32.3460

          k =-0.5000-0.4979-0.5000 ( 33120 PWs)   bands (ev):

   -64.9430 -64.9428 -64.9426 -64.9425 -64.9422 -64.9421 -64.9419 -64.9417
   -64.9120 -64.9118 -64.9116 -64.9115 -64.9113 -64.9112 -64.9111 -64.9111
   -64.9110 -64.9109 -64.9109 -64.9108 -64.9108 -64.9107 -64.9106 -64.9105
   -64.9105 -64.9103 -64.9102 -64.9102 -64.9101 -64.9100 -64.9099 -64.9097
   -30.7875 -30.7874 -30.7873 -30.7873 -30.7873 -30.7872 -30.7871 -30.7871
   -30.7870 -30.7869 -30.7869 -30.7868 -30.7868 -30.7868 -30.7867 -30.7867
   -30.7856 -30.7856 -30.7854 -30.7854 -30.7851 -30.7851 -30.7849 -30.7848
   -30.6659 -30.6658 -30.6658 -30.6657 -30.6656 -30.6656 -30.6655 -30.6655
   -30.6296 -30.6295 -30.6294 -30.6294 -30.6293 -30.6292 -30.6292 -30.6291
   -30.6291 -30.6291 -30.6291 -30.6290 -30.6290 -30.6290 -30.6289 -30.6289
   -30.6289 -30.6288 -30.6288 -30.6288 -30.6288 -30.6287 -30.6287 -30.6286
   -30.5766 -30.5766 -30.5766 -30.5766 -30.5764 -30.5764 -30.5764 -30.5764
   -30.5761 -30.5761 -30.5761 -30.5760 -30.5759 -30.5759 -30.5758 -30.5758
   -30.5742 -30.5742 -30.5742 -30.5741 -30.5740 -30.5740 -30.5740 -30.5740
   -30.5071 -30.5070 -30.5069 -30.5069 -30.5066 -30.5066 -30.5063 -30.5063
   -30.5057 -30.5056 -30.5056 -30.5056 -30.5055 -30.5055 -30.5054 -30.5054
    13.8478  13.8482  13.8483  13.8485  13.8486  13.8489  13.8490  13.8493
    14.6961  14.6962  14.6962  14.6963  14.6964  14.6965  14.6966  14.6966
    14.6984  14.6985  14.6985  14.6985  14.6986  14.6986  14.6987  14.6987
    14.6990  14.6990  14.6991  14.6991  14.6992  14.6992  14.6992  14.6993
    15.4490  15.4491  15.4493  15.4493  15.4494  15.4494  15.4495  15.4497
    15.4497  15.4498  15.4498  15.4500  15.4501  15.4501  15.4502  15.4502
    15.4523  15.4526  15.4527  15.4528  15.4529  15.4530  15.4532  15.4533
    16.3757  16.3759  16.3759  16.3759  16.3759  16.3760  16.3760  16.3760
    16.6658  16.6659  16.6659  16.6660  16.6661  16.6661  16.6661  16.6663
    16.6989  16.6989  16.6990  16.6990  16.6991  16.6991  16.6992  16.6993
    16.8544  16.8545  16.8545  16.8546  16.8547  16.8547  16.8547  16.8549
    16.8729  16.8730  16.8730  16.8731  16.8731  16.8732  16.8732  16.8732
    16.8733  16.8733  16.8734  16.8734  16.8735  16.8736  16.8736  16.8737
    17.5755  17.5756  17.5757  17.5757  17.5757  17.5758  17.5758  17.5759
    17.5759  17.5760  17.5761  17.5761  17.5761  17.5762  17.5762  17.5763
    17.5917  17.5918  17.5919  17.5920  17.5922  17.5922  17.5923  17.5924
    18.0778  18.0780  18.0780  18.0781  18.0782  18.0784  18.0784  18.0785
    18.0887  18.0888  18.0889  18.0889  18.0892  18.0894  18.0894  18.0895
    19.1640  19.1641  19.1642  19.1642  19.1643  19.1643  19.1644  19.1645
    19.1701  19.1701  19.1701  19.1702  19.1702  19.1702  19.1702  19.1703
    19.1703  19.1704  19.1704  19.1704  19.1704  19.1705  19.1705  19.1705
    22.7115  22.7116  22.7118  22.7119  22.7121  22.7122  22.7124  22.7125
    22.7458  22.7458  22.7459  22.7461  22.7462  22.7462  22.7462  22.7463
    22.7464  22.7465  22.7465  22.7466  22.7466  22.7468  22.7468  22.7469
    28.1515  28.1516  28.1517  28.1517  28.1518  28.1519  28.1520  28.1520
    28.1521  28.1522  28.1522  28.1523  28.1524  28.1525  28.1525  28.1526
    28.1902  28.1904  28.1904  28.1905  28.1906  28.1907  28.1908  28.1909
    33.4418  33.4420

     the Fermi energy is    19.1902 ev

!    total energy              =  -16384.95922029 Ry
     Harris-Foulkes estimate   =  -16384.95920931 Ry
     estimated scf accuracy    <       0.00000058 Ry

     total all-electron energy =   -322945.812927 Ry

     The total energy is the sum of the following terms:

     one-electron contribution =   -2498.34717995 Ry
     hartree contribution      =    1665.03242407 Ry
     xc contribution           =    -986.43248145 Ry
     ewald contribution        =   -6397.82392990 Ry
     one-center paw contrib.   =   -8167.42234824 Ry
     smearing contrib. (-TS)   =       0.03429518 Ry

     convergence has been achieved in  11 iterations

     Forces acting on atoms (cartesian axes, Ry/au):

     atom    1 type  1   force =     0.00000000    0.00000000    0.00000000
     atom    2 type  1   force =    -0.00000417    0.00025717    0.00000000
     atom    3 type  1   force =    -0.00003100    0.00000000   -0.00003100
     atom    4 type  1   force =     0.00000000    0.00025717   -0.00000417
     atom    5 type  1   force =     0.00000000    0.00000000    0.00000000
     atom    6 type  1   force =     0.00004430    0.00043189   -0.00000000
     atom    7 type  1   force =    -0.00003100    0.00000000    0.00003100
     atom    8 type  1   force =     0.00000000    0.00025717    0.00000417
     atom    9 type  1   force =     0.00000000    0.00000000    0.00000000
     atom   10 type  1   force =    -0.00000417   -0.00025717    0.00000000
     atom   11 type  1   force =     0.00006093    0.00000000    0.00006093
     atom   12 type  1   force =     0.00000000   -0.00025717   -0.00000417
     atom   13 type  1   force =     0.00000000    0.00000000    0.00000000
     atom   14 type  1   force =     0.00004430   -0.00043189    0.00000000
     atom   15 type  1   force =     0.00006093    0.00000000   -0.00006093
     atom   16 type  1   force =     0.00000000   -0.00025717    0.00000417
     atom   17 type  1   force =     0.00000000    0.00000000   -0.00000000
     atom   18 type  1   force =     0.00000417    0.00025717   -0.00000000
     atom   19 type  1   force =     0.00003100    0.00000000   -0.00003100
     atom   20 type  1   force =     0.00000000    0.00043189    0.00004430
     atom   21 type  1   force =     0.00000000   -0.00000000    0.00000000
     atom   22 type  1   force =    -0.00004430    0.00043189    0.00000000
     atom   23 type  1   force =     0.00003100    0.00000000    0.00003100
     atom   24 type  1   force =     0.00000000    0.00043189   -0.00004430
     atom   25 type  1   force =     0.00000000    0.00000000   -0.00000000
     atom   26 type  1   force =     0.00000417   -0.00025717    0.00000000
     atom   27 type  1   force =    -0.00006093    0.00000000    0.00006093
     atom   28 type  1   force =     0.00000000   -0.00043189    0.00004430
     atom   29 type  1   force =     0.00000000    0.00000000    0.00000000
     atom   30 type  1   force =    -0.00004430   -0.00043189   -0.00000000
     atom   31 type  1   force =    -0.00006093    0.00000000   -0.00006093
     atom   32 type  1   force =     0.00000000   -0.00043189   -0.00004430

     Total force =     0.001440     Total SCF correction =     0.007250
     SCF correction compared to forces is large: reduce conv_thr to get better values


     Computing stress (Cartesian axis) and pressure

          total   stress  (Ry/bohr**3)                   (kbar)     P=   -5.59
  -0.00003108   0.00000000   0.00000000         -4.57      0.00      0.00
   0.00000000  -0.00005182   0.00000000          0.00     -7.62      0.00
   0.00000000   0.00000000  -0.00003108          0.00      0.00     -4.57


     Writing output data file GGIepgAhvmxNryLC.save/
 
     init_run     :     40.88s CPU     44.35s WALL (       1 calls)
     electrons    :   1951.14s CPU   2056.17s WALL (       1 calls)
     forces       :     18.81s CPU     19.52s WALL (       1 calls)
     stress       :    184.64s CPU    185.42s WALL (       1 calls)

     Called by init_run:
     wfcinit      :     40.11s CPU     43.51s WALL (       1 calls)
     potinit      :      0.37s CPU      0.38s WALL (       1 calls)
     hinit0       :      0.22s CPU      0.24s WALL (       1 calls)

     Called by electrons:
     c_bands      :   1773.12s CPU   1859.05s WALL (      12 calls)
     sum_band     :    174.02s CPU    192.68s WALL (      12 calls)
     v_of_rho     :      0.34s CPU      0.37s WALL (      12 calls)
     newd         :      0.82s CPU      1.11s WALL (      12 calls)
     PAW_pot      :      3.03s CPU      3.10s WALL (      12 calls)
     mix_rho      :      0.08s CPU      0.10s WALL (      12 calls)

     Called by c_bands:
     init_us_2    :     10.64s CPU     10.69s WALL (    2025 calls)
     cegterg      :   1712.95s CPU   1798.54s WALL (     900 calls)

     Called by sum_band:
     sum_band:bec :      1.35s CPU      1.36s WALL (     900 calls)
     addusdens    :      0.94s CPU      1.26s WALL (      12 calls)

     Called by *egterg:
     h_psi        :    696.05s CPU    772.92s WALL (    2639 calls)
     s_psi        :     87.11s CPU     87.41s WALL (    2639 calls)
     g_psi        :      2.50s CPU      2.51s WALL (    1664 calls)
     cdiaghg      :    656.80s CPU    659.19s WALL (    2489 calls)

     Called by h_psi:
     h_psi:pot    :    689.44s CPU    766.01s WALL (    2639 calls)
     h_psi:calbec :     88.46s CPU     92.68s WALL (    2639 calls)
     vloc_psi     :    514.80s CPU    586.75s WALL (    2639 calls)
     add_vuspsi   :     86.15s CPU     86.57s WALL (    2639 calls)

     General routines
     calbec       :    144.40s CPU    151.34s WALL (    3914 calls)
     fft          :      0.32s CPU      0.36s WALL (     181 calls)
     ffts         :      0.03s CPU      0.03s WALL (      24 calls)
     fftw         :    598.76s CPU    682.19s WALL ( 1695714 calls)
     interpolate  :      0.04s CPU      0.05s WALL (      12 calls)
 
     Parallel routines
     fft_scatt_xy :     48.67s CPU     54.50s WALL ( 1695919 calls)
     fft_scatt_yz :    394.93s CPU    454.32s WALL ( 1695919 calls)
 
     PWSCF        : 36m42.20s CPU    40m 4.68s WALL

 
   This run was terminated on:  17:19:58  11Nov2020            

=------------------------------------------------------------------------------=
   JOB DONE.
=------------------------------------------------------------------------------=
