--------------------------------------------------------------------------
WARNING: No preset parameters were found for the device that Open MPI
detected:

  Local host:            bear-pg0206u14b
  Device name:           mlx5_0
  Device vendor ID:      0x02c9
  Device vendor part ID: 4123

Default device parameters will be used, which may result in lower
performance.  You can edit any of the files specified by the
btl_openib_device_param_files MCA parameter to set values for your
device.

NOTE: You can turn off this warning by setting the MCA parameter
      btl_openib_warn_no_device_params_found to 0.
--------------------------------------------------------------------------
--------------------------------------------------------------------------
WARNING: There was an error initializing an OpenFabrics device.

  Local host:   bear-pg0206u14b
  Local device: mlx5_0
--------------------------------------------------------------------------

     Program PWSCF v.6.3 starts on 11Nov2020 at 17:20: 0 

     This program is part of the open-source Quantum ESPRESSO suite
     for quantum simulation of materials; please cite
         "P. Giannozzi et al., J. Phys.:Condens. Matter 21 395502 (2009);
         "P. Giannozzi et al., J. Phys.:Condens. Matter 29 465901 (2017);
          URL http://www.quantum-espresso.org", 
     in publications or presentations arising from this work. More details at
     http://www.quantum-espresso.org/quote

     Parallel version (MPI & OpenMP), running on      20 processor cores
     Number of MPI processes:                20
     Threads/MPI process:                     1

     MPI processes distributed on     1 nodes
     R & G space division:  proc/nbgrp/npool/nimage =      20
     Reading input from wd/ec/ec_2_007.in
Warning: card &IONS ignored
Warning: card ION_DYNAMICS = 'BFGS', ignored
Warning: card / ignored
Warning: card &CELL ignored
Warning: card CELL_DYNAMICS = 'BFGS', ignored
Warning: card CELL_FACTOR = 2.0, ignored
Warning: card PRESS = 0.0, ignored
Warning: card / ignored

     Current dimensions of program PWSCF are:
     Max number of different atomic species (ntypx) = 10
     Max number of k-points (npk) =  40000
     Max angular momentum in pseudopotentials (lmaxx) =  3
               file Pd.pbe-spn-kjpaw_psl.1.0.0.UPF: wavefunction(s)  4S 5S 4D renormalized

     Subspace diagonalization in iterative solution of the eigenvalue problem:
     a serial algorithm will be used

 
     Parallelization info
     --------------------
     sticks:   dense  smooth     PW     G-vecs:    dense   smooth      PW
     Min         378     249     67                24714    13261    1879
     Max         379     250     68                24717    13264    1884
     Sum        7563    4995   1357               494291   265261   37657
 


     bravais-lattice index     =            0
     lattice parameter (alat)  =      14.8394  a.u.
     unit-cell volume          =    3284.1034 (a.u.)^3
     number of atoms/cell      =           32
     number of atomic types    =            1
     number of electrons       =       576.00
     number of Kohn-Sham states=          346
     kinetic-energy cutoff     =      71.0000  Ry
     charge density cutoff     =     430.0000  Ry
     convergence threshold     =      1.0E-06
     mixing beta               =       0.1000
     number of iterations used =           10  plain     mixing
     Exchange-correlation      = SLA PW PBX PBC ( 1  4  3  4 0 0)

     celldm(1)=  14.839420  celldm(2)=   0.000000  celldm(3)=   0.000000
     celldm(4)=   0.000000  celldm(5)=   0.000000  celldm(6)=   0.000000

     crystal axes: (cart. coord. in units of alat)
               a(1) = (   1.000000   0.000000   0.000000 )  
               a(2) = (   0.000000   1.005000   0.000000 )  
               a(3) = (   0.000000   0.000000   1.000000 )  

     reciprocal axes: (cart. coord. in units 2 pi/alat)
               b(1) = (  1.000000  0.000000  0.000000 )  
               b(2) = (  0.000000  0.995025  0.000000 )  
               b(3) = (  0.000000  0.000000  1.000000 )  


     PseudoPot. # 1 for Pd read from file:
     /rds/homes/b/bxp912/pp/Pd.pbe-spn-kjpaw_psl.1.0.0.UPF
     MD5 check sum: 790f2ebce206edfd9790dcb9844eca51
     Pseudo is Projector augmented-wave + core cor, Zval = 18.0
     Generated using "atomic" code by A. Dal Corso v.6.3
     Shape of augmentation charge: PSQ
     Using radial grid of 1235 points,  6 beta functions with: 
                l(1) =   0
                l(2) =   0
                l(3) =   1
                l(4) =   1
                l(5) =   2
                l(6) =   2
     Q(r) pseudized with 0 coefficients 


     atomic species   valence    mass     pseudopotential
        Pd            18.00   106.42000     Pd( 1.00)

     16 Sym. Ops., with inversion, found



   Cartesian axes

     site n.     atom                  positions (alat units)
         1           Pd  tau(   1) = (   0.0000000   0.0000000   0.0000000  )
         2           Pd  tau(   2) = (   0.2500045   0.2512545   0.0000000  )
         3           Pd  tau(   3) = (   0.2500045   0.0000000   0.2500040  )
         4           Pd  tau(   4) = (   0.0000000   0.2512545   0.2500040  )
         5           Pd  tau(   5) = (   0.0000000   0.0000000   0.4999990  )
         6           Pd  tau(   6) = (   0.2500116   0.2512617   0.4999990  )
         7           Pd  tau(   7) = (   0.2500045   0.0000000   0.7499950  )
         8           Pd  tau(   8) = (   0.0000000   0.2512545   0.7499950  )
         9           Pd  tau(   9) = (   0.0000000   0.5024998   0.0000000  )
        10           Pd  tau(  10) = (   0.2500045   0.7537452   0.0000000  )
        11           Pd  tau(  11) = (   0.2500116   0.5024998   0.2500109  )
        12           Pd  tau(  12) = (   0.0000000   0.7537452   0.2500040  )
        13           Pd  tau(  13) = (   0.0000000   0.5024998   0.4999990  )
        14           Pd  tau(  14) = (   0.2500116   0.7537380   0.4999990  )
        15           Pd  tau(  15) = (   0.2500116   0.5024998   0.7499881  )
        16           Pd  tau(  16) = (   0.0000000   0.7537452   0.7499950  )
        17           Pd  tau(  17) = (   0.4999998   0.0000000   0.0000000  )
        18           Pd  tau(  18) = (   0.7499952   0.2512545   0.0000000  )
        19           Pd  tau(  19) = (   0.7499952   0.0000000   0.2500040  )
        20           Pd  tau(  20) = (   0.4999998   0.2512617   0.2500109  )
        21           Pd  tau(  21) = (   0.4999998   0.0000000   0.4999990  )
        22           Pd  tau(  22) = (   0.7499881   0.2512617   0.4999990  )
        23           Pd  tau(  23) = (   0.7499952   0.0000000   0.7499950  )
        24           Pd  tau(  24) = (   0.4999998   0.2512617   0.7499881  )
        25           Pd  tau(  25) = (   0.4999998   0.5024998   0.0000000  )
        26           Pd  tau(  26) = (   0.7499952   0.7537452   0.0000000  )
        27           Pd  tau(  27) = (   0.7499881   0.5024998   0.2500109  )
        28           Pd  tau(  28) = (   0.4999998   0.7537380   0.2500109  )
        29           Pd  tau(  29) = (   0.4999998   0.5024998   0.4999990  )
        30           Pd  tau(  30) = (   0.7499881   0.7537380   0.4999990  )
        31           Pd  tau(  31) = (   0.7499881   0.5024998   0.7499881  )
        32           Pd  tau(  32) = (   0.4999998   0.7537380   0.7499881  )

     number of k points=    75  Marzari-Vanderbilt smearing, width (Ry)=  0.0400
                       cart. coord. in units 2pi/alat
        k(    1) = (   0.0555556   0.0552792   0.0555556), wk =   0.0219479
        k(    2) = (   0.0555556   0.0552792   0.1666667), wk =   0.0438957
        k(    3) = (   0.0555556   0.0552792   0.2777778), wk =   0.0438957
        k(    4) = (   0.0555556   0.0552792   0.3888889), wk =   0.0438957
        k(    5) = (   0.0555556   0.0552792  -0.5000000), wk =   0.0219479
        k(    6) = (   0.0555556   0.1658375   0.0555556), wk =   0.0219479
        k(    7) = (   0.0555556   0.1658375   0.1666667), wk =   0.0438957
        k(    8) = (   0.0555556   0.1658375   0.2777778), wk =   0.0438957
        k(    9) = (   0.0555556   0.1658375   0.3888889), wk =   0.0438957
        k(   10) = (   0.0555556   0.1658375  -0.5000000), wk =   0.0219479
        k(   11) = (   0.0555556   0.2763958   0.0555556), wk =   0.0219479
        k(   12) = (   0.0555556   0.2763958   0.1666667), wk =   0.0438957
        k(   13) = (   0.0555556   0.2763958   0.2777778), wk =   0.0438957
        k(   14) = (   0.0555556   0.2763958   0.3888889), wk =   0.0438957
        k(   15) = (   0.0555556   0.2763958  -0.5000000), wk =   0.0219479
        k(   16) = (   0.0555556   0.3869541   0.0555556), wk =   0.0219479
        k(   17) = (   0.0555556   0.3869541   0.1666667), wk =   0.0438957
        k(   18) = (   0.0555556   0.3869541   0.2777778), wk =   0.0438957
        k(   19) = (   0.0555556   0.3869541   0.3888889), wk =   0.0438957
        k(   20) = (   0.0555556   0.3869541  -0.5000000), wk =   0.0219479
        k(   21) = (   0.0555556  -0.4975124   0.0555556), wk =   0.0109739
        k(   22) = (   0.0555556  -0.4975124   0.1666667), wk =   0.0219479
        k(   23) = (   0.0555556  -0.4975124   0.2777778), wk =   0.0219479
        k(   24) = (   0.0555556  -0.4975124   0.3888889), wk =   0.0219479
        k(   25) = (   0.0555556  -0.4975124  -0.5000000), wk =   0.0109739
        k(   26) = (   0.1666667   0.0552792   0.1666667), wk =   0.0219479
        k(   27) = (   0.1666667   0.0552792   0.2777778), wk =   0.0438957
        k(   28) = (   0.1666667   0.0552792   0.3888889), wk =   0.0438957
        k(   29) = (   0.1666667   0.0552792  -0.5000000), wk =   0.0219479
        k(   30) = (   0.1666667   0.1658375   0.1666667), wk =   0.0219479
        k(   31) = (   0.1666667   0.1658375   0.2777778), wk =   0.0438957
        k(   32) = (   0.1666667   0.1658375   0.3888889), wk =   0.0438957
        k(   33) = (   0.1666667   0.1658375  -0.5000000), wk =   0.0219479
        k(   34) = (   0.1666667   0.2763958   0.1666667), wk =   0.0219479
        k(   35) = (   0.1666667   0.2763958   0.2777778), wk =   0.0438957
        k(   36) = (   0.1666667   0.2763958   0.3888889), wk =   0.0438957
        k(   37) = (   0.1666667   0.2763958  -0.5000000), wk =   0.0219479
        k(   38) = (   0.1666667   0.3869541   0.1666667), wk =   0.0219479
        k(   39) = (   0.1666667   0.3869541   0.2777778), wk =   0.0438957
        k(   40) = (   0.1666667   0.3869541   0.3888889), wk =   0.0438957
        k(   41) = (   0.1666667   0.3869541  -0.5000000), wk =   0.0219479
        k(   42) = (   0.1666667  -0.4975124   0.1666667), wk =   0.0109739
        k(   43) = (   0.1666667  -0.4975124   0.2777778), wk =   0.0219479
        k(   44) = (   0.1666667  -0.4975124   0.3888889), wk =   0.0219479
        k(   45) = (   0.1666667  -0.4975124  -0.5000000), wk =   0.0109739
        k(   46) = (   0.2777778   0.0552792   0.2777778), wk =   0.0219479
        k(   47) = (   0.2777778   0.0552792   0.3888889), wk =   0.0438957
        k(   48) = (   0.2777778   0.0552792  -0.5000000), wk =   0.0219479
        k(   49) = (   0.2777778   0.1658375   0.2777778), wk =   0.0219479
        k(   50) = (   0.2777778   0.1658375   0.3888889), wk =   0.0438957
        k(   51) = (   0.2777778   0.1658375  -0.5000000), wk =   0.0219479
        k(   52) = (   0.2777778   0.2763958   0.2777778), wk =   0.0219479
        k(   53) = (   0.2777778   0.2763958   0.3888889), wk =   0.0438957
        k(   54) = (   0.2777778   0.2763958  -0.5000000), wk =   0.0219479
        k(   55) = (   0.2777778   0.3869541   0.2777778), wk =   0.0219479
        k(   56) = (   0.2777778   0.3869541   0.3888889), wk =   0.0438957
        k(   57) = (   0.2777778   0.3869541  -0.5000000), wk =   0.0219479
        k(   58) = (   0.2777778  -0.4975124   0.2777778), wk =   0.0109739
        k(   59) = (   0.2777778  -0.4975124   0.3888889), wk =   0.0219479
        k(   60) = (   0.2777778  -0.4975124  -0.5000000), wk =   0.0109739
        k(   61) = (   0.3888889   0.0552792   0.3888889), wk =   0.0219479
        k(   62) = (   0.3888889   0.0552792  -0.5000000), wk =   0.0219479
        k(   63) = (   0.3888889   0.1658375   0.3888889), wk =   0.0219479
        k(   64) = (   0.3888889   0.1658375  -0.5000000), wk =   0.0219479
        k(   65) = (   0.3888889   0.2763958   0.3888889), wk =   0.0219479
        k(   66) = (   0.3888889   0.2763958  -0.5000000), wk =   0.0219479
        k(   67) = (   0.3888889   0.3869541   0.3888889), wk =   0.0219479
        k(   68) = (   0.3888889   0.3869541  -0.5000000), wk =   0.0219479
        k(   69) = (   0.3888889  -0.4975124   0.3888889), wk =   0.0109739
        k(   70) = (   0.3888889  -0.4975124  -0.5000000), wk =   0.0109739
        k(   71) = (  -0.5000000   0.0552792  -0.5000000), wk =   0.0054870
        k(   72) = (  -0.5000000   0.1658375  -0.5000000), wk =   0.0054870
        k(   73) = (  -0.5000000   0.2763958  -0.5000000), wk =   0.0054870
        k(   74) = (  -0.5000000   0.3869541  -0.5000000), wk =   0.0054870
        k(   75) = (  -0.5000000  -0.4975124  -0.5000000), wk =   0.0027435

     Dense  grid:   494291 G-vectors     FFT dimensions: ( 100, 100, 100)

     Smooth grid:   265261 G-vectors     FFT dimensions: (  80,  81,  80)

     Estimated max dynamical RAM per process >     894.66 MB

     Estimated total dynamical RAM >      17.47 GB

     Check: negative/imaginary core charge=   -0.000002    0.000000

     Initial potential from superposition of free atoms

     starting charge  575.98776, renormalised to  576.00000
     Starting wfcs are  320 randomized atomic wfcs +   26 random wfcs
     Checking if some PAW data can be deallocated... 

     total cpu time spent up to now is       47.2 secs

     Self-consistent Calculation

     iteration #  1     ecut=    71.00 Ry     beta= 0.10
     Davidson diagonalization with overlap
     ethr =  1.00E-02,  avg # of iterations =  3.1

     Threshold (ethr) on eigenvalues was too large:
     Diagonalizing with lowered threshold

     Davidson diagonalization with overlap
     ethr =  8.59E-05,  avg # of iterations =  3.2

     total cpu time spent up to now is      508.2 secs

     total energy              =  -16385.02297885 Ry
     Harris-Foulkes estimate   =  -16385.09275667 Ry
     estimated scf accuracy    <       0.48871316 Ry

     iteration #  2     ecut=    71.00 Ry     beta= 0.10
     Davidson diagonalization with overlap
     ethr =  8.48E-05,  avg # of iterations =  1.0

     total cpu time spent up to now is      649.2 secs

     total energy              =  -16384.93066013 Ry
     Harris-Foulkes estimate   =  -16385.03102332 Ry
     estimated scf accuracy    <       0.26561524 Ry

     iteration #  3     ecut=    71.00 Ry     beta= 0.10
     Davidson diagonalization with overlap
     ethr =  4.61E-05,  avg # of iterations =  2.1

     total cpu time spent up to now is      839.8 secs

     total energy              =  -16384.96195520 Ry
     Harris-Foulkes estimate   =  -16384.96914073 Ry
     estimated scf accuracy    <       0.09378060 Ry

     iteration #  4     ecut=    71.00 Ry     beta= 0.10
     Davidson diagonalization with overlap
     ethr =  1.63E-05,  avg # of iterations =  1.3

     total cpu time spent up to now is      989.2 secs

     total energy              =  -16384.96307788 Ry
     Harris-Foulkes estimate   =  -16384.96547231 Ry
     estimated scf accuracy    <       0.02189668 Ry

     iteration #  5     ecut=    71.00 Ry     beta= 0.10
     Davidson diagonalization with overlap
     ethr =  3.80E-06,  avg # of iterations =  1.6

     total cpu time spent up to now is     1145.7 secs

     total energy              =  -16384.95818725 Ry
     Harris-Foulkes estimate   =  -16384.96326918 Ry
     estimated scf accuracy    <       0.01456143 Ry

     iteration #  6     ecut=    71.00 Ry     beta= 0.10
     Davidson diagonalization with overlap
     ethr =  2.53E-06,  avg # of iterations =  1.1

     total cpu time spent up to now is     1288.4 secs

     total energy              =  -16384.95921496 Ry
     Harris-Foulkes estimate   =  -16384.95930790 Ry
     estimated scf accuracy    <       0.00120475 Ry

     iteration #  7     ecut=    71.00 Ry     beta= 0.10
     Davidson diagonalization with overlap
     ethr =  2.09E-07,  avg # of iterations =  3.1

     total cpu time spent up to now is     1508.5 secs

     total energy              =  -16384.95931868 Ry
     Harris-Foulkes estimate   =  -16384.95935067 Ry
     estimated scf accuracy    <       0.00014271 Ry

     iteration #  8     ecut=    71.00 Ry     beta= 0.10
     Davidson diagonalization with overlap
     ethr =  2.48E-08,  avg # of iterations =  1.0

     total cpu time spent up to now is     1648.5 secs

     total energy              =  -16384.95931632 Ry
     Harris-Foulkes estimate   =  -16384.95932260 Ry
     estimated scf accuracy    <       0.00005591 Ry

     iteration #  9     ecut=    71.00 Ry     beta= 0.10
     Davidson diagonalization with overlap
     ethr =  9.71E-09,  avg # of iterations =  1.0

     total cpu time spent up to now is     1789.0 secs

     total energy              =  -16384.95931519 Ry
     Harris-Foulkes estimate   =  -16384.95931744 Ry
     estimated scf accuracy    <       0.00003728 Ry

     iteration # 10     ecut=    71.00 Ry     beta= 0.10
     Davidson diagonalization with overlap
     ethr =  6.47E-09,  avg # of iterations =  2.0

     total cpu time spent up to now is     1987.6 secs

     total energy              =  -16384.95932257 Ry
     Harris-Foulkes estimate   =  -16384.95931975 Ry
     estimated scf accuracy    <       0.00000110 Ry

     iteration # 11     ecut=    71.00 Ry     beta= 0.10
     Davidson diagonalization with overlap
     ethr =  1.91E-10,  avg # of iterations =  2.0

     total cpu time spent up to now is     2163.3 secs

     End of self-consistent calculation

          k = 0.0556 0.0553 0.0556 ( 33154 PWs)   bands (ev):

   -64.9847 -64.9566 -64.9561 -64.9561 -64.9512 -64.9506 -64.9506 -64.9408
   -64.9407 -64.9407 -64.9385 -64.9381 -64.9380 -64.9379 -64.9378 -64.9377
   -64.9377 -64.9375 -64.9374 -64.9369 -64.9353 -64.9352 -64.9351 -64.9235
   -64.9226 -64.9225 -64.9224 -64.9223 -64.9220 -64.9219 -64.9218 -64.9215
   -30.8660 -30.8660 -30.8659 -30.8641 -30.8463 -30.8463 -30.8445 -30.7715
   -30.7682 -30.7681 -30.7674 -30.7673 -30.7640 -30.7639 -30.7637 -30.7637
   -30.7597 -30.7561 -30.7561 -30.7540 -30.7539 -30.7516 -30.7515 -30.7509
   -30.7508 -30.7359 -30.7359 -30.7330 -30.7330 -30.7325 -30.7325 -30.6939
   -30.6939 -30.6925 -30.6700 -30.6700 -30.6684 -30.6639 -30.6639 -30.6629
   -30.6550 -30.6550 -30.6545 -30.6545 -30.6534 -30.6533 -30.6412 -30.6410
   -30.6400 -30.6400 -30.6395 -30.6395 -30.6390 -30.6390 -30.6386 -30.6371
   -30.6371 -30.6360 -30.6358 -30.6357 -30.6344 -30.5761 -30.5760 -30.5733
   -30.5733 -30.5732 -30.5729 -30.5636 -30.5636 -30.5613 -30.5613 -30.5611
   -30.5611 -30.5594 -30.5593 -30.5571 -30.5556 -30.5550 -30.5548 -30.5542
   -30.5542 -30.5541 -30.5538 -30.5533 -30.5525 -30.5525 -30.5523 -30.5522
   -30.5517 -30.5507 -30.5473 -30.5472 -30.5453 -30.5017 -30.4994 -30.4994
    12.2021  13.9618  13.9620  13.9620  14.0273  14.0410  14.0410  14.0410
    14.2142  14.2312  14.2313  14.2348  14.2351  14.2351  14.4102  14.4267
    14.4268  14.9571  14.9572  14.9740  14.9741  14.9743  14.9744  15.1094
    15.1263  15.1264  15.2661  15.2671  15.2672  15.2922  15.3127  15.3128
    15.3475  15.3476  15.3487  15.3501  15.3502  15.3506  15.3507  15.3534
    15.3535  15.6845  15.6846  15.6948  15.6948  15.6983  15.6984  15.7880
    15.8045  15.8045  15.8089  15.8089  15.8258  15.8259  15.8281  15.8281
    15.8648  15.8838  15.8839  16.0364  16.0364  16.0482  16.0482  16.0529
    16.0530  16.1478  16.1478  16.1530  16.1531  16.1535  16.1536  16.1584
    16.1607  16.1607  16.2617  16.2618  16.2643  16.3049  16.3227  16.3227
    16.3254  16.3565  16.3603  16.3604  16.3679  16.3784  16.3977  16.4087
    17.1684  17.1936  17.1936  17.2424  17.2424  17.2530  17.3143  17.3144
    17.3158  17.3159  17.3214  17.3215  17.3242  17.3242  17.3294  17.3533
    17.3808  17.3809  17.4676  17.4677  17.4860  17.5904  17.5905  17.5956
    17.7102  17.7103  17.7271  17.7681  17.7682  17.7829  17.8432  17.8432
    17.8476  17.8476  17.8481  17.8482  17.8646  17.8646  17.8667  17.8882
    17.9150  17.9150  17.9158  17.9159  17.9285  17.9286  17.9351  18.0237
    18.0238  18.0368  18.4051  18.4051  18.4259  18.5070  18.5071  18.5248
    18.8894  18.8894  18.9033  19.0153  19.0153  19.0178  19.0333  19.0524
    19.0531  19.0681  19.0681  19.2883  19.2887  19.2887  19.3359  19.3359
    19.3371  19.3371  19.3462  19.3530  19.3530  19.3617  19.3618  20.0255
    20.3289  20.3289  20.3291  20.8285  20.8285  20.8566  21.3340  21.3341
    21.3357  21.3358  21.3686  21.3686  21.8607  21.8607  21.8994  22.4041
    22.4978  22.4978  26.1851  26.1851  26.1859  26.3422  27.3024  27.3025
    27.3455  27.3455  27.3888  27.3889  27.9933  27.9934  28.0339  28.0339
    28.0802  28.0804  29.4089  29.4089  29.4269  29.4269  29.4707  29.4707
    29.5061  29.6374  29.6374  30.5094  30.5808  30.5809  30.5962  30.5962
    30.6266  30.6268

          k = 0.0556 0.0553 0.1667 ( 33153 PWs)   bands (ev):

   -64.9838 -64.9615 -64.9561 -64.9556 -64.9508 -64.9502 -64.9452 -64.9437
   -64.9436 -64.9407 -64.9403 -64.9401 -64.9386 -64.9385 -64.9378 -64.9376
   -64.9372 -64.9369 -64.9352 -64.9348 -64.9347 -64.9329 -64.9327 -64.9235
   -64.9231 -64.9229 -64.9227 -64.9225 -64.9224 -64.9224 -64.9223 -64.9216
   -30.8632 -30.8616 -30.8615 -30.8583 -30.8431 -30.8414 -30.8412 -30.7797
   -30.7747 -30.7744 -30.7732 -30.7723 -30.7703 -30.7694 -30.7693 -30.7685
   -30.7666 -30.7607 -30.7573 -30.7569 -30.7554 -30.7527 -30.7498 -30.7498
   -30.7460 -30.7384 -30.7360 -30.7326 -30.7292 -30.7232 -30.7150 -30.7148
   -30.6988 -30.6971 -30.6852 -30.6834 -30.6701 -30.6698 -30.6687 -30.6678
   -30.6579 -30.6443 -30.6439 -30.6426 -30.6400 -30.6397 -30.6392 -30.6388
   -30.6384 -30.6384 -30.6374 -30.6341 -30.6340 -30.6339 -30.6337 -30.6330
   -30.6322 -30.6317 -30.6302 -30.6251 -30.6241 -30.5883 -30.5851 -30.5761
   -30.5758 -30.5729 -30.5703 -30.5667 -30.5645 -30.5639 -30.5638 -30.5633
   -30.5615 -30.5600 -30.5599 -30.5592 -30.5584 -30.5580 -30.5569 -30.5549
   -30.5546 -30.5542 -30.5539 -30.5539 -30.5527 -30.5514 -30.5514 -30.5511
   -30.5498 -30.5494 -30.5474 -30.5426 -30.5410 -30.5081 -30.5014 -30.5008
    12.2755  13.9320  13.9963  14.0081  14.0082  14.0551  14.0823  14.0824
    14.0958  14.2629  14.2659  14.2767  14.2769  14.2823  14.4625  14.4785
    14.4964  14.8878  14.8886  14.9482  14.9927  14.9990  15.0086  15.0153
    15.0374  15.1185  15.1187  15.1359  15.1516  15.1583  15.1618  15.1630
    15.3086  15.3091  15.3146  15.3337  15.3361  15.3421  15.3700  15.3812
    15.4190  15.4230  15.5020  15.6802  15.6847  15.6875  15.6980  15.7320
    15.7415  15.7433  15.7534  15.7987  15.8167  15.8886  15.9006  15.9171
    15.9610  15.9659  16.0045  16.0108  16.0153  16.0166  16.0213  16.0409
    16.0532  16.0925  16.0994  16.1208  16.1257  16.2894  16.2925  16.3026
    16.3032  16.3213  16.3239  16.3241  16.3399  16.3483  16.3687  16.3726
    16.3767  16.3785  16.3936  16.4005  16.4074  16.4208  16.4390  16.4401
    16.9833  16.9967  17.1013  17.1156  17.1177  17.1338  17.1811  17.1813
    17.1992  17.2421  17.2681  17.2782  17.3895  17.3971  17.4062  17.4124
    17.4176  17.4509  17.4564  17.4600  17.4716  17.6672  17.6805  17.6954
    17.6977  17.7080  17.7637  17.7639  17.8401  17.8441  17.8494  17.8498
    17.8539  17.8602  17.8739  17.9254  17.9270  17.9429  17.9443  17.9634
    18.0583  18.0612  18.0635  18.0645  18.0992  18.1094  18.1545  18.1712
    18.1821  18.2113  18.3066  18.4508  18.4688  18.5801  18.5809  18.5937
    18.6098  18.6271  18.6401  18.8430  18.9554  18.9564  18.9813  18.9918
    19.0302  19.0404  19.0455  19.0560  19.0757  19.2201  19.2666  19.2670
    19.2892  19.2902  19.2907  19.3320  19.3347  19.3381  19.3426  20.0115
    20.3680  20.3908  20.4948  20.4949  20.7250  20.8003  20.8471  20.8770
    21.3121  21.3139  21.8427  21.9016  21.9383  22.1345  22.4389  22.4807
    22.6967  22.7873  26.1848  26.3443  26.3464  26.5871  26.6374  26.6400
    26.6727  26.6775  27.2276  27.2687  27.4353  27.4787  28.1167  28.1591
    28.6320  28.7142  29.4441  29.4913  29.4936  29.6224  29.6229  29.6855
    29.7780  29.7789  29.8537  29.9850  30.0568  30.0929  30.1620  30.1661
    30.5316  30.6569

          k = 0.0556 0.0553 0.2778 ( 33147 PWs)   bands (ev):

   -64.9819 -64.9666 -64.9550 -64.9546 -64.9499 -64.9493 -64.9466 -64.9463
   -64.9427 -64.9424 -64.9406 -64.9401 -64.9390 -64.9385 -64.9378 -64.9376
   -64.9369 -64.9368 -64.9353 -64.9321 -64.9319 -64.9306 -64.9303 -64.9249
   -64.9239 -64.9237 -64.9235 -64.9233 -64.9232 -64.9226 -64.9223 -64.9216
   -30.8563 -30.8533 -30.8531 -30.8486 -30.8369 -30.8353 -30.8315 -30.7968
   -30.7912 -30.7909 -30.7865 -30.7855 -30.7830 -30.7745 -30.7724 -30.7721
   -30.7701 -30.7622 -30.7611 -30.7531 -30.7520 -30.7510 -30.7510 -30.7482
   -30.7389 -30.7377 -30.7367 -30.7339 -30.7266 -30.7234 -30.7075 -30.7052
   -30.6996 -30.6978 -30.6977 -30.6976 -30.6839 -30.6817 -30.6812 -30.6791
   -30.6477 -30.6465 -30.6399 -30.6397 -30.6388 -30.6375 -30.6346 -30.6343
   -30.6297 -30.6277 -30.6274 -30.6247 -30.6244 -30.6239 -30.6233 -30.6227
   -30.6223 -30.6149 -30.6110 -30.6102 -30.6054 -30.6001 -30.5964 -30.5813
   -30.5812 -30.5759 -30.5741 -30.5739 -30.5726 -30.5700 -30.5690 -30.5690
   -30.5676 -30.5658 -30.5657 -30.5652 -30.5597 -30.5589 -30.5557 -30.5549
   -30.5542 -30.5542 -30.5540 -30.5532 -30.5529 -30.5508 -30.5506 -30.5497
   -30.5477 -30.5405 -30.5397 -30.5392 -30.5381 -30.5191 -30.5056 -30.5046
    12.4205  13.5818  14.0624  14.0983  14.0984  14.1242  14.1644  14.1646
    14.1905  14.3179  14.3597  14.3609  14.3659  14.3810  14.4650  14.5638
    14.5788  14.7403  14.7413  14.7827  14.7917  14.8694  14.8694  14.9210
    15.0236  15.0278  15.0597  15.0726  15.0810  15.0922  15.0960  15.1009
    15.1885  15.2018  15.2082  15.2116  15.3191  15.3256  15.3586  15.3748
    15.4827  15.4888  15.6211  15.6260  15.6586  15.6653  15.6720  15.6780
    15.6884  15.6900  15.7007  15.7235  15.7260  15.8321  15.8398  15.9057
    15.9074  15.9636  15.9643  15.9679  16.0359  16.0428  16.0476  16.0572
    16.0609  16.0660  16.1361  16.1386  16.1417  16.2370  16.2590  16.2753
    16.2834  16.3200  16.3208  16.3344  16.4193  16.4414  16.4619  16.4665
    16.4679  16.5021  16.6336  16.6404  16.6538  16.7036  16.7815  16.7896
    16.8364  16.8550  16.8581  16.8654  16.9294  17.0051  17.0146  17.0150
    17.0324  17.0420  17.3471  17.3572  17.3646  17.4550  17.4630  17.5202
    17.5263  17.5370  17.5402  17.5951  17.5985  17.6234  17.6329  17.6873
    17.6971  17.8031  17.8284  17.8298  17.8318  17.8367  17.8530  17.8568
    17.8624  17.8626  17.9506  18.0595  18.1089  18.1106  18.1250  18.1255
    18.1328  18.2142  18.2161  18.2191  18.2601  18.2612  18.2640  18.2690
    18.3097  18.3149  18.3368  18.3519  18.3586  18.4257  18.5970  18.6074
    18.6542  18.6778  18.6826  18.7116  18.8132  18.8144  18.8626  18.8626
    18.8708  18.9413  18.9478  18.9592  18.9670  19.0877  19.1365  19.1367
    19.1544  19.1558  19.1760  19.3302  19.3334  19.3390  19.3417  19.9438
    19.9610  20.1786  20.3895  20.4145  20.7130  20.7141  20.7424  21.0907
    21.2651  21.2671  21.5229  21.8006  22.5361  22.5754  23.0792  23.1231
    23.1857  23.2732  25.7549  25.7948  25.8640  25.9489  26.3116  26.3545
    26.3576  26.6608  26.6639  27.0663  27.6806  27.7285  28.3532  28.3990
    28.7265  29.1405  29.1680  29.2683  29.2725  29.4578  29.4692  29.5248
    29.5939  29.6333  29.6540  29.8274  29.8388  29.9441  30.0117  30.0357
    30.1020  30.1046

          k = 0.0556 0.0553 0.3889 ( 33157 PWs)   bands (ev):

   -64.9792 -64.9714 -64.9535 -64.9531 -64.9492 -64.9489 -64.9486 -64.9481
   -64.9449 -64.9446 -64.9404 -64.9394 -64.9385 -64.9378 -64.9376 -64.9369
   -64.9365 -64.9355 -64.9353 -64.9295 -64.9293 -64.9285 -64.9281 -64.9276
   -64.9253 -64.9250 -64.9249 -64.9245 -64.9234 -64.9226 -64.9223 -64.9216
   -30.8455 -30.8414 -30.8412 -30.8355 -30.8278 -30.8264 -30.8173 -30.8147
   -30.8093 -30.8090 -30.8023 -30.8014 -30.8011 -30.7764 -30.7741 -30.7725
   -30.7691 -30.7676 -30.7669 -30.7668 -30.7576 -30.7570 -30.7416 -30.7380
   -30.7336 -30.7311 -30.7241 -30.7205 -30.7187 -30.7185 -30.7157 -30.7156
   -30.7129 -30.7106 -30.6970 -30.6948 -30.6944 -30.6921 -30.6820 -30.6819
   -30.6565 -30.6558 -30.6400 -30.6393 -30.6367 -30.6350 -30.6283 -30.6237
   -30.6197 -30.6121 -30.6119 -30.6112 -30.6109 -30.6108 -30.6107 -30.6104
   -30.6095 -30.6094 -30.6067 -30.5983 -30.5979 -30.5974 -30.5891 -30.5891
   -30.5867 -30.5863 -30.5852 -30.5849 -30.5839 -30.5788 -30.5774 -30.5772
   -30.5766 -30.5764 -30.5696 -30.5616 -30.5606 -30.5583 -30.5567 -30.5549
   -30.5542 -30.5540 -30.5533 -30.5525 -30.5519 -30.5498 -30.5482 -30.5481
   -30.5477 -30.5408 -30.5400 -30.5349 -30.5290 -30.5276 -30.5117 -30.5106
    12.6331  13.2293  14.1547  14.2272  14.2275  14.2341  14.2863  14.2865
    14.3237  14.3755  14.3992  14.4838  14.4864  14.5068  14.5200  14.5640
    14.5649  14.5708  14.6340  14.6421  14.6423  14.6941  14.7067  14.7200
    14.8513  14.8558  14.8577  14.8634  15.0550  15.0626  15.1474  15.1553
    15.1993  15.2119  15.2663  15.2760  15.2907  15.2956  15.4218  15.4337
    15.4860  15.4888  15.4915  15.4919  15.5892  15.5896  15.6277  15.6319
    15.6445  15.6548  15.6836  15.6931  15.7278  15.7441  15.8655  15.8740
    15.8778  15.9089  15.9114  16.0253  16.0532  16.0539  16.0679  16.0691
    16.0963  16.1054  16.1655  16.1688  16.2035  16.2124  16.2294  16.2385
    16.2418  16.3022  16.3673  16.3691  16.5049  16.5414  16.5578  16.5593
    16.5737  16.5960  16.6034  16.6085  16.6115  16.6185  16.7653  16.8049
    16.8194  16.8381  16.8623  16.8695  17.0480  17.0486  17.0517  17.0660
    17.2782  17.3020  17.4250  17.4293  17.4390  17.4506  17.4547  17.6186
    17.6207  17.6536  17.6558  17.6619  17.6661  17.6776  17.6840  17.6961
    17.7153  17.7178  17.7989  17.8015  17.8325  17.8401  17.8432  17.8454
    17.8462  17.8535  17.8593  17.8723  17.8755  17.9560  17.9963  18.0714
    18.0730  18.1302  18.2058  18.2314  18.3110  18.3124  18.3441  18.3837
    18.4643  18.4667  18.4689  18.5262  18.5338  18.5345  18.5553  18.5565
    18.7069  18.7070  18.7228  18.8106  18.8188  18.8274  18.8484  18.8520
    18.8590  18.8606  18.8998  18.9599  18.9623  18.9735  18.9741  19.0357
    19.1527  19.1605  19.3053  19.3303  19.3322  19.3397  19.3412  19.5495
    19.5610  19.9547  19.9744  20.3653  20.6520  20.7904  20.9133  20.9151
    21.1876  21.1896  21.3819  21.7219  23.2442  23.2848  23.7855  23.7885
    23.8333  23.8711  24.8680  24.9084  25.1464  25.2310  25.4139  25.4579
    26.7123  27.1272  27.1310  27.6101  27.9232  28.0293  28.0815  28.4505
    28.4548  28.6858  28.7362  28.9413  29.0033  29.0044  29.3237  29.3858
    29.4342  29.5499  29.5504  29.6115  29.9791  30.0312  30.0865  30.2098
    30.3054  30.3765

          k = 0.0556 0.0553-0.5000 ( 33172 PWs)   bands (ev):

   -64.9760 -64.9752 -64.9519 -64.9516 -64.9512 -64.9508 -64.9473 -64.9469
   -64.9466 -64.9461 -64.9403 -64.9395 -64.9385 -64.9378 -64.9376 -64.9369
   -64.9363 -64.9356 -64.9315 -64.9307 -64.9276 -64.9273 -64.9269 -64.9269
   -64.9265 -64.9265 -64.9262 -64.9257 -64.9234 -64.9226 -64.9223 -64.9216
   -30.8316 -30.8312 -30.8269 -30.8265 -30.8261 -30.8257 -30.8195 -30.8192
   -30.8166 -30.8158 -30.8153 -30.8145 -30.7991 -30.7983 -30.7717 -30.7714
   -30.7709 -30.7705 -30.7638 -30.7636 -30.7633 -30.7631 -30.7303 -30.7300
   -30.7271 -30.7267 -30.7248 -30.7241 -30.7223 -30.7217 -30.7097 -30.7094
   -30.7091 -30.7083 -30.7065 -30.7062 -30.7062 -30.7055 -30.6685 -30.6681
   -30.6678 -30.6674 -30.6401 -30.6394 -30.6362 -30.6355 -30.6207 -30.6199
   -30.6163 -30.6156 -30.6010 -30.6007 -30.5996 -30.5994 -30.5993 -30.5990
   -30.5989 -30.5988 -30.5988 -30.5986 -30.5985 -30.5985 -30.5974 -30.5971
   -30.5928 -30.5925 -30.5920 -30.5917 -30.5867 -30.5864 -30.5860 -30.5856
   -30.5829 -30.5826 -30.5579 -30.5572 -30.5563 -30.5561 -30.5560 -30.5557
   -30.5552 -30.5549 -30.5546 -30.5542 -30.5540 -30.5533 -30.5493 -30.5485
   -30.5435 -30.5433 -30.5432 -30.5430 -30.5199 -30.5191 -30.5186 -30.5179
    12.9061  12.9070  14.2638  14.2645  14.3836  14.3837  14.3861  14.3869
    14.3870  14.3877  14.4460  14.4461  14.4469  14.4469  14.4928  14.4929
    14.5049  14.5057  14.6477  14.6485  14.6520  14.6528  14.6758  14.6765
    14.6865  14.6872  14.8773  14.8781  14.8883  14.8890  15.2348  15.2351
    15.2356  15.2359  15.3453  15.3461  15.3537  15.3544  15.3678  15.3684
    15.3731  15.3737  15.5003  15.5009  15.5068  15.5074  15.6562  15.6564
    15.6601  15.6603  15.6611  15.6613  15.6752  15.6754  15.8764  15.8764
    15.8777  15.8778  16.0264  16.0271  16.0553  16.0559  16.0710  16.0716
    16.0955  16.0960  16.1557  16.1563  16.1680  16.1686  16.2568  16.2573
    16.4019  16.4020  16.4066  16.4067  16.4624  16.4626  16.4656  16.4658
    16.6217  16.6219  16.6678  16.6681  16.6816  16.6818  16.6840  16.6848
    16.7067  16.7070  16.7191  16.7199  17.4405  17.4407  17.4434  17.4436
    17.4453  17.4456  17.4456  17.4459  17.4462  17.4465  17.4893  17.4896
    17.5679  17.5687  17.6611  17.6618  17.6635  17.6641  17.7387  17.7391
    17.7420  17.7426  17.7441  17.7448  17.7602  17.7608  17.7608  17.7614
    17.7640  17.7644  17.7969  17.7975  17.7993  17.7999  17.9713  17.9715
    17.9719  17.9721  18.0565  18.0573  18.5176  18.5182  18.5186  18.5193
    18.5443  18.5445  18.6541  18.6543  18.6603  18.6606  18.6608  18.6610
    18.6890  18.6892  18.7019  18.7021  18.7533  18.7538  18.7605  18.7611
    18.7627  18.7632  18.7679  18.7684  18.9128  18.9131  19.1849  19.1850
    19.1903  19.1904  19.3307  19.3315  19.3401  19.3409  19.5405  19.5406
    19.5547  19.5549  20.0284  20.0291  20.5260  20.5267  21.0718  21.0726
    21.0739  21.0747  21.5884  21.5891  24.0242  24.0246  24.0652  24.0655
    24.4476  24.4482  24.5324  24.5330  24.5683  24.5686  24.6130  24.6133
    27.2417  27.2419  27.7299  27.7300  27.7341  27.7342  28.2604  28.2605
    28.4569  28.4577  28.5138  28.5146  29.0924  29.0932  29.1480  29.1488
    29.3881  29.3888  29.4869  29.4875  30.1515  30.1524  30.2576  30.2585
    30.4397  30.4406

          k = 0.0556 0.1658 0.0556 ( 33159 PWs)   bands (ev):

   -64.9838 -64.9619 -64.9556 -64.9556 -64.9502 -64.9502 -64.9459 -64.9437
   -64.9436 -64.9406 -64.9402 -64.9401 -64.9386 -64.9378 -64.9377 -64.9377
   -64.9375 -64.9372 -64.9353 -64.9349 -64.9348 -64.9328 -64.9327 -64.9243
   -64.9231 -64.9230 -64.9229 -64.9228 -64.9220 -64.9219 -64.9218 -64.9216
   -30.8633 -30.8616 -30.8615 -30.8584 -30.8432 -30.8432 -30.8397 -30.7824
   -30.7774 -30.7774 -30.7715 -30.7715 -30.7700 -30.7700 -30.7697 -30.7687
   -30.7687 -30.7574 -30.7574 -30.7546 -30.7545 -30.7503 -30.7503 -30.7463
   -30.7462 -30.7354 -30.7354 -30.7297 -30.7297 -30.7218 -30.7184 -30.7184
   -30.6985 -30.6985 -30.6847 -30.6847 -30.6697 -30.6697 -30.6689 -30.6689
   -30.6571 -30.6447 -30.6447 -30.6433 -30.6432 -30.6402 -30.6402 -30.6370
   -30.6370 -30.6355 -30.6355 -30.6343 -30.6339 -30.6338 -30.6338 -30.6335
   -30.6332 -30.6323 -30.6294 -30.6257 -30.6256 -30.5850 -30.5846 -30.5788
   -30.5788 -30.5706 -30.5706 -30.5668 -30.5668 -30.5662 -30.5662 -30.5635
   -30.5634 -30.5616 -30.5590 -30.5589 -30.5581 -30.5580 -30.5570 -30.5552
   -30.5529 -30.5524 -30.5523 -30.5522 -30.5521 -30.5514 -30.5513 -30.5497
   -30.5494 -30.5491 -30.5455 -30.5427 -30.5427 -30.5078 -30.5014 -30.5007
    12.2748  13.9163  13.9954  14.0076  14.0076  14.0550  14.0822  14.0822
    14.0955  14.2621  14.2771  14.2771  14.2816  14.2817  14.4778  14.4779
    14.4818  14.8730  14.8730  14.9346  15.0079  15.0080  15.0151  15.0151
    15.0352  15.1153  15.1153  15.1523  15.1524  15.1541  15.1611  15.1612
    15.3074  15.3074  15.3345  15.3346  15.3410  15.3411  15.3785  15.3785
    15.4229  15.4230  15.4777  15.6724  15.6724  15.7009  15.7010  15.7468
    15.7469  15.7560  15.7561  15.8126  15.8127  15.9003  15.9004  15.9017
    15.9457  15.9457  15.9910  16.0070  16.0070  16.0086  16.0087  16.0574
    16.0574  16.0958  16.0958  16.1285  16.1286  16.2655  16.2924  16.2924
    16.3092  16.3093  16.3136  16.3264  16.3296  16.3296  16.3752  16.3843
    16.3906  16.4047  16.4047  16.4214  16.4337  16.4337  16.4345  16.4407
    17.0071  17.0071  17.1031  17.1168  17.1416  17.1416  17.1949  17.1949
    17.2116  17.2612  17.2648  17.2648  17.3856  17.3960  17.3961  17.4086
    17.4087  17.4459  17.4459  17.4479  17.4479  17.6648  17.6649  17.6745
    17.6879  17.6880  17.7622  17.7623  17.8434  17.8434  17.8471  17.8472
    17.8480  17.8518  17.8519  17.9364  17.9384  17.9384  17.9509  17.9783
    18.0588  18.0589  18.0722  18.0723  18.0992  18.0992  18.1626  18.1706
    18.1707  18.2012  18.3302  18.4523  18.4524  18.5811  18.5811  18.5912
    18.6245  18.6368  18.6368  18.8531  18.9529  18.9529  18.9677  18.9951
    19.0263  19.0326  19.0327  19.0543  19.0543  19.2196  19.2656  19.2656
    19.2675  19.2676  19.2857  19.3591  19.3591  19.3616  19.3616  20.0181
    20.3687  20.3688  20.4999  20.4999  20.7290  20.8277  20.8496  20.8496
    21.3456  21.3456  21.8798  21.8968  21.8969  22.0449  22.4359  22.4359
    22.7825  22.7825  26.1828  26.3418  26.3418  26.5937  26.5937  26.6337
    26.6337  26.6365  27.1865  27.1866  27.5185  27.5186  28.2032  28.2033
    28.6716  28.6716  29.5173  29.5173  29.5584  29.6234  29.6234  29.7685
    29.7685  29.8320  29.8320  29.9575  30.0612  30.0612  30.1026  30.1026
    30.6104  30.6126

          k = 0.0556 0.1658 0.1667 ( 33156 PWs)   bands (ev):

   -64.9828 -64.9613 -64.9609 -64.9551 -64.9498 -64.9471 -64.9455 -64.9449
   -64.9435 -64.9434 -64.9402 -64.9400 -64.9395 -64.9381 -64.9371 -64.9369
   -64.9367 -64.9365 -64.9349 -64.9348 -64.9330 -64.9329 -64.9307 -64.9243
   -64.9235 -64.9233 -64.9231 -64.9228 -64.9227 -64.9225 -64.9222 -64.9217
   -30.8605 -30.8605 -30.8560 -30.8513 -30.8401 -30.8385 -30.8368 -30.7848
   -30.7825 -30.7824 -30.7796 -30.7730 -30.7704 -30.7701 -30.7693 -30.7690
   -30.7674 -30.7670 -30.7662 -30.7654 -30.7594 -30.7585 -30.7582 -30.7563
   -30.7329 -30.7271 -30.7267 -30.7264 -30.7249 -30.7232 -30.7201 -30.7156
   -30.7122 -30.7037 -30.7002 -30.6763 -30.6713 -30.6708 -30.6575 -30.6570
   -30.6546 -30.6532 -30.6490 -30.6425 -30.6411 -30.6404 -30.6376 -30.6343
   -30.6337 -30.6335 -30.6333 -30.6326 -30.6319 -30.6312 -30.6308 -30.6295
   -30.6291 -30.6286 -30.6168 -30.6158 -30.6113 -30.5911 -30.5878 -30.5828
   -30.5825 -30.5755 -30.5728 -30.5721 -30.5664 -30.5664 -30.5657 -30.5641
   -30.5631 -30.5624 -30.5621 -30.5620 -30.5611 -30.5603 -30.5572 -30.5559
   -30.5552 -30.5550 -30.5538 -30.5529 -30.5519 -30.5515 -30.5500 -30.5499
   -30.5459 -30.5458 -30.5430 -30.5414 -30.5363 -30.5157 -30.5033 -30.5005
    12.3472  13.9692  13.9837  14.0420  14.0421  14.0492  14.0677  14.1088
    14.1484  14.1485  14.3038  14.3044  14.3217  14.3221  14.5160  14.5345
    14.5479  14.8966  14.9089  14.9156  14.9304  14.9492  14.9496  14.9648
    14.9780  14.9910  15.0485  15.0487  15.0616  15.0630  15.1863  15.1892
    15.1906  15.1951  15.1990  15.2511  15.3654  15.3891  15.3904  15.3927
    15.3948  15.4222  15.4245  15.4960  15.5193  15.6487  15.6588  15.7393
    15.7412  15.7517  15.8361  15.8449  15.8508  15.8577  15.9141  15.9209
    15.9272  15.9773  15.9869  15.9976  16.0045  16.0441  16.0564  16.1523
    16.1962  16.2007  16.2255  16.2377  16.2503  16.2514  16.3033  16.3095
    16.3550  16.3555  16.3571  16.3602  16.3610  16.3674  16.3784  16.3948
    16.4181  16.4281  16.4287  16.4339  16.4340  16.4535  16.4661  16.4688
    16.9033  16.9464  16.9657  17.0122  17.1027  17.1218  17.2130  17.2243
    17.2320  17.2483  17.2513  17.2920  17.3044  17.3150  17.3280  17.3674
    17.3687  17.3894  17.4593  17.5278  17.5409  17.5435  17.5583  17.5613
    17.5784  17.8386  17.8394  17.8443  17.8516  17.8610  17.9263  17.9309
    17.9336  17.9394  17.9469  17.9525  17.9548  17.9552  18.0336  18.0401
    18.0601  18.0614  18.2380  18.2456  18.2781  18.2900  18.2977  18.2988
    18.3367  18.3391  18.3443  18.3563  18.3982  18.4030  18.4300  18.4675
    18.5907  18.6989  18.7507  18.7559  18.8812  18.8871  18.8905  18.9039
    19.0053  19.0277  19.0292  19.0410  19.0474  19.0642  19.2088  19.2100
    19.2639  19.2696  19.2842  19.2884  19.2912  19.2983  19.3091  19.7345
    19.9407  20.3377  20.3592  20.3965  20.8264  20.8529  21.0201  21.0216
    21.3899  21.3956  21.8848  21.9248  22.3364  22.4175  22.4246  22.4675
    23.0187  23.0437  25.9697  26.0156  26.1811  26.1834  26.6430  26.6841
    26.7614  26.7704  26.8066  27.0436  27.3158  27.3939  27.7521  27.7922
    28.7990  28.8433  29.0389  29.1065  29.4983  29.5781  29.6040  29.6457
    29.7358  29.7405  29.9227  29.9495  29.9627  30.0826  30.3899  30.4243
    30.6752  30.7525

          k = 0.0556 0.1658 0.2778 ( 33158 PWs)   bands (ev):

   -64.9810 -64.9660 -64.9601 -64.9541 -64.9503 -64.9490 -64.9461 -64.9448
   -64.9432 -64.9423 -64.9404 -64.9400 -64.9398 -64.9389 -64.9385 -64.9364
   -64.9359 -64.9350 -64.9334 -64.9332 -64.9322 -64.9308 -64.9288 -64.9249
   -64.9244 -64.9242 -64.9240 -64.9237 -64.9232 -64.9230 -64.9226 -64.9217
   -30.8552 -30.8537 -30.8466 -30.8403 -30.8339 -30.8311 -30.8292 -30.7997
   -30.7959 -30.7857 -30.7848 -30.7846 -30.7839 -30.7832 -30.7752 -30.7725
   -30.7724 -30.7675 -30.7664 -30.7645 -30.7643 -30.7606 -30.7602 -30.7528
   -30.7467 -30.7306 -30.7304 -30.7222 -30.7178 -30.7168 -30.7147 -30.7130
   -30.7100 -30.7046 -30.6952 -30.6879 -30.6837 -30.6704 -30.6684 -30.6562
   -30.6527 -30.6517 -30.6441 -30.6402 -30.6381 -30.6381 -30.6338 -30.6333
   -30.6330 -30.6320 -30.6291 -30.6243 -30.6217 -30.6207 -30.6195 -30.6165
   -30.6161 -30.6136 -30.6030 -30.6030 -30.6030 -30.5975 -30.5946 -30.5933
   -30.5798 -30.5785 -30.5779 -30.5769 -30.5748 -30.5742 -30.5732 -30.5721
   -30.5694 -30.5656 -30.5652 -30.5629 -30.5627 -30.5616 -30.5587 -30.5575
   -30.5570 -30.5562 -30.5556 -30.5552 -30.5519 -30.5502 -30.5498 -30.5438
   -30.5422 -30.5406 -30.5399 -30.5343 -30.5323 -30.5280 -30.5076 -30.5027
    12.4904  13.6370  14.0719  14.1087  14.1207  14.1307  14.1328  14.1751
    14.2400  14.2525  14.3586  14.3869  14.3986  14.4103  14.5156  14.5875
    14.6367  14.7204  14.7495  14.7813  14.8001  14.8158  14.8199  14.8517
    14.9387  14.9552  14.9782  14.9876  14.9992  15.0252  15.1106  15.1174
    15.1278  15.1364  15.1724  15.2172  15.2642  15.2781  15.3100  15.4133
    15.4276  15.4323  15.4759  15.5307  15.5819  15.6012  15.6013  15.6984
    15.7009  15.7099  15.7275  15.7408  15.7944  15.8472  15.8649  15.9053
    15.9059  15.9147  16.0014  16.0597  16.0968  16.1132  16.1526  16.1652
    16.1709  16.1818  16.2066  16.2282  16.2595  16.2795  16.2900  16.3083
    16.3344  16.3739  16.4154  16.4223  16.4631  16.4711  16.4744  16.4831
    16.5268  16.5367  16.5419  16.5471  16.5695  16.6688  16.7472  16.7659
    16.7916  16.8099  16.8410  16.9304  16.9306  17.0208  17.0387  17.0540
    17.1276  17.1454  17.1720  17.2383  17.2452  17.3189  17.3226  17.4319
    17.4432  17.4587  17.4744  17.5153  17.5635  17.6471  17.7009  17.7029
    17.7204  17.7958  17.8079  17.8239  17.8577  17.8988  17.9425  17.9431
    17.9678  18.0148  18.0218  18.0574  18.0683  18.0754  18.0798  18.0890
    18.0935  18.1256  18.1954  18.2309  18.2601  18.2906  18.3198  18.3873
    18.3965  18.4210  18.4246  18.4331  18.4449  18.4588  18.4592  18.5419
    18.5670  18.5734  18.6716  18.7453  18.7819  18.8034  18.8794  18.9041
    18.9691  19.0058  19.0067  19.0136  19.0977  19.1034  19.1037  19.1106
    19.1542  19.1581  19.1891  19.2626  19.2717  19.2800  19.2813  19.5547
    19.7602  19.9289  20.2751  20.3912  20.4198  20.7795  20.9048  21.3032
    21.5032  21.8094  21.8554  22.0163  22.3914  22.5748  22.8149  23.1187
    23.4955  23.6568  25.1824  25.3244  25.8607  26.0928  26.1865  26.3599
    26.3609  26.8404  27.0014  27.0579  27.0729  27.5239  27.5505  28.2161
    28.2832  28.5438  28.7476  28.9310  29.0325  29.0811  29.3880  29.5577
    29.7371  29.8395  29.8426  29.9328  30.0549  30.3300  30.4127  30.4530
    30.6596  30.6727

          k = 0.0556 0.1658 0.3889 ( 33169 PWs)   bands (ev):

   -64.9783 -64.9706 -64.9584 -64.9534 -64.9527 -64.9486 -64.9478 -64.9443
   -64.9438 -64.9427 -64.9412 -64.9407 -64.9398 -64.9388 -64.9361 -64.9352
   -64.9351 -64.9351 -64.9336 -64.9304 -64.9298 -64.9288 -64.9275 -64.9270
   -64.9257 -64.9254 -64.9253 -64.9241 -64.9240 -64.9233 -64.9225 -64.9218
   -30.8459 -30.8432 -30.8339 -30.8262 -30.8249 -30.8229 -30.8172 -30.8157
   -30.8133 -30.8010 -30.7998 -30.7995 -30.7910 -30.7841 -30.7819 -30.7770
   -30.7769 -30.7761 -30.7751 -30.7710 -30.7621 -30.7592 -30.7535 -30.7494
   -30.7380 -30.7367 -30.7325 -30.7275 -30.7247 -30.7153 -30.7064 -30.7022
   -30.7021 -30.7015 -30.6957 -30.6899 -30.6832 -30.6811 -30.6794 -30.6679
   -30.6655 -30.6535 -30.6335 -30.6330 -30.6326 -30.6321 -30.6317 -30.6306
   -30.6242 -30.6229 -30.6214 -30.6139 -30.6133 -30.6105 -30.6097 -30.6082
   -30.6054 -30.6044 -30.6014 -30.6000 -30.5922 -30.5911 -30.5888 -30.5882
   -30.5878 -30.5875 -30.5872 -30.5849 -30.5848 -30.5843 -30.5840 -30.5738
   -30.5720 -30.5715 -30.5654 -30.5644 -30.5643 -30.5631 -30.5630 -30.5619
   -30.5610 -30.5594 -30.5544 -30.5527 -30.5525 -30.5497 -30.5480 -30.5448
   -30.5443 -30.5409 -30.5356 -30.5314 -30.5310 -30.5238 -30.5138 -30.5076
    12.7003  13.2887  14.2018  14.2137  14.2182  14.2486  14.2627  14.2808
    14.3689  14.3918  14.4249  14.4387  14.5022  14.5110  14.5161  14.5406
    14.5697  14.5974  14.6028  14.6052  14.6697  14.6827  14.7302  14.7408
    14.7619  14.7818  14.8779  14.8945  14.9094  14.9910  15.1058  15.1161
    15.1204  15.1422  15.1856  15.2421  15.2425  15.3646  15.3790  15.3967
    15.4247  15.4458  15.4988  15.5211  15.5334  15.5465  15.5483  15.5562
    15.5782  15.6340  15.6852  15.7187  15.7216  15.7847  15.8729  15.8879
    15.9221  15.9653  16.0723  16.0826  16.1050  16.1320  16.1516  16.1537
    16.1607  16.1664  16.1983  16.2508  16.2557  16.2576  16.2836  16.3005
    16.3586  16.3711  16.3924  16.4994  16.5177  16.5601  16.5623  16.5912
    16.5975  16.6120  16.6478  16.6504  16.6648  16.7273  16.7298  16.7399
    16.8334  16.8443  16.8534  16.9365  16.9600  16.9800  17.0161  17.0358
    17.1940  17.2204  17.2424  17.2548  17.2710  17.2866  17.3863  17.4741
    17.4792  17.4945  17.5600  17.6085  17.6558  17.6703  17.6780  17.6786
    17.7000  17.7013  17.7533  17.7854  17.8234  17.8470  17.8506  17.8558
    17.9153  17.9247  17.9654  17.9882  18.0209  18.0748  18.0985  18.1013
    18.1361  18.1437  18.1562  18.2827  18.3007  18.3031  18.3293  18.3367
    18.4455  18.4875  18.5277  18.5521  18.5939  18.6127  18.6197  18.6286
    18.6308  18.6329  18.6593  18.7233  18.7263  18.8223  18.8264  18.8554
    18.8822  18.9161  18.9183  18.9621  18.9628  18.9759  18.9790  19.0609
    19.1373  19.2044  19.2623  19.2682  19.2738  19.2785  19.5293  19.5329
    19.6676  19.9058  19.9527  20.1805  20.4350  20.5108  20.7086  21.0901
    21.5334  21.7976  21.8909  22.3136  22.7149  23.2995  23.3920  23.8395
    24.0651  24.3185  24.3587  24.6694  24.9565  25.3874  25.4820  25.9632
    26.3926  26.7204  27.2771  27.4125  27.4376  27.6200  27.8228  27.9413
    28.0773  28.1487  28.3793  28.6163  28.7802  29.0183  29.3567  29.4531
    29.5892  29.7257  29.7829  29.9047  29.9350  30.1917  30.2268  30.2455
    30.3182  30.6055

          k = 0.0556 0.1658-0.5000 ( 33180 PWs)   bands (ev):

   -64.9752 -64.9744 -64.9565 -64.9557 -64.9512 -64.9504 -64.9466 -64.9458
   -64.9428 -64.9424 -64.9420 -64.9416 -64.9397 -64.9390 -64.9359 -64.9352
   -64.9347 -64.9339 -64.9313 -64.9306 -64.9281 -64.9279 -64.9273 -64.9273
   -64.9272 -64.9265 -64.9257 -64.9250 -64.9241 -64.9234 -64.9225 -64.9218
   -30.8332 -30.8329 -30.8296 -30.8293 -30.8185 -30.8181 -30.8137 -30.8130
   -30.8128 -30.8121 -30.8095 -30.8091 -30.7985 -30.7978 -30.7809 -30.7808
   -30.7778 -30.7774 -30.7772 -30.7772 -30.7581 -30.7579 -30.7461 -30.7456
   -30.7373 -30.7369 -30.7366 -30.7362 -30.7176 -30.7173 -30.7065 -30.7061
   -30.6955 -30.6950 -30.6929 -30.6921 -30.6847 -30.6844 -30.6770 -30.6766
   -30.6657 -30.6650 -30.6334 -30.6329 -30.6327 -30.6322 -30.6240 -30.6232
   -30.6153 -30.6146 -30.6122 -30.6115 -30.6104 -30.6102 -30.6034 -30.6032
   -30.6009 -30.6004 -30.5993 -30.5991 -30.5973 -30.5969 -30.5962 -30.5958
   -30.5941 -30.5934 -30.5848 -30.5845 -30.5811 -30.5803 -30.5745 -30.5742
   -30.5740 -30.5733 -30.5694 -30.5690 -30.5647 -30.5643 -30.5633 -30.5625
   -30.5612 -30.5605 -30.5573 -30.5570 -30.5538 -30.5530 -30.5466 -30.5459
   -30.5445 -30.5442 -30.5323 -30.5321 -30.5222 -30.5214 -30.5150 -30.5145
    12.9697  12.9707  14.3119  14.3126  14.3460  14.3461  14.3973  14.3976
    14.3979  14.3984  14.4231  14.4239  14.4246  14.4247  14.5333  14.5333
    14.5426  14.5435  14.5633  14.5633  14.6205  14.6211  14.6748  14.6756
    14.7087  14.7093  14.7891  14.7896  14.9569  14.9576  15.0467  15.0469
    15.2388  15.2392  15.2393  15.2394  15.2714  15.2722  15.3843  15.3851
    15.4521  15.4522  15.4861  15.4868  15.5330  15.5333  15.5597  15.5600
    15.5978  15.5978  15.6321  15.6327  15.6434  15.6439  15.9981  15.9986
    16.0173  16.0179  16.0283  16.0290  16.0337  16.0343  16.0962  16.0963
    16.2043  16.2046  16.2141  16.2146  16.3273  16.3278  16.3550  16.3556
    16.4059  16.4060  16.4448  16.4448  16.4612  16.4614  16.5735  16.5736
    16.6077  16.6079  16.6740  16.6743  16.6853  16.6860  16.7198  16.7205
    16.7771  16.7773  16.7898  16.7901  17.2461  17.2467  17.2563  17.2568
    17.2989  17.2991  17.3135  17.3137  17.3391  17.3394  17.3862  17.3864
    17.4342  17.4348  17.5838  17.5846  17.5872  17.5878  17.6433  17.6436
    17.6699  17.6705  17.7142  17.7145  17.7147  17.7148  17.7766  17.7773
    17.8922  17.8929  17.9282  17.9288  18.0006  18.0013  18.0539  18.0547
    18.1909  18.1916  18.2415  18.2422  18.3081  18.3086  18.4801  18.4808
    18.5227  18.5228  18.5355  18.5361  18.6738  18.6741  18.6998  18.6999
    18.7603  18.7609  18.7811  18.7812  18.7851  18.7856  18.7904  18.7906
    18.7976  18.7981  18.8013  18.8017  18.8911  18.8913  18.9415  18.9417
    19.1585  19.1586  19.2633  19.2640  19.2757  19.2764  19.5339  19.5340
    19.9773  19.9774  20.0548  20.0556  20.3534  20.3540  20.6154  20.6162
    21.6954  21.6962  22.1575  22.1582  23.4867  23.4871  24.0188  24.0194
    24.0962  24.0966  24.6297  24.6300  24.7049  24.7055  25.1282  25.1285
    26.8158  26.8159  27.2555  27.2556  27.6490  27.6498  27.8651  27.8658
    28.1921  28.1929  28.2726  28.2727  28.8309  28.8311  29.2021  29.2023
    29.7504  29.7512  29.8527  29.8532  29.9199  29.9205  30.0583  30.0592
    30.8990  30.9004

          k = 0.0556 0.2764 0.0556 ( 33165 PWs)   bands (ev):

   -64.9819 -64.9670 -64.9546 -64.9546 -64.9494 -64.9493 -64.9464 -64.9464
   -64.9425 -64.9424 -64.9408 -64.9404 -64.9391 -64.9378 -64.9377 -64.9377
   -64.9375 -64.9368 -64.9355 -64.9321 -64.9321 -64.9305 -64.9304 -64.9260
   -64.9240 -64.9240 -64.9237 -64.9236 -64.9220 -64.9219 -64.9219 -64.9217
   -30.8564 -30.8535 -30.8535 -30.8490 -30.8372 -30.8372 -30.8301 -30.7987
   -30.7932 -30.7932 -30.7882 -30.7882 -30.7853 -30.7713 -30.7713 -30.7695
   -30.7694 -30.7597 -30.7596 -30.7509 -30.7509 -30.7494 -30.7490 -30.7489
   -30.7365 -30.7365 -30.7344 -30.7344 -30.7239 -30.7239 -30.7066 -30.7066
   -30.7016 -30.7016 -30.6987 -30.6987 -30.6825 -30.6825 -30.6800 -30.6800
   -30.6513 -30.6513 -30.6396 -30.6368 -30.6368 -30.6353 -30.6353 -30.6299
   -30.6284 -30.6275 -30.6275 -30.6261 -30.6261 -30.6246 -30.6246 -30.6239
   -30.6238 -30.6149 -30.6119 -30.6119 -30.6044 -30.5964 -30.5956 -30.5840
   -30.5840 -30.5760 -30.5760 -30.5743 -30.5743 -30.5718 -30.5713 -30.5712
   -30.5671 -30.5671 -30.5660 -30.5660 -30.5613 -30.5566 -30.5538 -30.5531
   -30.5531 -30.5524 -30.5523 -30.5522 -30.5521 -30.5509 -30.5508 -30.5488
   -30.5459 -30.5406 -30.5405 -30.5383 -30.5378 -30.5187 -30.5054 -30.5045
    12.4183  13.5688  14.0601  14.0964  14.0964  14.1238  14.1640  14.1640
    14.1899  14.3161  14.3609  14.3609  14.3792  14.3793  14.4531  14.5766
    14.5767  14.7283  14.7284  14.7723  14.7896  14.8666  14.8666  14.9177
    15.0236  15.0236  15.0713  15.0714  15.0949  15.0950  15.0988  15.0988
    15.2040  15.2040  15.2068  15.2069  15.3226  15.3227  15.3771  15.3771
    15.4860  15.4860  15.6314  15.6314  15.6552  15.6553  15.6604  15.6841
    15.6841  15.7025  15.7026  15.7266  15.7267  15.8378  15.8379  15.9111
    15.9112  15.9487  15.9578  15.9579  16.0228  16.0228  16.0641  16.0642
    16.0684  16.0684  16.1152  16.1540  16.1541  16.2105  16.2369  16.2514
    16.2514  16.3091  16.3345  16.3346  16.4457  16.4750  16.4750  16.4962
    16.5004  16.5043  16.6409  16.6409  16.6599  16.7079  16.8049  16.8049
    16.8497  16.8497  16.8774  16.8774  16.9491  17.0218  17.0330  17.0330
    17.0494  17.0570  17.3208  17.3482  17.3482  17.4401  17.4401  17.5143
    17.5144  17.5306  17.5306  17.5874  17.5874  17.6178  17.6179  17.6777
    17.6778  17.7705  17.8253  17.8254  17.8288  17.8289  17.8521  17.8522
    17.8548  17.8549  17.9821  18.0486  18.1040  18.1040  18.1198  18.1198
    18.1372  18.2250  18.2318  18.2404  18.2658  18.2659  18.2696  18.2697
    18.3075  18.3076  18.3397  18.3493  18.3493  18.4320  18.5992  18.5993
    18.6512  18.6574  18.6574  18.7229  18.8108  18.8109  18.8597  18.8598
    18.8599  18.9453  18.9453  18.9461  18.9548  19.0871  19.1345  19.1345
    19.1368  19.1368  19.1742  19.3601  19.3601  19.3614  19.3614  19.9448
    19.9448  20.1912  20.3923  20.3923  20.7247  20.7247  20.7682  21.1001
    21.2964  21.2964  21.4403  21.8345  22.5266  22.5266  23.0716  23.0717
    23.2620  23.2620  25.7165  25.7165  25.9149  25.9149  26.2754  26.2754
    26.3494  26.6526  26.6526  27.0568  27.7643  27.7644  28.4385  28.4386
    28.6742  29.1768  29.1768  29.2205  29.2205  29.5347  29.5347  29.5956
    29.5957  29.6690  29.6690  29.7805  29.9461  29.9462  30.1075  30.1075
    30.1154  30.1155

          k = 0.0556 0.2764 0.1667 ( 33169 PWs)   bands (ev):

   -64.9810 -64.9663 -64.9597 -64.9541 -64.9503 -64.9490 -64.9462 -64.9442
   -64.9431 -64.9423 -64.9406 -64.9404 -64.9399 -64.9386 -64.9385 -64.9363
   -64.9359 -64.9351 -64.9337 -64.9333 -64.9322 -64.9307 -64.9289 -64.9259
   -64.9244 -64.9243 -64.9241 -64.9234 -64.9229 -64.9226 -64.9222 -64.9218
   -30.8552 -30.8540 -30.8468 -30.8406 -30.8340 -30.8330 -30.8278 -30.8013
   -30.7981 -30.7881 -30.7854 -30.7852 -30.7826 -30.7821 -30.7747 -30.7727
   -30.7713 -30.7665 -30.7661 -30.7642 -30.7627 -30.7612 -30.7581 -30.7512
   -30.7440 -30.7321 -30.7281 -30.7218 -30.7180 -30.7171 -30.7143 -30.7125
   -30.7076 -30.7068 -30.6989 -30.6872 -30.6840 -30.6708 -30.6665 -30.6573
   -30.6533 -30.6519 -30.6490 -30.6404 -30.6400 -30.6333 -30.6331 -30.6327
   -30.6319 -30.6307 -30.6280 -30.6253 -30.6232 -30.6207 -30.6205 -30.6181
   -30.6157 -30.6128 -30.6041 -30.6028 -30.5992 -30.5980 -30.5966 -30.5940
   -30.5801 -30.5798 -30.5789 -30.5782 -30.5756 -30.5751 -30.5744 -30.5737
   -30.5680 -30.5669 -30.5634 -30.5633 -30.5629 -30.5608 -30.5587 -30.5573
   -30.5572 -30.5568 -30.5551 -30.5537 -30.5513 -30.5504 -30.5479 -30.5421
   -30.5411 -30.5407 -30.5406 -30.5343 -30.5324 -30.5278 -30.5075 -30.5028
    12.4889  13.6249  14.0843  14.1072  14.1204  14.1295  14.1314  14.1748
    14.2398  14.2520  14.3570  14.3873  14.3975  14.4109  14.5048  14.5863
    14.6479  14.7193  14.7405  14.7691  14.8008  14.8057  14.8181  14.8503
    14.9465  14.9521  14.9748  14.9871  15.0125  15.0377  15.1097  15.1157
    15.1272  15.1401  15.1710  15.2205  15.2654  15.2820  15.3088  15.4149
    15.4290  15.4316  15.4778  15.5520  15.5832  15.5950  15.6083  15.6744
    15.7003  15.7104  15.7316  15.7437  15.7886  15.8516  15.8550  15.8998
    15.9118  15.9256  16.0161  16.0537  16.0916  16.1079  16.1498  16.1655
    16.1733  16.1809  16.1881  16.2286  16.2358  16.2716  16.2716  16.3152
    16.3454  16.3472  16.4201  16.4516  16.4681  16.4904  16.4931  16.4987
    16.5275  16.5396  16.5530  16.5536  16.5640  16.6669  16.7568  16.7773
    16.8128  16.8176  16.8334  16.9218  16.9541  17.0507  17.0579  17.0752
    17.1444  17.1504  17.1618  17.2195  17.2309  17.3051  17.3097  17.4201
    17.4289  17.4542  17.4623  17.5088  17.5605  17.6417  17.6893  17.6998
    17.7140  17.7735  17.8063  17.8206  17.8486  17.9010  17.9277  17.9646
    17.9665  18.0198  18.0202  18.0552  18.0630  18.0738  18.0794  18.0836
    18.0979  18.1232  18.2061  18.2534  18.2608  18.2894  18.3247  18.3848
    18.3940  18.4190  18.4270  18.4294  18.4330  18.4524  18.4623  18.5426
    18.5552  18.5754  18.6714  18.7522  18.7798  18.8025  18.8798  18.8933
    18.9652  18.9996  19.0057  19.0078  19.0822  19.1020  19.1038  19.1144
    19.1338  19.1401  19.1798  19.2878  19.2922  19.2965  19.2975  19.5549
    19.7705  19.9130  20.2955  20.3697  20.4272  20.8042  20.9110  21.3124
    21.5078  21.7363  21.8923  22.0056  22.4302  22.5279  22.8864  23.0698
    23.4888  23.6524  25.1418  25.3731  25.7861  26.0617  26.1822  26.3005
    26.3499  26.8124  27.0650  27.0677  27.0836  27.5449  27.6035  28.1602
    28.3199  28.6141  28.6915  28.9364  29.0735  29.1521  29.3581  29.5592
    29.7396  29.8006  29.8404  30.0606  30.1080  30.3320  30.3716  30.4552
    30.6765  30.7404

          k = 0.0556 0.2764 0.2778 ( 33163 PWs)   bands (ev):

   -64.9792 -64.9649 -64.9647 -64.9540 -64.9532 -64.9482 -64.9457 -64.9456
   -64.9421 -64.9420 -64.9417 -64.9400 -64.9394 -64.9392 -64.9355 -64.9352
   -64.9349 -64.9347 -64.9325 -64.9325 -64.9313 -64.9311 -64.9273 -64.9259
   -64.9252 -64.9250 -64.9246 -64.9245 -64.9239 -64.9231 -64.9227 -64.9219
   -30.8502 -30.8500 -30.8365 -30.8286 -30.8280 -30.8247 -30.8231 -30.8011
   -30.7998 -30.7998 -30.7978 -30.7877 -30.7854 -30.7801 -30.7788 -30.7763
   -30.7759 -30.7747 -30.7730 -30.7710 -30.7697 -30.7617 -30.7616 -30.7597
   -30.7561 -30.7545 -30.7281 -30.7227 -30.7168 -30.7146 -30.7078 -30.7075
   -30.7001 -30.6995 -30.6937 -30.6901 -30.6662 -30.6639 -30.6636 -30.6535
   -30.6534 -30.6531 -30.6511 -30.6445 -30.6397 -30.6286 -30.6285 -30.6277
   -30.6273 -30.6266 -30.6259 -30.6252 -30.6231 -30.6215 -30.6140 -30.6135
   -30.6086 -30.6052 -30.6049 -30.6045 -30.5919 -30.5915 -30.5914 -30.5910
   -30.5873 -30.5869 -30.5852 -30.5847 -30.5761 -30.5760 -30.5742 -30.5741
   -30.5726 -30.5720 -30.5712 -30.5711 -30.5621 -30.5615 -30.5607 -30.5605
   -30.5585 -30.5581 -30.5535 -30.5522 -30.5510 -30.5502 -30.5468 -30.5455
   -30.5423 -30.5416 -30.5409 -30.5293 -30.5292 -30.5267 -30.5118 -30.5029
    12.6285  13.7347  13.7449  14.1544  14.1963  14.1990  14.1990  14.2224
    14.3492  14.3493  14.4317  14.4384  14.4398  14.5079  14.5602  14.6053
    14.6063  14.6142  14.6536  14.6537  14.7658  14.7697  14.7704  14.7709
    14.8486  14.8593  14.8727  14.8822  15.0410  15.0437  15.0446  15.0471
    15.0502  15.1493  15.1502  15.1834  15.1838  15.2202  15.2205  15.3014
    15.3016  15.3841  15.4964  15.4974  15.5014  15.5046  15.5318  15.6995
    15.7229  15.7393  15.7443  15.7524  15.7529  15.7620  15.7633  16.0077
    16.0181  16.0736  16.0807  16.1677  16.1699  16.1727  16.1865  16.2086
    16.2099  16.2295  16.2444  16.2467  16.2740  16.3665  16.3923  16.3936
    16.3961  16.4790  16.4868  16.4873  16.5189  16.5401  16.5749  16.5845
    16.5905  16.5925  16.6365  16.6408  16.6446  16.6494  16.6669  16.7023
    16.7983  16.8045  16.8163  16.8309  16.9692  16.9944  17.0196  17.0472
    17.1057  17.1272  17.1648  17.2020  17.2574  17.2719  17.2889  17.3025
    17.3030  17.3171  17.3736  17.3749  17.5195  17.5219  17.6536  17.7450
    17.7471  17.7541  17.7569  17.7577  17.7910  17.8712  17.8746  17.9583
    17.9889  18.0409  18.0444  18.0973  18.1012  18.1426  18.1438  18.1819
    18.1914  18.2922  18.2934  18.2938  18.3072  18.3186  18.3188  18.3193
    18.3275  18.3655  18.3658  18.5209  18.5634  18.5887  18.5930  18.5993
    18.6007  18.6008  18.6029  18.7030  18.7045  18.7492  18.8639  18.8665
    18.9428  19.0103  19.0139  19.0362  19.0419  19.0427  19.1357  19.1440
    19.1560  19.1610  19.1704  19.1827  19.2107  19.2264  19.5355  19.5440
    19.5586  19.8502  19.8655  20.2428  20.3264  20.3464  21.4992  21.5107
    21.8904  21.8942  22.2063  22.2695  22.5208  22.5636  23.0478  23.0912
    23.8945  24.2807  24.5516  24.5946  25.8199  25.8633  26.1822  26.1865
    26.3389  26.3648  26.7690  26.8133  27.3855  27.4149  27.5807  27.6804
    27.7387  28.1085  28.1958  28.2553  28.3375  29.4315  29.6071  29.6453
    29.7807  29.7808  30.1665  30.2171  30.4174  30.4525  30.6107  30.6170
    30.7232  30.8488

          k = 0.0556 0.2764 0.3889 ( 33182 PWs)   bands (ev):

   -64.9766 -64.9692 -64.9630 -64.9574 -64.9518 -64.9479 -64.9471 -64.9450
   -64.9439 -64.9429 -64.9416 -64.9401 -64.9392 -64.9367 -64.9347 -64.9344
   -64.9339 -64.9329 -64.9318 -64.9315 -64.9302 -64.9294 -64.9273 -64.9264
   -64.9262 -64.9259 -64.9259 -64.9256 -64.9248 -64.9235 -64.9229 -64.9220
   -30.8424 -30.8412 -30.8232 -30.8191 -30.8167 -30.8164 -30.8142 -30.8136
   -30.8127 -30.7984 -30.7982 -30.7972 -30.7941 -30.7902 -30.7865 -30.7862
   -30.7848 -30.7784 -30.7779 -30.7779 -30.7727 -30.7668 -30.7625 -30.7592
   -30.7585 -30.7468 -30.7369 -30.7355 -30.7266 -30.7147 -30.7012 -30.6976
   -30.6935 -30.6862 -30.6814 -30.6767 -30.6756 -30.6745 -30.6666 -30.6657
   -30.6489 -30.6436 -30.6420 -30.6380 -30.6367 -30.6343 -30.6275 -30.6265
   -30.6257 -30.6233 -30.6218 -30.6198 -30.6150 -30.6132 -30.6112 -30.6049
   -30.6040 -30.6029 -30.6025 -30.6024 -30.6001 -30.5943 -30.5926 -30.5911
   -30.5896 -30.5870 -30.5825 -30.5822 -30.5812 -30.5790 -30.5788 -30.5780
   -30.5725 -30.5722 -30.5710 -30.5668 -30.5662 -30.5660 -30.5654 -30.5649
   -30.5591 -30.5576 -30.5575 -30.5541 -30.5535 -30.5527 -30.5525 -30.5491
   -30.5440 -30.5425 -30.5358 -30.5250 -30.5234 -30.5193 -30.5181 -30.5058
    12.8329  13.4056  13.8928  14.2259  14.2936  14.2968  14.3067  14.3184
    14.3305  14.4778  14.4781  14.4801  14.4901  14.5173  14.5210  14.5600
    14.5821  14.5908  14.5913  14.6368  14.6464  14.6763  14.7217  14.7412
    14.7485  14.8064  14.8341  14.8465  14.9182  14.9431  14.9614  14.9740
    15.0137  15.1117  15.1164  15.1504  15.1994  15.2219  15.2290  15.2786
    15.2892  15.3342  15.3688  15.4046  15.4439  15.5529  15.5955  15.6120
    15.6244  15.6820  15.7298  15.7698  15.8001  15.8196  15.8830  15.9812
    15.9880  15.9971  16.0772  16.1377  16.1441  16.2131  16.2446  16.2622
    16.2774  16.2806  16.2840  16.3435  16.3739  16.3743  16.3974  16.4881
    16.4897  16.5381  16.5508  16.5551  16.5569  16.5856  16.5921  16.6210
    16.6397  16.6430  16.6467  16.7331  16.7404  16.7620  16.7646  16.7869
    16.7987  16.8440  16.8527  16.8743  16.9355  16.9486  17.0363  17.0466
    17.0506  17.0848  17.1103  17.1185  17.1304  17.1772  17.2055  17.2883
    17.4048  17.4091  17.4258  17.4431  17.4483  17.4595  17.5185  17.5369
    17.5705  17.6053  17.6627  17.6795  17.6870  17.7703  17.9255  17.9737
    17.9958  17.9959  18.0136  18.0178  18.1432  18.1440  18.1668  18.1713
    18.1784  18.2231  18.3261  18.3456  18.3496  18.3613  18.4156  18.4277
    18.4367  18.5035  18.5335  18.5683  18.5694  18.6299  18.6553  18.7237
    18.7379  18.7382  18.7462  18.7475  18.7631  18.7648  18.7947  18.8190
    18.9061  18.9596  18.9603  18.9629  18.9669  18.9686  18.9806  18.9902
    19.0397  19.1088  19.1416  19.1486  19.1612  19.1803  19.4678  19.5384
    19.7587  19.9141  20.0220  20.1397  20.1828  20.2680  21.0012  21.5496
    22.1926  22.1929  22.4004  22.4844  22.7586  22.9655  23.3111  23.7617
    23.8188  23.9504  24.4220  24.9664  24.9982  25.3778  25.6826  26.2037
    26.3994  26.4989  26.6100  26.7746  26.9899  27.0009  27.2420  27.4682
    27.7389  27.7588  27.9443  28.1832  28.7433  29.0611  29.6279  29.7595
    29.8372  29.8651  29.9299  30.0440  30.1313  30.2107  30.6665  30.7499
    30.8900  30.9885

          k = 0.0556 0.2764-0.5000 ( 33182 PWs)   bands (ev):

   -64.9736 -64.9728 -64.9608 -64.9600 -64.9504 -64.9497 -64.9460 -64.9453
   -64.9444 -64.9437 -64.9413 -64.9406 -64.9384 -64.9377 -64.9339 -64.9332
   -64.9331 -64.9324 -64.9311 -64.9303 -64.9288 -64.9285 -64.9281 -64.9280
   -64.9277 -64.9273 -64.9256 -64.9250 -64.9249 -64.9242 -64.9228 -64.9221
   -30.8313 -30.8310 -30.8292 -30.8288 -30.8081 -30.8080 -30.8076 -30.8073
   -30.8073 -30.8072 -30.7972 -30.7966 -30.7965 -30.7962 -30.7938 -30.7938
   -30.7926 -30.7925 -30.7838 -30.7833 -30.7647 -30.7640 -30.7632 -30.7627
   -30.7494 -30.7490 -30.7350 -30.7350 -30.7311 -30.7307 -30.6885 -30.6883
   -30.6870 -30.6867 -30.6801 -30.6797 -30.6772 -30.6764 -30.6624 -30.6622
   -30.6610 -30.6602 -30.6300 -30.6292 -30.6274 -30.6267 -30.6244 -30.6242
   -30.6240 -30.6236 -30.6213 -30.6211 -30.6162 -30.6160 -30.6135 -30.6128
   -30.6031 -30.6026 -30.6015 -30.6013 -30.5943 -30.5938 -30.5933 -30.5930
   -30.5857 -30.5850 -30.5830 -30.5826 -30.5796 -30.5794 -30.5781 -30.5778
   -30.5726 -30.5719 -30.5699 -30.5692 -30.5689 -30.5682 -30.5671 -30.5668
   -30.5620 -30.5612 -30.5594 -30.5591 -30.5557 -30.5550 -30.5468 -30.5467
   -30.5465 -30.5460 -30.5265 -30.5258 -30.5230 -30.5228 -30.5115 -30.5112
    13.0952  13.0961  14.0907  14.0916  14.3342  14.3343  14.4057  14.4064
    14.4269  14.4269  14.4294  14.4298  14.4933  14.4941  14.5318  14.5322
    14.6181  14.6190  14.6427  14.6427  14.6578  14.6579  14.6761  14.6764
    14.7202  14.7210  14.8182  14.8186  14.8645  14.8646  14.9224  14.9230
    15.0954  15.0962  15.1117  15.1122  15.1928  15.1930  15.2553  15.2555
    15.2681  15.2689  15.4486  15.4493  15.4735  15.4736  15.4953  15.4961
    15.7563  15.7568  15.7617  15.7618  15.8708  15.8710  15.8837  15.8843
    15.9004  15.9010  16.0243  16.0248  16.2399  16.2405  16.3127  16.3133
    16.3195  16.3196  16.3663  16.3668  16.3880  16.3883  16.4068  16.4069
    16.4524  16.4525  16.5945  16.5946  16.6416  16.6418  16.6545  16.6550
    16.6770  16.6770  16.6967  16.6972  16.7160  16.7163  16.7240  16.7246
    16.8962  16.8965  16.9101  16.9104  17.0598  17.0598  17.0694  17.0698
    17.0790  17.0795  17.1418  17.1419  17.1535  17.1537  17.1713  17.1715
    17.2276  17.2281  17.4786  17.4789  17.4833  17.4839  17.5431  17.5436
    17.5721  17.5726  17.5933  17.5940  17.6097  17.6099  17.8815  17.8822
    17.8869  17.8874  18.0705  18.0711  18.1030  18.1036  18.1169  18.1176
    18.2764  18.2771  18.4001  18.4008  18.4051  18.4058  18.5254  18.5261
    18.5460  18.5466  18.5965  18.5965  18.6433  18.6435  18.6435  18.6436
    18.7661  18.7667  18.7931  18.7932  18.8160  18.8164  18.8577  18.8580
    18.8594  18.8598  18.8745  18.8747  18.8774  18.8775  18.9013  18.9014
    19.0976  19.0977  19.1537  19.1544  19.1547  19.1552  19.5018  19.5020
    19.6456  19.6463  20.2088  20.2096  20.5086  20.5088  20.8189  20.8195
    22.3861  22.3868  22.7637  22.7643  22.9492  22.9497  23.3476  23.3482
    24.1280  24.1283  24.6007  24.6008  25.0275  25.0281  25.7141  25.7143
    26.4724  26.4724  26.8346  26.8347  26.8634  26.8640  27.2217  27.2224
    27.3307  27.3314  28.5149  28.5150  28.8681  28.8682  29.4456  29.4457
    29.7764  29.7773  29.9209  29.9218  30.3162  30.3171  30.4905  30.4907
    31.1341  31.1348

          k = 0.0556 0.3870 0.0556 ( 33143 PWs)   bands (ev):

   -64.9792 -64.9716 -64.9531 -64.9531 -64.9490 -64.9489 -64.9481 -64.9481
   -64.9446 -64.9446 -64.9402 -64.9395 -64.9378 -64.9377 -64.9377 -64.9375
   -64.9364 -64.9362 -64.9357 -64.9296 -64.9295 -64.9286 -64.9284 -64.9283
   -64.9255 -64.9254 -64.9249 -64.9249 -64.9220 -64.9219 -64.9219 -64.9217
   -30.8459 -30.8419 -30.8419 -30.8361 -30.8284 -30.8284 -30.8160 -30.8156
   -30.8106 -30.8106 -30.8034 -30.8034 -30.8031 -30.7748 -30.7713 -30.7713
   -30.7666 -30.7665 -30.7649 -30.7649 -30.7558 -30.7558 -30.7389 -30.7388
   -30.7315 -30.7315 -30.7211 -30.7211 -30.7168 -30.7168 -30.7161 -30.7161
   -30.7115 -30.7115 -30.6952 -30.6952 -30.6930 -30.6930 -30.6861 -30.6861
   -30.6606 -30.6606 -30.6364 -30.6364 -30.6356 -30.6355 -30.6238 -30.6225
   -30.6204 -30.6130 -30.6130 -30.6129 -30.6129 -30.6119 -30.6118 -30.6100
   -30.6100 -30.6068 -30.6058 -30.5993 -30.5992 -30.5988 -30.5916 -30.5916
   -30.5870 -30.5870 -30.5868 -30.5867 -30.5853 -30.5787 -30.5786 -30.5786
   -30.5786 -30.5779 -30.5710 -30.5608 -30.5608 -30.5560 -30.5547 -30.5525
   -30.5524 -30.5523 -30.5522 -30.5522 -30.5520 -30.5478 -30.5478 -30.5478
   -30.5463 -30.5408 -30.5408 -30.5343 -30.5281 -30.5273 -30.5114 -30.5104
    12.6288  13.2193  14.1507  14.2234  14.2234  14.2333  14.2854  14.2855
    14.3225  14.3665  14.3959  14.4860  14.4860  14.5168  14.5169  14.5551
    14.5552  14.5691  14.6264  14.6400  14.6400  14.6916  14.7160  14.7161
    14.8563  14.8563  14.8582  14.8583  15.0562  15.0563  15.1536  15.1537
    15.2097  15.2097  15.2802  15.2802  15.2920  15.2920  15.4381  15.4382
    15.4847  15.4848  15.5002  15.5002  15.5991  15.5992  15.6345  15.6345
    15.6471  15.6471  15.6935  15.6936  15.7381  15.7381  15.8339  15.8813
    15.8814  15.9077  15.9078  16.0075  16.0701  16.0702  16.0704  16.0705
    16.0834  16.0834  16.1282  16.1449  16.1819  16.2004  16.2004  16.2578
    16.2579  16.2768  16.3870  16.3871  16.5321  16.5730  16.5730  16.5965
    16.5989  16.6005  16.6265  16.6266  16.6332  16.6333  16.7885  16.8286
    16.8286  16.8700  16.8769  16.8837  17.0526  17.0581  17.0581  17.0700
    17.2913  17.2913  17.4063  17.4112  17.4112  17.4341  17.4341  17.6075
    17.6076  17.6466  17.6467  17.6528  17.6529  17.6623  17.6665  17.6666
    17.7068  17.7069  17.7961  17.7961  17.8344  17.8345  17.8357  17.8358
    17.8395  17.8615  17.8615  17.8665  17.8665  17.9610  18.0279  18.0649
    18.0649  18.1587  18.2143  18.2143  18.3059  18.3059  18.3438  18.3819
    18.4655  18.4655  18.4769  18.5243  18.5290  18.5290  18.5494  18.5494
    18.7029  18.7030  18.7148  18.8158  18.8158  18.8193  18.8424  18.8558
    18.8583  18.8583  18.8988  18.9590  18.9591  18.9591  18.9591  19.0376
    19.1535  19.1536  19.2543  19.3605  19.3605  19.3612  19.3612  19.5503
    19.5503  19.9574  19.9575  20.3823  20.6754  20.7164  20.9312  20.9312
    21.2154  21.2154  21.3981  21.7511  23.2285  23.2285  23.7750  23.7750
    23.8537  23.8537  24.8370  24.8370  25.2022  25.2022  25.3853  25.3853
    26.6949  27.1110  27.1110  27.5930  27.8827  28.1112  28.1112  28.4140
    28.4140  28.7695  28.7696  28.9681  29.0194  29.0194  29.4057  29.4057
    29.5541  29.5542  29.6311  29.6312  30.0496  30.0496  30.0924  30.0928
    30.3157  30.3160

          k = 0.0556 0.3870 0.1667 ( 33163 PWs)   bands (ev):

   -64.9784 -64.9709 -64.9580 -64.9532 -64.9527 -64.9486 -64.9478 -64.9444
   -64.9432 -64.9426 -64.9412 -64.9403 -64.9397 -64.9390 -64.9360 -64.9359
   -64.9353 -64.9351 -64.9338 -64.9308 -64.9298 -64.9286 -64.9285 -64.9271
   -64.9260 -64.9258 -64.9253 -64.9244 -64.9228 -64.9226 -64.9221 -64.9219
   -30.8462 -30.8437 -30.8343 -30.8267 -30.8253 -30.8250 -30.8183 -30.8148
   -30.8140 -30.8023 -30.8022 -30.8006 -30.7925 -30.7819 -30.7804 -30.7754
   -30.7750 -30.7747 -30.7738 -30.7704 -30.7613 -30.7577 -30.7547 -30.7472
   -30.7394 -30.7350 -30.7302 -30.7266 -30.7234 -30.7150 -30.7066 -30.7019
   -30.7008 -30.6992 -30.6957 -30.6928 -30.6835 -30.6834 -30.6788 -30.6686
   -30.6674 -30.6583 -30.6330 -30.6329 -30.6314 -30.6308 -30.6304 -30.6271
   -30.6265 -30.6219 -30.6219 -30.6141 -30.6116 -30.6102 -30.6098 -30.6095
   -30.6061 -30.6047 -30.6045 -30.6003 -30.5933 -30.5925 -30.5891 -30.5886
   -30.5882 -30.5877 -30.5871 -30.5869 -30.5860 -30.5857 -30.5856 -30.5742
   -30.5736 -30.5730 -30.5658 -30.5654 -30.5645 -30.5623 -30.5621 -30.5602
   -30.5591 -30.5584 -30.5532 -30.5525 -30.5510 -30.5494 -30.5461 -30.5440
   -30.5431 -30.5417 -30.5356 -30.5311 -30.5302 -30.5237 -30.5134 -30.5076
    12.6968  13.2796  14.1986  14.2132  14.2277  14.2459  14.2592  14.2800
    14.3682  14.3908  14.4168  14.4355  14.5001  14.5111  14.5150  14.5419
    14.5633  14.5938  14.6003  14.6036  14.6623  14.6804  14.7280  14.7382
    14.7594  14.7898  14.8769  14.8924  14.9119  14.9938  15.1038  15.1273
    15.1314  15.1432  15.1842  15.2405  15.2439  15.3681  15.3815  15.4025
    15.4298  15.4463  15.5033  15.5242  15.5381  15.5445  15.5471  15.5531
    15.5964  15.6339  15.6944  15.7217  15.7292  15.7915  15.8437  15.8860
    15.9102  15.9599  16.0671  16.0725  16.1023  16.1304  16.1392  16.1443
    16.1489  16.1626  16.2147  16.2339  16.2563  16.2659  16.2679  16.3014
    16.3271  16.3895  16.3958  16.5322  16.5351  16.5853  16.5942  16.6068
    16.6104  16.6135  16.6511  16.6685  16.6868  16.7457  16.7517  16.7550
    16.8367  16.8418  16.8730  16.9373  16.9677  16.9971  17.0334  17.0576
    17.1992  17.2050  17.2200  17.2419  17.2614  17.2717  17.3696  17.4545
    17.4631  17.4841  17.5500  17.5977  17.6438  17.6711  17.6720  17.6741
    17.6830  17.7070  17.7488  17.7793  17.8172  17.8391  17.8501  17.8608
    17.9064  17.9116  17.9606  18.0147  18.0154  18.0664  18.0962  18.1075
    18.1394  18.1431  18.1611  18.2772  18.2974  18.3019  18.3269  18.3335
    18.4505  18.4834  18.5230  18.5576  18.5885  18.6151  18.6154  18.6238
    18.6253  18.6325  18.6565  18.7165  18.7222  18.8237  18.8259  18.8511
    18.8724  18.9124  18.9166  18.9602  18.9613  18.9623  18.9638  19.0573
    19.1306  19.2043  19.2878  19.2909  19.2933  19.2959  19.5188  19.5388
    19.6327  19.9204  19.9362  20.1995  20.4414  20.5244  20.7305  21.0275
    21.5511  21.8298  21.9043  22.3458  22.6978  23.2454  23.4556  23.7842
    24.0517  24.2855  24.3484  24.7220  24.8881  25.3617  25.4155  25.9380
    26.3774  26.6998  27.3515  27.3947  27.4373  27.6074  27.8970  27.9010
    28.1359  28.1498  28.3909  28.6900  28.8105  28.9870  29.3921  29.4596
    29.5585  29.7561  29.7860  29.9377  30.0210  30.2142  30.2300  30.2563
    30.3358  30.6217

          k = 0.0556 0.3870 0.2778 ( 33175 PWs)   bands (ev):

   -64.9767 -64.9694 -64.9627 -64.9573 -64.9518 -64.9480 -64.9471 -64.9449
   -64.9439 -64.9429 -64.9415 -64.9402 -64.9385 -64.9363 -64.9355 -64.9342
   -64.9339 -64.9330 -64.9320 -64.9319 -64.9302 -64.9292 -64.9284 -64.9265
   -64.9264 -64.9261 -64.9260 -64.9245 -64.9241 -64.9238 -64.9225 -64.9221
   -30.8424 -30.8416 -30.8235 -30.8193 -30.8181 -30.8173 -30.8155 -30.8140
   -30.8109 -30.7994 -30.7971 -30.7967 -30.7951 -30.7914 -30.7854 -30.7848
   -30.7844 -30.7793 -30.7770 -30.7761 -30.7716 -30.7682 -30.7611 -30.7602
   -30.7588 -30.7452 -30.7365 -30.7349 -30.7253 -30.7140 -30.7031 -30.6972
   -30.6936 -30.6828 -30.6815 -30.6785 -30.6775 -30.6752 -30.6664 -30.6630
   -30.6535 -30.6442 -30.6427 -30.6395 -30.6347 -30.6334 -30.6278 -30.6264
   -30.6252 -30.6219 -30.6211 -30.6167 -30.6157 -30.6156 -30.6122 -30.6050
   -30.6049 -30.6033 -30.6025 -30.6019 -30.6003 -30.5952 -30.5928 -30.5912
   -30.5898 -30.5873 -30.5840 -30.5836 -30.5818 -30.5792 -30.5791 -30.5790
   -30.5728 -30.5703 -30.5697 -30.5682 -30.5657 -30.5652 -30.5651 -30.5650
   -30.5589 -30.5589 -30.5560 -30.5548 -30.5536 -30.5525 -30.5522 -30.5475
   -30.5435 -30.5426 -30.5349 -30.5251 -30.5234 -30.5193 -30.5178 -30.5058
    12.8309  13.3981  13.9005  14.2256  14.2919  14.2955  14.3062  14.3204
    14.3284  14.4769  14.4776  14.4797  14.4894  14.5145  14.5147  14.5610
    14.5812  14.5875  14.5903  14.6360  14.6467  14.6686  14.7213  14.7343
    14.7547  14.8081  14.8320  14.8445  14.9179  14.9424  14.9701  14.9825
    15.0135  15.1129  15.1178  15.1533  15.1994  15.2243  15.2274  15.2795
    15.2924  15.3375  15.3690  15.4050  15.4440  15.5536  15.5937  15.6142
    15.6277  15.6834  15.7485  15.7758  15.7933  15.8190  15.8586  15.9726
    15.9904  15.9962  16.0820  16.1215  16.1376  16.1966  16.2450  16.2510
    16.2862  16.2960  16.2967  16.3168  16.3567  16.3926  16.4050  16.4817
    16.4969  16.5389  16.5632  16.5665  16.5684  16.5887  16.6028  16.6325
    16.6435  16.6499  16.6536  16.7448  16.7498  16.7611  16.7726  16.7734
    16.7927  16.8663  16.8719  16.8762  16.9493  16.9728  17.0133  17.0283
    17.0550  17.1025  17.1040  17.1207  17.1363  17.1583  17.1981  17.2808
    17.3977  17.3984  17.4287  17.4328  17.4493  17.4615  17.5061  17.5297
    17.5729  17.5969  17.6601  17.6725  17.6758  17.7691  17.9300  17.9751
    17.9896  18.0076  18.0098  18.0171  18.1388  18.1433  18.1590  18.1743
    18.1885  18.2192  18.3265  18.3466  18.3485  18.3569  18.4157  18.4299
    18.4315  18.5041  18.5297  18.5643  18.5680  18.6308  18.6517  18.7255
    18.7345  18.7351  18.7480  18.7491  18.7627  18.7630  18.7912  18.8119
    18.9057  18.9573  18.9581  18.9597  18.9635  18.9680  18.9708  18.9758
    19.0325  19.1029  19.1610  19.1646  19.1750  19.1913  19.4576  19.5485
    19.7730  19.8987  20.0356  20.1123  20.1912  20.2858  21.0133  21.4969
    22.1744  22.2075  22.4067  22.5206  22.8144  22.9994  23.2623  23.7266
    23.7713  23.9966  24.4148  24.9413  24.9606  25.3440  25.6624  26.1961
    26.3821  26.4832  26.6475  26.7888  26.9579  27.0521  27.3013  27.4215
    27.7649  27.8011  27.9681  28.1761  28.7363  29.0683  29.6030  29.7600
    29.8382  29.8666  29.9658  30.0450  30.1068  30.1864  30.7567  30.7760
    30.9211  31.0109

          k = 0.0556 0.3870 0.3889 ( 33199 PWs)   bands (ev):

   -64.9742 -64.9672 -64.9671 -64.9611 -64.9506 -64.9472 -64.9470 -64.9461
   -64.9445 -64.9433 -64.9432 -64.9413 -64.9350 -64.9341 -64.9332 -64.9329
   -64.9327 -64.9323 -64.9309 -64.9308 -64.9303 -64.9301 -64.9282 -64.9275
   -64.9273 -64.9270 -64.9269 -64.9263 -64.9250 -64.9234 -64.9231 -64.9223
   -30.8354 -30.8353 -30.8131 -30.8128 -30.8126 -30.8118 -30.8106 -30.8098
   -30.8081 -30.8063 -30.7986 -30.7970 -30.7965 -30.7949 -30.7929 -30.7870
   -30.7862 -30.7794 -30.7788 -30.7783 -30.7779 -30.7774 -30.7770 -30.7658
   -30.7639 -30.7630 -30.7491 -30.7342 -30.7302 -30.7143 -30.7133 -30.6889
   -30.6800 -30.6799 -30.6713 -30.6675 -30.6607 -30.6546 -30.6540 -30.6514
   -30.6485 -30.6483 -30.6483 -30.6468 -30.6424 -30.6281 -30.6243 -30.6205
   -30.6203 -30.6202 -30.6201 -30.6200 -30.6171 -30.6169 -30.6159 -30.6156
   -30.6137 -30.6130 -30.5997 -30.5996 -30.5982 -30.5979 -30.5976 -30.5927
   -30.5926 -30.5832 -30.5830 -30.5810 -30.5805 -30.5797 -30.5794 -30.5771
   -30.5719 -30.5714 -30.5710 -30.5707 -30.5705 -30.5686 -30.5648 -30.5616
   -30.5610 -30.5586 -30.5569 -30.5562 -30.5560 -30.5549 -30.5515 -30.5460
   -30.5451 -30.5424 -30.5418 -30.5242 -30.5185 -30.5165 -30.5165 -30.5066
    13.0271  13.5703  13.5755  14.0437  14.2708  14.3642  14.3765  14.4253
    14.4257  14.4561  14.4562  14.4581  14.5729  14.5731  14.6003  14.6170
    14.6171  14.6325  14.6344  14.6348  14.6357  14.6544  14.6584  14.7737
    14.7795  14.7908  14.8105  14.8427  14.8488  14.9473  14.9483  14.9500
    14.9518  14.9787  14.9793  15.0192  15.0197  15.1498  15.1515  15.1679
    15.1701  15.1944  15.1963  15.4319  15.4340  15.4760  15.6658  15.6694
    15.6712  15.6729  15.7712  15.8342  15.8692  15.8696  15.8736  15.8867
    15.8986  16.0817  16.1975  16.1999  16.2559  16.3759  16.3762  16.3925
    16.4145  16.4152  16.4157  16.4204  16.4249  16.4305  16.4542  16.4626
    16.4949  16.5082  16.6316  16.6450  16.6643  16.6732  16.6861  16.7084
    16.7105  16.7309  16.7358  16.7569  16.7603  16.7653  16.8595  16.8604
    16.8636  16.8673  16.8820  16.8834  16.8976  16.9058  16.9785  16.9935
    16.9977  17.0077  17.0949  17.0955  17.1002  17.1455  17.1902  17.1996
    17.2032  17.2136  17.2160  17.2273  17.2378  17.2522  17.2623  17.4067
    17.5126  17.5136  17.5401  17.5404  17.6361  17.7042  17.7086  17.7501
[...]
    23.8313  23.8314  23.8314  23.8315  25.9177  25.9181  25.9184  25.9187
    26.2901  26.2902  26.2902  26.2903  26.2903  26.2904  26.2904  26.2905
    27.1029  27.1031  27.1032  27.1033  29.6545  29.6547  29.6554  29.6556
    30.2455  30.2456  30.2457  30.2457  30.8338  30.8339  30.8340  30.8340
    31.3709  31.3713

          k =-0.5000 0.1658-0.5000 ( 33204 PWs)   bands (ev):

   -64.9677 -64.9674 -64.9670 -64.9666 -64.9521 -64.9518 -64.9514 -64.9510
   -64.9408 -64.9404 -64.9400 -64.9397 -64.9305 -64.9305 -64.9303 -64.9302
   -64.9302 -64.9301 -64.9300 -64.9298 -64.9298 -64.9297 -64.9296 -64.9295
   -64.9294 -64.9293 -64.9292 -64.9291 -64.9252 -64.9249 -64.9244 -64.9241
   -30.8167 -30.8167 -30.8166 -30.8165 -30.8165 -30.8164 -30.8164 -30.8163
   -30.7948 -30.7948 -30.7945 -30.7945 -30.7942 -30.7942 -30.7939 -30.7939
   -30.7921 -30.7918 -30.7914 -30.7911 -30.7895 -30.7893 -30.7891 -30.7889
   -30.7461 -30.7459 -30.7457 -30.7456 -30.7039 -30.7038 -30.7038 -30.7037
   -30.6487 -30.6486 -30.6486 -30.6486 -30.6486 -30.6486 -30.6486 -30.6486
   -30.6465 -30.6465 -30.6462 -30.6462 -30.6459 -30.6458 -30.6456 -30.6455
   -30.6296 -30.6295 -30.6295 -30.6295 -30.6088 -30.6088 -30.6086 -30.6085
   -30.6083 -30.6082 -30.6080 -30.6079 -30.6056 -30.6056 -30.6055 -30.6055
   -30.5877 -30.5875 -30.5873 -30.5872 -30.5859 -30.5858 -30.5857 -30.5855
   -30.5854 -30.5853 -30.5851 -30.5850 -30.5716 -30.5716 -30.5716 -30.5716
   -30.5467 -30.5467 -30.5467 -30.5467 -30.5430 -30.5428 -30.5426 -30.5424
   -30.5367 -30.5364 -30.5360 -30.5357 -30.5126 -30.5126 -30.5126 -30.5125
    13.5519  13.5524  13.5528  13.5533  14.2498  14.2500  14.2502  14.2504
    14.5920  14.5921  14.5921  14.5921  14.5990  14.5991  14.5991  14.5992
    14.6730  14.6731  14.6732  14.6734  14.6736  14.6738  14.6739  14.6740
    14.8705  14.8705  14.8706  14.8707  14.8707  14.8708  14.8709  14.8710
    14.9753  14.9754  14.9755  14.9756  14.9759  14.9761  14.9762  14.9763
    15.1698  15.1698  15.1699  15.1699  15.6651  15.6652  15.6656  15.6657
    15.6658  15.6659  15.6662  15.6663  15.9787  15.9791  15.9793  15.9797
    16.0012  16.0014  16.0014  16.0015  16.4666  16.4667  16.4668  16.4669
    16.5413  16.5414  16.5415  16.5416  16.5465  16.5467  16.5468  16.5470
    16.7042  16.7044  16.7046  16.7048  16.7186  16.7187  16.7187  16.7187
    16.7188  16.7188  16.7189  16.7190  16.7616  16.7617  16.7619  16.7620
    16.7940  16.7941  16.7941  16.7944  17.0379  17.0380  17.0381  17.0382
    17.0383  17.0384  17.0385  17.0386  17.0770  17.0772  17.0774  17.0775
    17.1473  17.1476  17.1476  17.1479  17.2682  17.2682  17.2683  17.2683
    17.2685  17.2685  17.2687  17.2687  17.6090  17.6092  17.6097  17.6098
    18.0785  18.0787  18.0791  18.0793  18.2147  18.2148  18.2149  18.2151
    18.2151  18.2154  18.2154  18.2156  18.2164  18.2166  18.2169  18.2171
    18.5457  18.5458  18.5460  18.5462  18.6083  18.6084  18.6087  18.6088
    18.9567  18.9568  18.9568  18.9570  18.9571  18.9573  18.9573  18.9574
    18.9851  18.9851  18.9852  18.9852  18.9853  18.9853  18.9853  18.9854
    18.9928  18.9930  18.9930  18.9931  19.0143  19.0144  19.0147  19.0148
    20.2565  20.2568  20.2570  20.2573  21.9873  21.9875  21.9875  21.9876
    21.9878  21.9879  21.9880  21.9881  23.6588  23.6588  23.6590  23.6590
    23.6592  23.6593  23.6594  23.6594  25.3266  25.3270  25.3273  25.3276
    26.5274  26.5274  26.5275  26.5276  26.5277  26.5278  26.5279  26.5280
    27.2318  27.2320  27.2321  27.2322  29.6763  29.6764  29.6765  29.6765
    30.2888  30.2890  30.2897  30.2899  30.4847  30.4848  30.4851  30.4853
    30.4854  30.4855

          k =-0.5000 0.2764-0.5000 ( 33136 PWs)   bands (ev):

   -64.9664 -64.9661 -64.9657 -64.9653 -64.9558 -64.9554 -64.9550 -64.9546
   -64.9372 -64.9368 -64.9364 -64.9361 -64.9305 -64.9305 -64.9303 -64.9302
   -64.9302 -64.9301 -64.9300 -64.9298 -64.9298 -64.9297 -64.9296 -64.9295
   -64.9294 -64.9293 -64.9292 -64.9291 -64.9265 -64.9262 -64.9257 -64.9254
   -30.8140 -30.8140 -30.8139 -30.8139 -30.8137 -30.8137 -30.8136 -30.8136
   -30.7980 -30.7979 -30.7978 -30.7978 -30.7976 -30.7975 -30.7975 -30.7974
   -30.7974 -30.7973 -30.7973 -30.7972 -30.7972 -30.7970 -30.7968 -30.7968
   -30.7268 -30.7267 -30.7265 -30.7263 -30.6883 -30.6882 -30.6881 -30.6880
   -30.6485 -30.6485 -30.6485 -30.6485 -30.6484 -30.6484 -30.6484 -30.6484
   -30.6471 -30.6471 -30.6469 -30.6469 -30.6466 -30.6466 -30.6464 -30.6464
   -30.6450 -30.6449 -30.6448 -30.6448 -30.6070 -30.6069 -30.6067 -30.6065
   -30.6052 -30.6051 -30.6051 -30.6048 -30.6048 -30.6045 -30.6045 -30.6044
   -30.6027 -30.6027 -30.6027 -30.6027 -30.5883 -30.5882 -30.5882 -30.5879
   -30.5879 -30.5876 -30.5876 -30.5875 -30.5794 -30.5794 -30.5794 -30.5793
   -30.5387 -30.5387 -30.5387 -30.5387 -30.5341 -30.5339 -30.5337 -30.5335
   -30.5317 -30.5314 -30.5311 -30.5308 -30.5154 -30.5154 -30.5154 -30.5153
    13.6189  13.6194  13.6198  13.6203  14.1075  14.1078  14.1080  14.1083
    14.6282  14.6283  14.6283  14.6283  14.6500  14.6501  14.6502  14.6503
    14.6506  14.6507  14.6508  14.6509  14.6522  14.6523  14.6524  14.6524
    14.8020  14.8020  14.8021  14.8022  14.8023  14.8025  14.8026  14.8026
    15.1134  15.1134  15.1135  15.1135  15.1140  15.1140  15.1142  15.1142
    15.2252  15.2252  15.2253  15.2253  15.6529  15.6530  15.6534  15.6534
    15.6536  15.6536  15.6540  15.6540  15.7775  15.7779  15.7781  15.7784
    16.0930  16.0932  16.0932  16.0933  16.4823  16.4826  16.4827  16.4829
    16.6146  16.6146  16.6146  16.6146  16.6194  16.6196  16.6199  16.6201
    16.6874  16.6877  16.6878  16.6880  16.7044  16.7044  16.7045  16.7045
    16.7046  16.7047  16.7047  16.7048  16.7091  16.7091  16.7093  16.7094
    16.7477  16.7477  16.7478  16.7480  17.0059  17.0059  17.0061  17.0062
    17.0062  17.0063  17.0065  17.0065  17.0647  17.0649  17.0650  17.0652
    17.2280  17.2281  17.2283  17.2285  17.3429  17.3429  17.3431  17.3431
    17.3432  17.3433  17.3434  17.3434  17.7357  17.7359  17.7364  17.7365
    17.9307  17.9309  17.9313  17.9315  17.9587  17.9588  17.9589  17.9591
    17.9591  17.9593  17.9594  17.9595  18.1646  18.1648  18.1651  18.1653
    18.2291  18.2291  18.2294  18.2295  18.4345  18.4346  18.4350  18.4351
    19.0467  19.0468  19.0468  19.0469  19.0469  19.0469  19.0469  19.0470
    19.0593  19.0595  19.0595  19.0596  19.0823  19.0823  19.0824  19.0825
    19.0825  19.0827  19.0828  19.0828  19.0923  19.0924  19.0926  19.0928
    21.0046  21.0049  21.0052  21.0054  22.1676  22.1677  22.1678  22.1680
    22.1681  22.1682  22.1683  22.1684  23.3792  23.3793  23.3793  23.3795
    23.3796  23.3798  23.3799  23.3799  24.4876  24.4880  24.4883  24.4886
    26.9426  26.9427  26.9428  26.9429  26.9430  26.9432  26.9432  26.9433
    27.4585  27.4587  27.4588  27.4589  29.1331  29.1332  29.1333  29.1334
    29.6349  29.6349  29.6351  29.6352  29.6354  29.6355  29.6357  29.6357
    31.2355  31.2361

          k =-0.5000 0.3870-0.5000 ( 33208 PWs)   bands (ev):

   -64.9645 -64.9641 -64.9637 -64.9634 -64.9591 -64.9587 -64.9583 -64.9580
   -64.9339 -64.9336 -64.9331 -64.9328 -64.9305 -64.9305 -64.9303 -64.9302
   -64.9302 -64.9301 -64.9300 -64.9299 -64.9298 -64.9297 -64.9296 -64.9295
   -64.9294 -64.9293 -64.9292 -64.9291 -64.9284 -64.9280 -64.9276 -64.9273
   -30.8104 -30.8103 -30.8103 -30.8102 -30.8101 -30.8099 -30.8099 -30.8099
   -30.8028 -30.8025 -30.8025 -30.8023 -30.8023 -30.8021 -30.8019 -30.8018
   -30.8016 -30.8016 -30.8015 -30.8014 -30.8013 -30.8011 -30.8010 -30.8009
   -30.7062 -30.7060 -30.7059 -30.7057 -30.6693 -30.6692 -30.6691 -30.6690
   -30.6642 -30.6641 -30.6640 -30.6639 -30.6485 -30.6485 -30.6484 -30.6484
   -30.6483 -30.6483 -30.6482 -30.6482 -30.6477 -30.6477 -30.6476 -30.6475
   -30.6474 -30.6473 -30.6472 -30.6472 -30.6276 -30.6275 -30.6273 -30.6272
   -30.6008 -30.6007 -30.6006 -30.6005 -30.6003 -30.6002 -30.6000 -30.6000
   -30.5986 -30.5985 -30.5985 -30.5985 -30.5919 -30.5918 -30.5917 -30.5915
   -30.5914 -30.5912 -30.5911 -30.5910 -30.5867 -30.5867 -30.5867 -30.5866
   -30.5315 -30.5315 -30.5315 -30.5315 -30.5287 -30.5285 -30.5282 -30.5280
   -30.5280 -30.5277 -30.5274 -30.5272 -30.5197 -30.5197 -30.5196 -30.5196
    13.7142  13.7146  13.7150  13.7154  13.9656  13.9659  13.9662  13.9665
    14.6534  14.6534  14.6535  14.6536  14.6540  14.6540  14.6541  14.6542
    14.6592  14.6592  14.6593  14.6593  14.6803  14.6804  14.6805  14.6806
    14.7348  14.7349  14.7350  14.7351  14.7353  14.7354  14.7355  14.7355
    15.2713  15.2714  15.2714  15.2716  15.2719  15.2721  15.2721  15.2722
    15.3132  15.3133  15.3134  15.3135  15.5710  15.5710  15.5713  15.5715
    15.5715  15.5717  15.5720  15.5720  15.5933  15.5936  15.5938  15.5941
    16.2199  16.2201  16.2201  16.2201  16.4573  16.4574  16.4575  16.4577
    16.6347  16.6348  16.6349  16.6350  16.6655  16.6657  16.6658  16.6660
    16.6835  16.6836  16.6838  16.6839  16.7073  16.7073  16.7074  16.7076
    16.7153  16.7153  16.7154  16.7154  16.7587  16.7588  16.7588  16.7588
    16.7590  16.7590  16.7591  16.7592  16.9461  16.9462  16.9464  16.9465
    16.9465  16.9466  16.9467  16.9468  16.9552  16.9554  16.9555  16.9556
    17.3956  17.3958  17.3960  17.3962  17.4329  17.4329  17.4330  17.4330
    17.4332  17.4332  17.4333  17.4333  17.7306  17.7307  17.7307  17.7309
    17.7309  17.7312  17.7312  17.7313  17.7566  17.7568  17.7571  17.7573
    17.8940  17.8942  17.8946  17.8947  18.0770  18.0771  18.0773  18.0775
    18.1024  18.1026  18.1028  18.1030  18.2525  18.2526  18.2530  18.2531
    19.1092  19.1092  19.1093  19.1093  19.1094  19.1094  19.1095  19.1095
    19.1139  19.1141  19.1142  19.1143  19.1350  19.1352  19.1353  19.1355
    19.1447  19.1447  19.1448  19.1449  19.1449  19.1451  19.1451  19.1451
    21.8178  21.8181  21.8184  21.8187  22.4205  22.4206  22.4207  22.4208
    22.4210  22.4211  22.4212  22.4213  23.0541  23.0542  23.0542  23.0545
    23.0545  23.0548  23.0548  23.0549  23.5834  23.5838  23.5841  23.5844
    27.4836  27.4837  27.4837  27.4839  27.4841  27.4842  27.4843  27.4844
    27.7746  27.7747  27.7748  27.7749  28.6262  28.6263  28.6265  28.6265
    28.8432  28.8433  28.8434  28.8435  28.8438  28.8439  28.8440  28.8441
    32.3010  32.3018

          k =-0.5000-0.4975-0.5000 ( 33152 PWs)   bands (ev):

   -64.9621 -64.9619 -64.9618 -64.9616 -64.9614 -64.9612 -64.9610 -64.9608
   -64.9312 -64.9311 -64.9309 -64.9307 -64.9305 -64.9304 -64.9304 -64.9303
   -64.9302 -64.9302 -64.9301 -64.9300 -64.9300 -64.9299 -64.9298 -64.9297
   -64.9297 -64.9295 -64.9295 -64.9294 -64.9293 -64.9292 -64.9291 -64.9289
   -30.8062 -30.8061 -30.8061 -30.8061 -30.8060 -30.8060 -30.8059 -30.8058
   -30.8058 -30.8057 -30.8057 -30.8056 -30.8056 -30.8055 -30.8055 -30.8055
   -30.8042 -30.8041 -30.8039 -30.8039 -30.8036 -30.8036 -30.8034 -30.8034
   -30.6850 -30.6849 -30.6848 -30.6848 -30.6847 -30.6846 -30.6846 -30.6845
   -30.6487 -30.6487 -30.6486 -30.6486 -30.6485 -30.6484 -30.6484 -30.6483
   -30.6482 -30.6482 -30.6482 -30.6481 -30.6481 -30.6481 -30.6481 -30.6480
   -30.6480 -30.6480 -30.6479 -30.6479 -30.6479 -30.6479 -30.6478 -30.6477
   -30.5961 -30.5961 -30.5960 -30.5960 -30.5959 -30.5959 -30.5958 -30.5958
   -30.5955 -30.5955 -30.5955 -30.5955 -30.5953 -30.5953 -30.5953 -30.5953
   -30.5932 -30.5932 -30.5932 -30.5932 -30.5930 -30.5930 -30.5930 -30.5930
   -30.5267 -30.5266 -30.5265 -30.5265 -30.5262 -30.5262 -30.5260 -30.5259
   -30.5251 -30.5251 -30.5250 -30.5250 -30.5249 -30.5249 -30.5249 -30.5249
    13.8317  13.8322  13.8323  13.8324  13.8326  13.8329  13.8329  13.8333
    14.6800  14.6800  14.6801  14.6802  14.6803  14.6804  14.6805  14.6805
    14.6828  14.6829  14.6829  14.6829  14.6830  14.6830  14.6831  14.6831
    14.6834  14.6834  14.6835  14.6835  14.6836  14.6836  14.6836  14.6836
    15.4323  15.4323  15.4325  15.4326  15.4326  15.4327  15.4327  15.4329
    15.4329  15.4331  15.4331  15.4333  15.4333  15.4334  15.4334  15.4335
    15.4362  15.4365  15.4365  15.4367  15.4368  15.4368  15.4370  15.4372
    16.3578  16.3580  16.3580  16.3580  16.3581  16.3581  16.3581  16.3582
    16.6443  16.6444  16.6444  16.6445  16.6445  16.6446  16.6446  16.6447
    16.6839  16.6839  16.6840  16.6840  16.6841  16.6842  16.6842  16.6843
    16.8335  16.8336  16.8336  16.8337  16.8337  16.8338  16.8338  16.8339
    16.8556  16.8557  16.8558  16.8558  16.8559  16.8560  16.8560  16.8560
    16.8561  16.8561  16.8562  16.8562  16.8563  16.8563  16.8564  16.8565
    17.5551  17.5551  17.5552  17.5552  17.5553  17.5553  17.5553  17.5554
    17.5555  17.5555  17.5556  17.5556  17.5557  17.5557  17.5557  17.5558
    17.5744  17.5745  17.5746  17.5747  17.5749  17.5749  17.5750  17.5751
    18.0565  18.0567  18.0567  18.0569  18.0569  18.0571  18.0571  18.0573
    18.0696  18.0697  18.0698  18.0699  18.0701  18.0703  18.0703  18.0704
    19.1415  19.1415  19.1416  19.1417  19.1417  19.1418  19.1419  19.1420
    19.1487  19.1487  19.1488  19.1488  19.1488  19.1488  19.1489  19.1489
    19.1489  19.1490  19.1490  19.1491  19.1491  19.1491  19.1492  19.1492
    22.6832  22.6833  22.6835  22.6836  22.6838  22.6839  22.6842  22.6843
    22.7243  22.7244  22.7245  22.7247  22.7248  22.7248  22.7248  22.7249
    22.7250  22.7251  22.7251  22.7252  22.7252  22.7254  22.7254  22.7255
    28.1220  28.1222  28.1223  28.1223  28.1224  28.1225  28.1225  28.1226
    28.1227  28.1228  28.1228  28.1229  28.1230  28.1231  28.1231  28.1232
    28.1684  28.1685  28.1686  28.1687  28.1688  28.1689  28.1690  28.1691
    33.3970  33.3975

     the Fermi energy is    19.1687 ev

!    total energy              =  -16384.95933362 Ry
     Harris-Foulkes estimate   =  -16384.95932267 Ry
     estimated scf accuracy    <       0.00000058 Ry

     total all-electron energy =   -322945.813041 Ry

     The total energy is the sum of the following terms:

     one-electron contribution =   -2501.11032020 Ry
     hartree contribution      =    1666.00553794 Ry
     xc contribution           =    -986.41340527 Ry
     ewald contribution        =   -6396.05433136 Ry
     one-center paw contrib.   =   -8167.42141266 Ry
     smearing contrib. (-TS)   =       0.03459792 Ry

     convergence has been achieved in  11 iterations

     Forces acting on atoms (cartesian axes, Ry/au):

     atom    1 type  1   force =     0.00000000    0.00000000   -0.00000000
     atom    2 type  1   force =    -0.00000454    0.00025908    0.00000000
     atom    3 type  1   force =    -0.00003163    0.00000000   -0.00003163
     atom    4 type  1   force =     0.00000000    0.00025908   -0.00000454
     atom    5 type  1   force =     0.00000000    0.00000000    0.00000000
     atom    6 type  1   force =     0.00004512    0.00043592   -0.00000000
     atom    7 type  1   force =    -0.00003163   -0.00000000    0.00003163
     atom    8 type  1   force =     0.00000000    0.00025908    0.00000454
     atom    9 type  1   force =     0.00000000    0.00000000    0.00000000
     atom   10 type  1   force =    -0.00000454   -0.00025908   -0.00000000
     atom   11 type  1   force =     0.00006193    0.00000000    0.00006193
     atom   12 type  1   force =     0.00000000   -0.00025908   -0.00000454
     atom   13 type  1   force =     0.00000000    0.00000000    0.00000000
     atom   14 type  1   force =     0.00004512   -0.00043592    0.00000000
     atom   15 type  1   force =     0.00006193    0.00000000   -0.00006193
     atom   16 type  1   force =     0.00000000   -0.00025908    0.00000454
     atom   17 type  1   force =     0.00000000    0.00000000   -0.00000000
     atom   18 type  1   force =     0.00000454    0.00025908   -0.00000000
     atom   19 type  1   force =     0.00003163   -0.00000000   -0.00003163
     atom   20 type  1   force =     0.00000000    0.00043592    0.00004512
     atom   21 type  1   force =     0.00000000    0.00000000    0.00000000
     atom   22 type  1   force =    -0.00004512    0.00043592    0.00000000
     atom   23 type  1   force =     0.00003163    0.00000000    0.00003163
     atom   24 type  1   force =    -0.00000000    0.00043592   -0.00004512
     atom   25 type  1   force =     0.00000000    0.00000000    0.00000000
     atom   26 type  1   force =     0.00000454   -0.00025908    0.00000000
     atom   27 type  1   force =    -0.00006193    0.00000000    0.00006193
     atom   28 type  1   force =    -0.00000000   -0.00043592    0.00004512
     atom   29 type  1   force =     0.00000000    0.00000000    0.00000000
     atom   30 type  1   force =    -0.00004512   -0.00043592   -0.00000000
     atom   31 type  1   force =    -0.00006193   -0.00000000   -0.00006193
     atom   32 type  1   force =     0.00000000   -0.00043592   -0.00004512

     Total force =     0.001453     Total SCF correction =     0.007284
     SCF correction compared to forces is large: reduce conv_thr to get better values


     Computing stress (Cartesian axis) and pressure

          total   stress  (Ry/bohr**3)                   (kbar)     P=   -7.05
  -0.00003958   0.00000000   0.00000000         -5.82      0.00      0.00
   0.00000000  -0.00006453   0.00000000          0.00     -9.49      0.00
   0.00000000   0.00000000  -0.00003958          0.00      0.00     -5.82


     Writing output data file pqvVypNpabeYxOKW.save/
 
     init_run     :     42.92s CPU     46.45s WALL (       1 calls)
     electrons    :   2010.37s CPU   2116.27s WALL (       1 calls)
     forces       :     18.74s CPU     19.46s WALL (       1 calls)
     stress       :    183.02s CPU    183.88s WALL (       1 calls)

     Called by init_run:
     wfcinit      :     42.12s CPU     45.56s WALL (       1 calls)
     potinit      :      0.44s CPU      0.46s WALL (       1 calls)
     hinit0       :      0.17s CPU      0.18s WALL (       1 calls)

     Called by electrons:
     c_bands      :   1823.03s CPU   1909.75s WALL (      12 calls)
     sum_band     :    183.28s CPU    202.07s WALL (      12 calls)
     v_of_rho     :      0.37s CPU      0.39s WALL (      12 calls)
     newd         :      0.85s CPU      1.13s WALL (      12 calls)
     PAW_pot      :      3.10s CPU      3.15s WALL (      12 calls)
     mix_rho      :      0.09s CPU      0.10s WALL (      12 calls)

     Called by c_bands:
     init_us_2    :     10.97s CPU     11.02s WALL (    2025 calls)
     cegterg      :   1762.67s CPU   1849.08s WALL (     900 calls)

     Called by sum_band:
     sum_band:bec :      1.38s CPU      1.39s WALL (     900 calls)
     addusdens    :      0.88s CPU      1.16s WALL (      12 calls)

     Called by *egterg:
     h_psi        :    739.79s CPU    817.20s WALL (    2657 calls)
     s_psi        :     86.47s CPU     86.81s WALL (    2657 calls)
     g_psi        :      2.48s CPU      2.49s WALL (    1682 calls)
     cdiaghg      :    663.81s CPU    666.27s WALL (    2507 calls)

     Called by h_psi:
     h_psi:pot    :    732.45s CPU    809.57s WALL (    2657 calls)
     h_psi:calbec :     88.54s CPU     92.85s WALL (    2657 calls)
     vloc_psi     :    558.22s CPU    630.47s WALL (    2657 calls)
     add_vuspsi   :     85.66s CPU     86.23s WALL (    2657 calls)

     General routines
     calbec       :    145.02s CPU    152.07s WALL (    3932 calls)
     fft          :      0.33s CPU      0.37s WALL (     181 calls)
     ffts         :      0.03s CPU      0.03s WALL (      24 calls)
     fftw         :    650.93s CPU    734.77s WALL ( 1695644 calls)
     interpolate  :      0.04s CPU      0.05s WALL (      12 calls)
 
     Parallel routines
     fft_scatt_xy :     49.38s CPU     55.28s WALL ( 1695849 calls)
     fft_scatt_yz :    400.72s CPU    455.10s WALL ( 1695849 calls)
 
     PWSCF        : 37m41.68s CPU    41m 4.95s WALL

 
   This run was terminated on:  18: 1: 5  11Nov2020            

=------------------------------------------------------------------------------=
   JOB DONE.
=------------------------------------------------------------------------------=
