--------------------------------------------------------------------------
WARNING: No preset parameters were found for the device that Open MPI
detected:

  Local host:            bear-pg0206u14b
  Device name:           mlx5_0
  Device vendor ID:      0x02c9
  Device vendor part ID: 4123

Default device parameters will be used, which may result in lower
performance.  You can edit any of the files specified by the
btl_openib_device_param_files MCA parameter to set values for your
device.

NOTE: You can turn off this warning by setting the MCA parameter
      btl_openib_warn_no_device_params_found to 0.
--------------------------------------------------------------------------
--------------------------------------------------------------------------
WARNING: There was an error initializing an OpenFabrics device.

  Local host:   bear-pg0206u14b
  Local device: mlx5_0
--------------------------------------------------------------------------

     Program PWSCF v.6.3 starts on 11Nov2020 at 15:59:45 

     This program is part of the open-source Quantum ESPRESSO suite
     for quantum simulation of materials; please cite
         "P. Giannozzi et al., J. Phys.:Condens. Matter 21 395502 (2009);
         "P. Giannozzi et al., J. Phys.:Condens. Matter 29 465901 (2017);
          URL http://www.quantum-espresso.org", 
     in publications or presentations arising from this work. More details at
     http://www.quantum-espresso.org/quote

     Parallel version (MPI & OpenMP), running on      20 processor cores
     Number of MPI processes:                20
     Threads/MPI process:                     1

     MPI processes distributed on     1 nodes
     R & G space division:  proc/nbgrp/npool/nimage =      20
     Reading input from wd/ec/ec_2_005.in
Warning: card &IONS ignored
Warning: card ION_DYNAMICS = 'BFGS', ignored
Warning: card / ignored
Warning: card &CELL ignored
Warning: card CELL_DYNAMICS = 'BFGS', ignored
Warning: card CELL_FACTOR = 2.0, ignored
Warning: card PRESS = 0.0, ignored
Warning: card / ignored

     Current dimensions of program PWSCF are:
     Max number of different atomic species (ntypx) = 10
     Max number of k-points (npk) =  40000
     Max angular momentum in pseudopotentials (lmaxx) =  3
               file Pd.pbe-spn-kjpaw_psl.1.0.0.UPF: wavefunction(s)  4S 5S 4D renormalized

     Subspace diagonalization in iterative solution of the eigenvalue problem:
     a serial algorithm will be used

 
     Parallelization info
     --------------------
     sticks:   dense  smooth     PW     G-vecs:    dense   smooth      PW
     Min         377     249     67                24671    13243    1876
     Max         378     250     69                24676    13246    1880
     Sum        7551    4989   1357               493467   264899   37577
 


     bravais-lattice index     =            0
     lattice parameter (alat)  =      14.8394  a.u.
     unit-cell volume          =    3278.6572 (a.u.)^3
     number of atoms/cell      =           32
     number of atomic types    =            1
     number of electrons       =       576.00
     number of Kohn-Sham states=          346
     kinetic-energy cutoff     =      71.0000  Ry
     charge density cutoff     =     430.0000  Ry
     convergence threshold     =      1.0E-06
     mixing beta               =       0.1000
     number of iterations used =           10  plain     mixing
     Exchange-correlation      = SLA PW PBX PBC ( 1  4  3  4 0 0)

     celldm(1)=  14.839420  celldm(2)=   0.000000  celldm(3)=   0.000000
     celldm(4)=   0.000000  celldm(5)=   0.000000  celldm(6)=   0.000000

     crystal axes: (cart. coord. in units of alat)
               a(1) = (   1.000000   0.000000   0.000000 )  
               a(2) = (   0.000000   1.003333   0.000000 )  
               a(3) = (   0.000000   0.000000   1.000000 )  

     reciprocal axes: (cart. coord. in units 2 pi/alat)
               b(1) = (  1.000000  0.000000  0.000000 )  
               b(2) = (  0.000000  0.996678  0.000000 )  
               b(3) = (  0.000000  0.000000  1.000000 )  


     PseudoPot. # 1 for Pd read from file:
     /rds/homes/b/bxp912/pp/Pd.pbe-spn-kjpaw_psl.1.0.0.UPF
     MD5 check sum: 790f2ebce206edfd9790dcb9844eca51
     Pseudo is Projector augmented-wave + core cor, Zval = 18.0
     Generated using "atomic" code by A. Dal Corso v.6.3
     Shape of augmentation charge: PSQ
     Using radial grid of 1235 points,  6 beta functions with: 
                l(1) =   0
                l(2) =   0
                l(3) =   1
                l(4) =   1
                l(5) =   2
                l(6) =   2
     Q(r) pseudized with 0 coefficients 


     atomic species   valence    mass     pseudopotential
        Pd            18.00   106.42000     Pd( 1.00)

     16 Sym. Ops., with inversion, found



   Cartesian axes

     site n.     atom                  positions (alat units)
         1           Pd  tau(   1) = (   0.0000000   0.0000000   0.0000000  )
         2           Pd  tau(   2) = (   0.2500045   0.2508378   0.0000000  )
         3           Pd  tau(   3) = (   0.2500045   0.0000000   0.2500040  )
         4           Pd  tau(   4) = (   0.0000000   0.2508378   0.2500040  )
         5           Pd  tau(   5) = (   0.0000000   0.0000000   0.4999990  )
         6           Pd  tau(   6) = (   0.2500116   0.2508450   0.4999990  )
         7           Pd  tau(   7) = (   0.2500045   0.0000000   0.7499950  )
         8           Pd  tau(   8) = (   0.0000000   0.2508378   0.7499950  )
         9           Pd  tau(   9) = (   0.0000000   0.5016665   0.0000000  )
        10           Pd  tau(  10) = (   0.2500045   0.7524952   0.0000000  )
        11           Pd  tau(  11) = (   0.2500116   0.5016665   0.2500109  )
        12           Pd  tau(  12) = (   0.0000000   0.7524952   0.2500040  )
        13           Pd  tau(  13) = (   0.0000000   0.5016665   0.4999990  )
        14           Pd  tau(  14) = (   0.2500116   0.7524881   0.4999990  )
        15           Pd  tau(  15) = (   0.2500116   0.5016665   0.7499881  )
        16           Pd  tau(  16) = (   0.0000000   0.7524952   0.7499950  )
        17           Pd  tau(  17) = (   0.4999998   0.0000000   0.0000000  )
        18           Pd  tau(  18) = (   0.7499952   0.2508378   0.0000000  )
        19           Pd  tau(  19) = (   0.7499952   0.0000000   0.2500040  )
        20           Pd  tau(  20) = (   0.4999998   0.2508450   0.2500109  )
        21           Pd  tau(  21) = (   0.4999998   0.0000000   0.4999990  )
        22           Pd  tau(  22) = (   0.7499881   0.2508450   0.4999990  )
        23           Pd  tau(  23) = (   0.7499952   0.0000000   0.7499950  )
        24           Pd  tau(  24) = (   0.4999998   0.2508450   0.7499881  )
        25           Pd  tau(  25) = (   0.4999998   0.5016665   0.0000000  )
        26           Pd  tau(  26) = (   0.7499952   0.7524952   0.0000000  )
        27           Pd  tau(  27) = (   0.7499881   0.5016665   0.2500109  )
        28           Pd  tau(  28) = (   0.4999998   0.7524881   0.2500109  )
        29           Pd  tau(  29) = (   0.4999998   0.5016665   0.4999990  )
        30           Pd  tau(  30) = (   0.7499881   0.7524881   0.4999990  )
        31           Pd  tau(  31) = (   0.7499881   0.5016665   0.7499881  )
        32           Pd  tau(  32) = (   0.4999998   0.7524881   0.7499881  )

     number of k points=    75  Marzari-Vanderbilt smearing, width (Ry)=  0.0400
                       cart. coord. in units 2pi/alat
        k(    1) = (   0.0555556   0.0553710   0.0555556), wk =   0.0219479
        k(    2) = (   0.0555556   0.0553710   0.1666667), wk =   0.0438957
        k(    3) = (   0.0555556   0.0553710   0.2777778), wk =   0.0438957
        k(    4) = (   0.0555556   0.0553710   0.3888889), wk =   0.0438957
        k(    5) = (   0.0555556   0.0553710  -0.5000000), wk =   0.0219479
        k(    6) = (   0.0555556   0.1661130   0.0555556), wk =   0.0219479
        k(    7) = (   0.0555556   0.1661130   0.1666667), wk =   0.0438957
        k(    8) = (   0.0555556   0.1661130   0.2777778), wk =   0.0438957
        k(    9) = (   0.0555556   0.1661130   0.3888889), wk =   0.0438957
        k(   10) = (   0.0555556   0.1661130  -0.5000000), wk =   0.0219479
        k(   11) = (   0.0555556   0.2768549   0.0555556), wk =   0.0219479
        k(   12) = (   0.0555556   0.2768549   0.1666667), wk =   0.0438957
        k(   13) = (   0.0555556   0.2768549   0.2777778), wk =   0.0438957
        k(   14) = (   0.0555556   0.2768549   0.3888889), wk =   0.0438957
        k(   15) = (   0.0555556   0.2768549  -0.5000000), wk =   0.0219479
        k(   16) = (   0.0555556   0.3875969   0.0555556), wk =   0.0219479
        k(   17) = (   0.0555556   0.3875969   0.1666667), wk =   0.0438957
        k(   18) = (   0.0555556   0.3875969   0.2777778), wk =   0.0438957
        k(   19) = (   0.0555556   0.3875969   0.3888889), wk =   0.0438957
        k(   20) = (   0.0555556   0.3875969  -0.5000000), wk =   0.0219479
        k(   21) = (   0.0555556  -0.4983389   0.0555556), wk =   0.0109739
        k(   22) = (   0.0555556  -0.4983389   0.1666667), wk =   0.0219479
        k(   23) = (   0.0555556  -0.4983389   0.2777778), wk =   0.0219479
        k(   24) = (   0.0555556  -0.4983389   0.3888889), wk =   0.0219479
        k(   25) = (   0.0555556  -0.4983389  -0.5000000), wk =   0.0109739
        k(   26) = (   0.1666667   0.0553710   0.1666667), wk =   0.0219479
        k(   27) = (   0.1666667   0.0553710   0.2777778), wk =   0.0438957
        k(   28) = (   0.1666667   0.0553710   0.3888889), wk =   0.0438957
        k(   29) = (   0.1666667   0.0553710  -0.5000000), wk =   0.0219479
        k(   30) = (   0.1666667   0.1661130   0.1666667), wk =   0.0219479
        k(   31) = (   0.1666667   0.1661130   0.2777778), wk =   0.0438957
        k(   32) = (   0.1666667   0.1661130   0.3888889), wk =   0.0438957
        k(   33) = (   0.1666667   0.1661130  -0.5000000), wk =   0.0219479
        k(   34) = (   0.1666667   0.2768549   0.1666667), wk =   0.0219479
        k(   35) = (   0.1666667   0.2768549   0.2777778), wk =   0.0438957
        k(   36) = (   0.1666667   0.2768549   0.3888889), wk =   0.0438957
        k(   37) = (   0.1666667   0.2768549  -0.5000000), wk =   0.0219479
        k(   38) = (   0.1666667   0.3875969   0.1666667), wk =   0.0219479
        k(   39) = (   0.1666667   0.3875969   0.2777778), wk =   0.0438957
        k(   40) = (   0.1666667   0.3875969   0.3888889), wk =   0.0438957
        k(   41) = (   0.1666667   0.3875969  -0.5000000), wk =   0.0219479
        k(   42) = (   0.1666667  -0.4983389   0.1666667), wk =   0.0109739
        k(   43) = (   0.1666667  -0.4983389   0.2777778), wk =   0.0219479
        k(   44) = (   0.1666667  -0.4983389   0.3888889), wk =   0.0219479
        k(   45) = (   0.1666667  -0.4983389  -0.5000000), wk =   0.0109739
        k(   46) = (   0.2777778   0.0553710   0.2777778), wk =   0.0219479
        k(   47) = (   0.2777778   0.0553710   0.3888889), wk =   0.0438957
        k(   48) = (   0.2777778   0.0553710  -0.5000000), wk =   0.0219479
        k(   49) = (   0.2777778   0.1661130   0.2777778), wk =   0.0219479
        k(   50) = (   0.2777778   0.1661130   0.3888889), wk =   0.0438957
        k(   51) = (   0.2777778   0.1661130  -0.5000000), wk =   0.0219479
        k(   52) = (   0.2777778   0.2768549   0.2777778), wk =   0.0219479
        k(   53) = (   0.2777778   0.2768549   0.3888889), wk =   0.0438957
        k(   54) = (   0.2777778   0.2768549  -0.5000000), wk =   0.0219479
        k(   55) = (   0.2777778   0.3875969   0.2777778), wk =   0.0219479
        k(   56) = (   0.2777778   0.3875969   0.3888889), wk =   0.0438957
        k(   57) = (   0.2777778   0.3875969  -0.5000000), wk =   0.0219479
        k(   58) = (   0.2777778  -0.4983389   0.2777778), wk =   0.0109739
        k(   59) = (   0.2777778  -0.4983389   0.3888889), wk =   0.0219479
        k(   60) = (   0.2777778  -0.4983389  -0.5000000), wk =   0.0109739
        k(   61) = (   0.3888889   0.0553710   0.3888889), wk =   0.0219479
        k(   62) = (   0.3888889   0.0553710  -0.5000000), wk =   0.0219479
        k(   63) = (   0.3888889   0.1661130   0.3888889), wk =   0.0219479
        k(   64) = (   0.3888889   0.1661130  -0.5000000), wk =   0.0219479
        k(   65) = (   0.3888889   0.2768549   0.3888889), wk =   0.0219479
        k(   66) = (   0.3888889   0.2768549  -0.5000000), wk =   0.0219479
        k(   67) = (   0.3888889   0.3875969   0.3888889), wk =   0.0219479
        k(   68) = (   0.3888889   0.3875969  -0.5000000), wk =   0.0219479
        k(   69) = (   0.3888889  -0.4983389   0.3888889), wk =   0.0109739
        k(   70) = (   0.3888889  -0.4983389  -0.5000000), wk =   0.0109739
        k(   71) = (  -0.5000000   0.0553710  -0.5000000), wk =   0.0054870
        k(   72) = (  -0.5000000   0.1661130  -0.5000000), wk =   0.0054870
        k(   73) = (  -0.5000000   0.2768549  -0.5000000), wk =   0.0054870
        k(   74) = (  -0.5000000   0.3875969  -0.5000000), wk =   0.0054870
        k(   75) = (  -0.5000000  -0.4983389  -0.5000000), wk =   0.0027435

     Dense  grid:   493467 G-vectors     FFT dimensions: ( 100, 100, 100)

     Smooth grid:   264899 G-vectors     FFT dimensions: (  80,  80,  80)

     Estimated max dynamical RAM per process >     893.69 MB

     Estimated total dynamical RAM >      17.45 GB

     Check: negative/imaginary core charge=   -0.000002    0.000000

     Initial potential from superposition of free atoms

     starting charge  575.98776, renormalised to  576.00000
     Starting wfcs are  320 randomized atomic wfcs +   26 random wfcs
     Checking if some PAW data can be deallocated... 

     total cpu time spent up to now is       45.4 secs

     Self-consistent Calculation

     iteration #  1     ecut=    71.00 Ry     beta= 0.10
     Davidson diagonalization with overlap
     ethr =  1.00E-02,  avg # of iterations =  3.1

     Threshold (ethr) on eigenvalues was too large:
     Diagonalizing with lowered threshold

     Davidson diagonalization with overlap
     ethr =  8.50E-05,  avg # of iterations =  3.0

     total cpu time spent up to now is      492.3 secs

     total energy              =  -16385.02214738 Ry
     Harris-Foulkes estimate   =  -16385.09109078 Ry
     estimated scf accuracy    <       0.48331826 Ry

     iteration #  2     ecut=    71.00 Ry     beta= 0.10
     Davidson diagonalization with overlap
     ethr =  8.39E-05,  avg # of iterations =  1.0

     total cpu time spent up to now is      628.7 secs

     total energy              =  -16384.93075428 Ry
     Harris-Foulkes estimate   =  -16385.03008242 Ry
     estimated scf accuracy    <       0.26300021 Ry

     iteration #  3     ecut=    71.00 Ry     beta= 0.10
     Davidson diagonalization with overlap
     ethr =  4.57E-05,  avg # of iterations =  2.1

     total cpu time spent up to now is      817.2 secs

     total energy              =  -16384.96169995 Ry
     Harris-Foulkes estimate   =  -16384.96879050 Ry
     estimated scf accuracy    <       0.09232456 Ry

     iteration #  4     ecut=    71.00 Ry     beta= 0.10
     Davidson diagonalization with overlap
     ethr =  1.60E-05,  avg # of iterations =  1.6

     total cpu time spent up to now is      969.7 secs

     total energy              =  -16384.96277751 Ry
     Harris-Foulkes estimate   =  -16384.96516718 Ry
     estimated scf accuracy    <       0.02177301 Ry

     iteration #  5     ecut=    71.00 Ry     beta= 0.10
     Davidson diagonalization with overlap
     ethr =  3.78E-06,  avg # of iterations =  1.2

     total cpu time spent up to now is     1113.1 secs

     total energy              =  -16384.95793522 Ry
     Harris-Foulkes estimate   =  -16384.96296728 Ry
     estimated scf accuracy    <       0.01443970 Ry

     iteration #  6     ecut=    71.00 Ry     beta= 0.10
     Davidson diagonalization with overlap
     ethr =  2.51E-06,  avg # of iterations =  1.1

     total cpu time spent up to now is     1252.8 secs

     total energy              =  -16384.95895773 Ry
     Harris-Foulkes estimate   =  -16384.95904453 Ry
     estimated scf accuracy    <       0.00109918 Ry

     iteration #  7     ecut=    71.00 Ry     beta= 0.10
     Davidson diagonalization with overlap
     ethr =  1.91E-07,  avg # of iterations =  3.2

     total cpu time spent up to now is     1469.3 secs

     total energy              =  -16384.95905723 Ry
     Harris-Foulkes estimate   =  -16384.95908827 Ry
     estimated scf accuracy    <       0.00014213 Ry

     iteration #  8     ecut=    71.00 Ry     beta= 0.10
     Davidson diagonalization with overlap
     ethr =  2.47E-08,  avg # of iterations =  1.0

     total cpu time spent up to now is     1605.3 secs

     total energy              =  -16384.95905492 Ry
     Harris-Foulkes estimate   =  -16384.95906109 Ry
     estimated scf accuracy    <       0.00005551 Ry

     iteration #  9     ecut=    71.00 Ry     beta= 0.10
     Davidson diagonalization with overlap
     ethr =  9.64E-09,  avg # of iterations =  1.0

     total cpu time spent up to now is     1740.3 secs

     total energy              =  -16384.95905391 Ry
     Harris-Foulkes estimate   =  -16384.95905605 Ry
     estimated scf accuracy    <       0.00003682 Ry

     iteration # 10     ecut=    71.00 Ry     beta= 0.10
     Davidson diagonalization with overlap
     ethr =  6.39E-09,  avg # of iterations =  2.0

     total cpu time spent up to now is     1932.2 secs

     total energy              =  -16384.95906123 Ry
     Harris-Foulkes estimate   =  -16384.95905838 Ry
     estimated scf accuracy    <       0.00000113 Ry

     iteration # 11     ecut=    71.00 Ry     beta= 0.10
     Davidson diagonalization with overlap
     ethr =  1.96E-10,  avg # of iterations =  2.0

     total cpu time spent up to now is     2102.9 secs

     End of self-consistent calculation

          k = 0.0556 0.0554 0.0556 ( 33087 PWs)   bands (ev):

   -64.9466 -64.9182 -64.9179 -64.9178 -64.9127 -64.9123 -64.9123 -64.9024
   -64.9023 -64.9022 -64.9000 -64.8997 -64.8995 -64.8994 -64.8993 -64.8993
   -64.8992 -64.8991 -64.8990 -64.8985 -64.8968 -64.8967 -64.8966 -64.8847
   -64.8840 -64.8839 -64.8838 -64.8837 -64.8835 -64.8834 -64.8833 -64.8830
   -30.8290 -30.8290 -30.8289 -30.8271 -30.8090 -30.8090 -30.8078 -30.7332
   -30.7310 -30.7309 -30.7290 -30.7290 -30.7267 -30.7267 -30.7265 -30.7265
   -30.7213 -30.7189 -30.7188 -30.7157 -30.7157 -30.7141 -30.7141 -30.7136
   -30.7136 -30.6974 -30.6974 -30.6955 -30.6955 -30.6952 -30.6951 -30.6557
   -30.6557 -30.6548 -30.6316 -30.6316 -30.6306 -30.6255 -30.6255 -30.6248
   -30.6165 -30.6165 -30.6161 -30.6161 -30.6153 -30.6153 -30.6018 -30.6016
   -30.6015 -30.6015 -30.6008 -30.6008 -30.6005 -30.6005 -30.6004 -30.5992
   -30.5992 -30.5983 -30.5979 -30.5978 -30.5967 -30.5366 -30.5366 -30.5348
   -30.5347 -30.5347 -30.5345 -30.5242 -30.5242 -30.5227 -30.5226 -30.5226
   -30.5225 -30.5202 -30.5201 -30.5187 -30.5163 -30.5157 -30.5155 -30.5151
   -30.5150 -30.5149 -30.5146 -30.5140 -30.5140 -30.5139 -30.5137 -30.5136
   -30.5132 -30.5123 -30.5080 -30.5079 -30.5068 -30.4625 -30.4602 -30.4602
    12.2328  13.9914  13.9915  13.9916  14.0580  14.0717  14.0717  14.0717
    14.2506  14.2619  14.2620  14.2652  14.2653  14.2653  14.4463  14.4573
    14.4574  14.9927  14.9928  15.0040  15.0041  15.0042  15.0043  15.1456
    15.1569  15.1569  15.3002  15.3009  15.3009  15.3296  15.3433  15.3434
    15.3820  15.3820  15.3834  15.3837  15.3838  15.3840  15.3841  15.3866
    15.3866  15.7212  15.7212  15.7281  15.7281  15.7304  15.7305  15.8260
    15.8370  15.8370  15.8472  15.8473  15.8585  15.8586  15.8600  15.8601
    15.9034  15.9162  15.9162  16.0744  16.0744  16.0823  16.0823  16.0855
    16.0855  16.1839  16.1839  16.1888  16.1889  16.1891  16.1892  16.1909
    16.1939  16.1940  16.2972  16.2973  16.2989  16.3474  16.3623  16.3623
    16.3681  16.3921  16.3921  16.3966  16.4009  16.4071  16.4299  16.4397
    17.2120  17.2288  17.2288  17.2814  17.2814  17.2886  17.3536  17.3537
    17.3546  17.3547  17.3603  17.3603  17.3604  17.3604  17.3658  17.3978
    17.4162  17.4162  17.5084  17.5085  17.5207  17.6297  17.6298  17.6331
    17.7515  17.7516  17.7627  17.8092  17.8093  17.8191  17.8837  17.8837
    17.8867  17.8867  17.8870  17.8871  17.9043  17.9044  17.9057  17.9361
    17.9565  17.9566  17.9571  17.9571  17.9656  17.9656  17.9675  18.0654
    18.0655  18.0741  18.4489  18.4489  18.4627  18.5508  18.5508  18.5626
    18.9334  18.9334  18.9426  19.0587  19.0588  19.0604  19.0796  19.0925
    19.0996  19.1095  19.1096  19.3331  19.3343  19.3343  19.3830  19.3830
    19.3838  19.3838  19.3909  19.3946  19.3946  19.4002  19.4003  20.0651
    20.3694  20.3694  20.3696  20.8778  20.8778  20.8966  21.3849  21.3849
    21.3860  21.3861  21.4080  21.4080  21.9125  21.9125  21.9383  22.4680
    22.5307  22.5307  26.2411  26.2411  26.2416  26.3981  27.3688  27.3689
    27.3976  27.3976  27.4265  27.4266  28.0602  28.0603  28.0874  28.0874
    28.1183  28.1185  29.4758  29.4758  29.4878  29.4878  29.5164  29.5165
    29.5949  29.6827  29.6827  30.5827  30.6420  30.6420  30.6522  30.6522
    30.6733  30.6733

          k = 0.0556 0.0554 0.1667 ( 33096 PWs)   bands (ev):

   -64.9457 -64.9233 -64.9177 -64.9173 -64.9123 -64.9119 -64.9069 -64.9053
   -64.9052 -64.9023 -64.9019 -64.9017 -64.9001 -64.9000 -64.8993 -64.8992
   -64.8988 -64.8985 -64.8967 -64.8964 -64.8962 -64.8944 -64.8942 -64.8848
   -64.8846 -64.8843 -64.8842 -64.8840 -64.8839 -64.8838 -64.8837 -64.8830
   -30.8262 -30.8245 -30.8245 -30.8213 -30.8058 -30.8046 -30.8038 -30.7425
   -30.7374 -30.7372 -30.7350 -30.7340 -30.7330 -30.7320 -30.7320 -30.7314
   -30.7293 -30.7223 -30.7197 -30.7191 -30.7178 -30.7144 -30.7125 -30.7112
   -30.7087 -30.7000 -30.6984 -30.6941 -30.6918 -30.6852 -30.6775 -30.6773
   -30.6606 -30.6595 -30.6468 -30.6456 -30.6318 -30.6313 -30.6308 -30.6300
   -30.6196 -30.6058 -30.6055 -30.6036 -30.6021 -30.6010 -30.6009 -30.6003
   -30.6001 -30.5993 -30.5988 -30.5963 -30.5957 -30.5955 -30.5954 -30.5945
   -30.5942 -30.5936 -30.5917 -30.5866 -30.5859 -30.5489 -30.5467 -30.5376
   -30.5374 -30.5336 -30.5319 -30.5276 -30.5261 -30.5253 -30.5252 -30.5243
   -30.5231 -30.5212 -30.5207 -30.5200 -30.5193 -30.5193 -30.5183 -30.5157
   -30.5156 -30.5151 -30.5149 -30.5148 -30.5140 -30.5123 -30.5123 -30.5120
   -30.5112 -30.5107 -30.5082 -30.5035 -30.5024 -30.4689 -30.4622 -30.4615
    12.3062  13.9628  14.0259  14.0378  14.0379  14.0858  14.1131  14.1132
    14.1265  14.2931  14.3022  14.3072  14.3074  14.3131  14.4985  14.5092
    14.5268  14.9179  14.9185  14.9786  15.0281  15.0345  15.0387  15.0454
    15.0703  15.1514  15.1515  15.1720  15.1824  15.1910  15.1956  15.1964
    15.3424  15.3428  15.3519  15.3646  15.3707  15.3747  15.4054  15.4130
    15.4537  15.4564  15.5327  15.7139  15.7169  15.7241  15.7312  15.7691
    15.7767  15.7786  15.7866  15.8365  15.8485  15.9258  15.9338  15.9499
    15.9944  15.9977  16.0407  16.0435  16.0479  16.0509  16.0541  16.0790
    16.0872  16.1284  16.1329  16.1570  16.1602  16.3265  16.3301  16.3387
    16.3391  16.3528  16.3580  16.3598  16.3809  16.3814  16.4049  16.4070
    16.4147  16.4151  16.4311  16.4380  16.4440  16.4602  16.4702  16.4731
    17.0249  17.0339  17.1405  17.1524  17.1599  17.1707  17.2203  17.2205
    17.2383  17.2822  17.3068  17.3136  17.4271  17.4363  17.4424  17.4509
    17.4543  17.4894  17.4931  17.4986  17.5064  17.7076  17.7165  17.7343
    17.7353  17.7437  17.8028  17.8030  17.8804  17.8831  17.8897  17.8904
    17.8927  17.8973  17.9153  17.9640  17.9679  17.9824  17.9833  18.0051
    18.0986  18.1006  18.1049  18.1056  18.1407  18.1475  18.1959  18.2130
    18.2203  18.2503  18.3504  18.4945  18.5065  18.6223  18.6242  18.6327
    18.6535  18.6708  18.6795  18.8863  18.9983  18.9989  19.0226  19.0353
    19.0753  19.0819  19.0855  19.1010  19.1143  19.2651  19.3132  19.3132
    19.3280  19.3289  19.3327  19.3802  19.3822  19.3845  19.3873  20.0530
    20.4160  20.4313  20.5370  20.5371  20.7674  20.8494  20.8968  20.9168
    21.3627  21.3639  21.8941  21.9527  21.9772  22.1678  22.4912  22.5192
    22.7603  22.8209  26.2404  26.4001  26.4014  26.6529  26.6888  26.6955
    26.7101  26.7156  27.2800  27.3077  27.5015  27.5307  28.1840  28.2124
    28.6991  28.7543  29.5150  29.5466  29.5819  29.6683  29.6715  29.7623
    29.8244  29.8498  29.8999  30.0578  30.1057  30.1376  30.2123  30.2151
    30.6048  30.7222

          k = 0.0556 0.0554 0.2778 ( 33090 PWs)   bands (ev):

   -64.9438 -64.9285 -64.9166 -64.9163 -64.9114 -64.9110 -64.9081 -64.9080
   -64.9043 -64.9041 -64.9022 -64.9017 -64.9006 -64.9000 -64.8993 -64.8992
   -64.8985 -64.8984 -64.8969 -64.8936 -64.8934 -64.8920 -64.8918 -64.8864
   -64.8853 -64.8851 -64.8850 -64.8847 -64.8846 -64.8839 -64.8837 -64.8830
   -30.8193 -30.8162 -30.8161 -30.8116 -30.7996 -30.7985 -30.7941 -30.7596
   -30.7540 -30.7538 -30.7491 -30.7484 -30.7458 -30.7364 -30.7348 -30.7342
   -30.7327 -30.7241 -30.7234 -30.7150 -30.7138 -30.7133 -30.7132 -30.7110
   -30.7006 -30.6992 -30.6991 -30.6966 -30.6881 -30.6860 -30.6692 -30.6677
   -30.6613 -30.6602 -30.6601 -30.6599 -30.6454 -30.6439 -30.6427 -30.6413
   -30.6095 -30.6088 -30.6013 -30.6009 -30.5998 -30.5991 -30.5965 -30.5951
   -30.5916 -30.5891 -30.5890 -30.5863 -30.5858 -30.5858 -30.5851 -30.5843
   -30.5841 -30.5764 -30.5724 -30.5719 -30.5667 -30.5606 -30.5581 -30.5429
   -30.5428 -30.5369 -30.5356 -30.5352 -30.5341 -30.5314 -30.5304 -30.5304
   -30.5284 -30.5272 -30.5270 -30.5266 -30.5209 -30.5197 -30.5167 -30.5157
   -30.5151 -30.5150 -30.5148 -30.5142 -30.5141 -30.5118 -30.5115 -30.5110
   -30.5086 -30.5014 -30.5005 -30.5003 -30.4993 -30.4800 -30.4664 -30.4654
    12.4512  13.6127  14.0920  14.1280  14.1281  14.1551  14.1954  14.1955
    14.2215  14.3482  14.3906  14.3914  14.4019  14.4120  14.4951  14.5996
    14.6096  14.7704  14.7710  14.8131  14.8240  14.9017  14.9017  14.9533
    15.0578  15.0606  15.0945  15.1031  15.1164  15.1263  15.1264  15.1322
    15.2243  15.2331  15.2422  15.2445  15.3534  15.3578  15.3955  15.4063
    15.5175  15.5216  15.6566  15.6600  15.6930  15.6975  15.7080  15.7120
    15.7192  15.7266  15.7338  15.7582  15.7598  15.8680  15.8732  15.9408
    15.9419  15.9971  15.9981  16.0010  16.0700  16.0746  16.0858  16.0941
    16.0948  16.1001  16.1689  16.1756  16.1777  16.2699  16.2970  16.3066
    16.3130  16.3571  16.3576  16.3690  16.4562  16.4835  16.4999  16.5064
    16.5068  16.5337  16.6714  16.6759  16.6907  16.7404  16.8219  16.8273
    16.8772  16.8917  16.8957  16.9027  16.9686  17.0468  17.0540  17.0542
    17.0715  17.0790  17.3824  17.3952  17.4002  17.4929  17.4982  17.5588
    17.5630  17.5753  17.5774  17.6334  17.6358  17.6629  17.6692  17.7266
    17.7331  17.8403  17.8682  17.8697  17.8705  17.8743  17.8928  17.8954
    17.9011  17.9013  17.9932  18.0984  18.1489  18.1500  18.1647  18.1650
    18.1738  18.2570  18.2580  18.2613  18.3021  18.3029  18.3048  18.3081
    18.3511  18.3546  18.3782  18.3935  18.3980  18.4667  18.6403  18.6472
    18.6989  18.7147  18.7199  18.7550  18.8554  18.8561  18.9049  18.9049
    18.9122  18.9849  18.9916  18.9993  19.0085  19.1316  19.1819  19.1822
    19.1937  19.1951  19.2186  19.3788  19.3813  19.3850  19.3867  19.9905
    20.0020  20.2225  20.4380  20.4547  20.7574  20.7581  20.7910  21.1350
    21.3152  21.3165  21.5568  21.8513  22.5875  22.6138  23.1319  23.1612
    23.2492  23.3077  25.8062  25.8329  25.9292  25.9860  26.3639  26.3926
    26.4123  26.7159  26.7180  27.1210  27.7480  27.7801  28.4213  28.4519
    28.7764  29.2041  29.2241  29.3195  29.3223  29.5296  29.5565  29.5743
    29.6397  29.6933  29.7085  29.8787  29.9191  29.9894  30.0892  30.1081
    30.1510  30.1524

          k = 0.0556 0.0554 0.3889 ( 33099 PWs)   bands (ev):

   -64.9410 -64.9332 -64.9151 -64.9148 -64.9108 -64.9105 -64.9101 -64.9098
   -64.9065 -64.9062 -64.9020 -64.9009 -64.9000 -64.8993 -64.8992 -64.8985
   -64.8980 -64.8970 -64.8969 -64.8910 -64.8908 -64.8899 -64.8897 -64.8891
   -64.8868 -64.8865 -64.8863 -64.8860 -64.8847 -64.8839 -64.8837 -64.8830
   -30.8084 -30.8043 -30.8042 -30.7984 -30.7904 -30.7895 -30.7799 -30.7776
   -30.7721 -30.7719 -30.7648 -30.7643 -30.7641 -30.7387 -30.7361 -30.7350
   -30.7311 -30.7301 -30.7291 -30.7290 -30.7197 -30.7193 -30.7031 -30.7007
   -30.6953 -30.6936 -30.6855 -30.6831 -30.6801 -30.6801 -30.6782 -30.6781
   -30.6746 -30.6731 -30.6585 -30.6568 -30.6563 -30.6545 -30.6443 -30.6442
   -30.6186 -30.6181 -30.6009 -30.6000 -30.5985 -30.5971 -30.5888 -30.5856
   -30.5813 -30.5737 -30.5735 -30.5728 -30.5725 -30.5723 -30.5720 -30.5713
   -30.5710 -30.5709 -30.5685 -30.5597 -30.5594 -30.5590 -30.5507 -30.5507
   -30.5478 -30.5475 -30.5467 -30.5467 -30.5453 -30.5400 -30.5388 -30.5386
   -30.5381 -30.5379 -30.5309 -30.5226 -30.5218 -30.5192 -30.5176 -30.5157
   -30.5150 -30.5149 -30.5142 -30.5135 -30.5132 -30.5107 -30.5092 -30.5090
   -30.5088 -30.5017 -30.5012 -30.4958 -30.4897 -30.4886 -30.4724 -30.4714
    12.6639  13.2602  14.1844  14.2570  14.2572  14.2652  14.3175  14.3176
    14.3549  14.4056  14.4295  14.5152  14.5170  14.5424  14.5513  14.5941
    14.5946  14.6026  14.6644  14.6740  14.6741  14.7260  14.7421  14.7510
    14.8845  14.8888  14.8905  14.8955  15.0895  15.0946  15.1813  15.1866
    15.2343  15.2427  15.3018  15.3082  15.3243  15.3276  15.4582  15.4661
    15.5195  15.5213  15.5260  15.5263  15.6241  15.6243  15.6630  15.6658
    15.6799  15.6868  15.7198  15.7261  15.7648  15.7758  15.8964  15.9096
    15.9122  15.9436  15.9453  16.0581  16.0916  16.0923  16.1015  16.1025
    16.1309  16.1369  16.1966  16.2015  16.2365  16.2486  16.2598  16.2763
    16.2785  16.3356  16.4053  16.4065  16.5433  16.5828  16.5946  16.6028
    16.6126  16.6284  16.6429  16.6464  16.6511  16.6558  16.8045  16.8459
    16.8556  16.8824  16.9016  16.9037  17.0855  17.0870  17.0891  17.1034
    17.3203  17.3362  17.4624  17.4653  17.4740  17.4878  17.4906  17.6566
    17.6580  17.6920  17.6936  17.7004  17.7033  17.7163  17.7206  17.7322
    17.7538  17.7554  17.8383  17.8400  17.8722  17.8795  17.8815  17.8838
    17.8843  17.8939  17.8978  17.9116  17.9138  17.9956  18.0398  18.1110
    18.1121  18.1740  18.2500  18.2671  18.3514  18.3525  18.3852  18.4247
    18.5063  18.5092  18.5094  18.5676  18.5750  18.5755  18.5965  18.5973
    18.7486  18.7487  18.7641  18.8542  18.8619  18.8677  18.8923  18.8935
    18.9015  18.9025  18.9422  19.0043  19.0063  19.0134  19.0141  19.0789
    19.1966  19.2018  19.3409  19.3789  19.3804  19.3853  19.3864  19.5948
    19.6025  20.0017  20.0150  20.4109  20.6999  20.8247  20.9596  20.9608
    21.2367  21.2381  21.4282  21.7715  23.2958  23.3229  23.8413  23.8492
    23.8712  23.9065  24.9194  24.9464  25.2111  25.2677  25.4664  25.4958
    26.7658  27.1814  27.1839  27.6640  27.9742  28.0977  28.1326  28.5027
    28.5055  28.7549  28.7885  29.0119  29.0533  29.0565  29.3988  29.4397
    29.5196  29.5967  29.6218  29.6626  30.0601  30.0893  30.1214  30.1318
    30.2884  30.3524

          k = 0.0556 0.0554-0.5000 ( 33118 PWs)   bands (ev):

   -64.9378 -64.9371 -64.9135 -64.9133 -64.9127 -64.9125 -64.9088 -64.9085
   -64.9081 -64.9078 -64.9019 -64.9011 -64.9000 -64.8993 -64.8992 -64.8985
   -64.8979 -64.8971 -64.8931 -64.8923 -64.8891 -64.8888 -64.8883 -64.8883
   -64.8881 -64.8880 -64.8876 -64.8873 -64.8847 -64.8839 -64.8837 -64.8830
   -30.7945 -30.7942 -30.7898 -30.7894 -30.7890 -30.7886 -30.7824 -30.7820
   -30.7792 -30.7784 -30.7783 -30.7775 -30.7615 -30.7608 -30.7337 -30.7334
   -30.7332 -30.7329 -30.7259 -30.7257 -30.7256 -30.7254 -30.6919 -30.6915
   -30.6898 -30.6894 -30.6865 -30.6858 -30.6848 -30.6841 -30.6711 -30.6708
   -30.6706 -30.6698 -30.6689 -30.6686 -30.6686 -30.6679 -30.6307 -30.6304
   -30.6300 -30.6297 -30.6009 -30.6002 -30.5982 -30.5975 -30.5812 -30.5805
   -30.5782 -30.5774 -30.5625 -30.5622 -30.5612 -30.5610 -30.5608 -30.5604
   -30.5604 -30.5604 -30.5602 -30.5601 -30.5600 -30.5597 -30.5592 -30.5589
   -30.5542 -30.5539 -30.5535 -30.5532 -30.5482 -30.5479 -30.5474 -30.5471
   -30.5443 -30.5440 -30.5188 -30.5181 -30.5174 -30.5173 -30.5170 -30.5169
   -30.5163 -30.5157 -30.5156 -30.5150 -30.5149 -30.5142 -30.5102 -30.5094
   -30.5045 -30.5044 -30.5042 -30.5041 -30.4807 -30.4799 -30.4795 -30.4789
    12.9369  12.9379  14.2936  14.2944  14.4150  14.4151  14.4160  14.4167
    14.4168  14.4175  14.4775  14.4775  14.4783  14.4784  14.5243  14.5243
    14.5352  14.5360  14.6799  14.6807  14.6828  14.6836  14.7110  14.7117
    14.7181  14.7189  14.9124  14.9131  14.9196  14.9204  15.2675  15.2678
    15.2681  15.2684  15.3796  15.3804  15.3852  15.3859  15.4028  15.4034
    15.4063  15.4070  15.5360  15.5366  15.5403  15.5409  15.6915  15.6918
    15.6948  15.6950  15.6968  15.6969  15.7069  15.7070  15.9114  15.9114
    15.9123  15.9124  16.0574  16.0581  16.0938  16.0945  16.1044  16.1050
    16.1282  16.1287  16.1909  16.1915  16.1991  16.1996  16.2899  16.2904
    16.4406  16.4407  16.4437  16.4438  16.5012  16.5014  16.5034  16.5035
    16.6606  16.6608  16.7089  16.7091  16.7180  16.7182  16.7288  16.7295
    16.7459  16.7462  16.7522  16.7530  17.4794  17.4797  17.4814  17.4816
    17.4823  17.4825  17.4829  17.4830  17.4839  17.4842  17.5277  17.5280
    17.6034  17.6041  17.6992  17.6998  17.7007  17.7014  17.7808  17.7815
    17.7819  17.7823  17.7824  17.7830  17.7983  17.7987  17.7988  17.7989
    17.7992  17.7993  17.8357  17.8363  17.8374  17.8380  18.0103  18.0105
    18.0110  18.0112  18.1002  18.1010  18.5587  18.5593  18.5595  18.5601
    18.5855  18.5856  18.6966  18.6968  18.7010  18.7012  18.7033  18.7040
    18.7309  18.7312  18.7434  18.7436  18.7961  18.7967  18.8009  18.8015
    18.8051  18.8056  18.8085  18.8091  18.9562  18.9566  19.2286  19.2287
    19.2322  19.2324  19.3791  19.3799  19.3855  19.3862  19.5861  19.5862
    19.5956  19.5958  20.0633  20.0640  20.5728  20.5736  21.1198  21.1205
    21.1211  21.1219  21.6365  21.6372  24.0758  24.0761  24.1031  24.1035
    24.5117  24.5123  24.5684  24.5690  24.6209  24.6212  24.6508  24.6511
    27.2939  27.2940  27.7830  27.7831  27.7859  27.7860  28.3133  28.3135
    28.5263  28.5271  28.5644  28.5652  29.1626  29.1634  29.1997  29.2005
    29.4701  29.4708  29.5358  29.5365  30.2322  30.2330  30.3030  30.3039
    30.5182  30.5191

          k = 0.0556 0.1661 0.0556 ( 33097 PWs)   bands (ev):

   -64.9457 -64.9236 -64.9174 -64.9173 -64.9119 -64.9119 -64.9074 -64.9053
   -64.9052 -64.9022 -64.9018 -64.9017 -64.9002 -64.8994 -64.8993 -64.8992
   -64.8991 -64.8988 -64.8969 -64.8964 -64.8963 -64.8943 -64.8942 -64.8855
   -64.8844 -64.8844 -64.8843 -64.8841 -64.8835 -64.8835 -64.8834 -64.8832
   -30.8262 -30.8245 -30.8245 -30.8214 -30.8059 -30.8059 -30.8028 -30.7443
   -30.7392 -30.7392 -30.7333 -30.7333 -30.7328 -30.7328 -30.7317 -30.7316
   -30.7314 -30.7201 -30.7200 -30.7173 -30.7172 -30.7128 -30.7128 -30.7089
   -30.7089 -30.6981 -30.6980 -30.6921 -30.6921 -30.6842 -30.6798 -30.6798
   -30.6604 -30.6604 -30.6465 -30.6465 -30.6314 -30.6314 -30.6307 -30.6307
   -30.6190 -30.6053 -30.6053 -30.6051 -30.6050 -30.6015 -30.6015 -30.5991
   -30.5991 -30.5974 -30.5973 -30.5964 -30.5954 -30.5952 -30.5951 -30.5950
   -30.5949 -30.5944 -30.5911 -30.5869 -30.5869 -30.5468 -30.5463 -30.5394
   -30.5394 -30.5321 -30.5321 -30.5277 -30.5277 -30.5269 -30.5269 -30.5244
   -30.5243 -30.5224 -30.5197 -30.5197 -30.5194 -30.5194 -30.5186 -30.5159
   -30.5144 -30.5139 -30.5138 -30.5137 -30.5136 -30.5123 -30.5122 -30.5112
   -30.5107 -30.5104 -30.5070 -30.5034 -30.5034 -30.4687 -30.4621 -30.4615
    12.3057  13.9524  14.0253  14.0374  14.0374  14.0858  14.1130  14.1131
    14.1264  14.2926  14.3074  14.3074  14.3127  14.3128  14.5087  14.5087
    14.5171  14.9080  14.9080  14.9696  15.0382  15.0383  15.0452  15.0453
    15.0689  15.1492  15.1492  15.1829  15.1830  15.1882  15.1952  15.1952
    15.3415  15.3416  15.3651  15.3652  15.3740  15.3741  15.4111  15.4111
    15.4563  15.4563  15.5165  15.7086  15.7086  15.7332  15.7332  15.7790
    15.7791  15.7883  15.7884  15.8458  15.8458  15.9336  15.9337  15.9396
    15.9842  15.9842  16.0302  16.0434  16.0435  16.0445  16.0445  16.0900
    16.0901  16.1306  16.1307  16.1621  16.1622  16.3076  16.3323  16.3323
    16.3431  16.3432  16.3579  16.3635  16.3635  16.3689  16.4092  16.4185
    16.4193  16.4360  16.4360  16.4504  16.4665  16.4689  16.4689  16.4718
    17.0407  17.0408  17.1441  17.1509  17.1758  17.1759  17.2296  17.2297
    17.2467  17.2950  17.3046  17.3046  17.4244  17.4355  17.4356  17.4483
    17.4484  17.4860  17.4860  17.4905  17.4906  17.7060  17.7061  17.7188
    17.7302  17.7303  17.8019  17.8020  17.8826  17.8827  17.8886  17.8886
    17.8913  17.8913  17.8957  17.9742  17.9793  17.9794  17.9834  18.0151
    18.0990  18.0990  18.1108  18.1108  18.1407  18.1408  18.2014  18.2126
    18.2127  18.2434  18.3662  18.4955  18.4956  18.6243  18.6244  18.6298
    18.6633  18.6773  18.6773  18.8929  18.9966  18.9966  19.0136  19.0374
    19.0726  19.0769  19.0769  19.1000  19.1000  19.2641  19.3122  19.3123
    19.3138  19.3139  19.3300  19.3983  19.3983  19.4002  19.4002  20.0574
    20.4165  20.4166  20.5404  20.5405  20.7701  20.8676  20.8985  20.8985
    21.3851  21.3851  21.9189  21.9495  21.9495  22.1079  22.4892  22.4893
    22.8176  22.8176  26.2391  26.3984  26.3984  26.6596  26.6596  26.6841
    26.6841  26.6931  27.2526  27.2527  27.5572  27.5572  28.2418  28.2419
    28.7256  28.7256  29.5635  29.5635  29.6287  29.6687  29.6687  29.8178
    29.8178  29.8860  29.8861  30.0472  30.1087  30.1087  30.1727  30.1727
    30.6572  30.6573

          k = 0.0556 0.1661 0.1667 ( 33105 PWs)   bands (ev):

   -64.9447 -64.9229 -64.9227 -64.9168 -64.9115 -64.9087 -64.9070 -64.9065
   -64.9051 -64.9050 -64.9018 -64.9016 -64.9011 -64.8996 -64.8987 -64.8985
   -64.8982 -64.8980 -64.8964 -64.8963 -64.8945 -64.8944 -64.8922 -64.8855
   -64.8849 -64.8847 -64.8845 -64.8843 -64.8841 -64.8840 -64.8838 -64.8832
   -30.8235 -30.8235 -30.8189 -30.8142 -30.8027 -30.8011 -30.8000 -30.7468
   -30.7452 -30.7444 -30.7425 -30.7349 -30.7332 -30.7319 -30.7319 -30.7309
   -30.7301 -30.7295 -30.7288 -30.7283 -30.7214 -30.7209 -30.7207 -30.7189
   -30.6955 -30.6895 -30.6893 -30.6884 -30.6874 -30.6847 -30.6827 -30.6769
   -30.6746 -30.6656 -30.6620 -30.6380 -30.6331 -30.6328 -30.6193 -30.6189
   -30.6159 -30.6150 -30.6102 -30.6031 -30.6027 -30.6022 -30.5999 -30.5958
   -30.5953 -30.5952 -30.5948 -30.5945 -30.5940 -30.5931 -30.5922 -30.5913
   -30.5904 -30.5901 -30.5781 -30.5775 -30.5726 -30.5517 -30.5495 -30.5444
   -30.5442 -30.5363 -30.5342 -30.5331 -30.5274 -30.5273 -30.5268 -30.5258
   -30.5241 -30.5232 -30.5231 -30.5230 -30.5226 -30.5216 -30.5182 -30.5171
   -30.5166 -30.5163 -30.5145 -30.5136 -30.5132 -30.5124 -30.5114 -30.5113
   -30.5071 -30.5070 -30.5038 -30.5028 -30.4971 -30.4766 -30.4641 -30.4613
    12.3782  14.0052  14.0149  14.0719  14.0720  14.0790  14.0985  14.1396
    14.1794  14.1795  14.3344  14.3347  14.3523  14.3532  14.5469  14.5696
    14.5786  14.9312  14.9394  14.9506  14.9605  14.9824  14.9827  14.9997
    15.0085  15.0250  15.0789  15.0791  15.0951  15.0960  15.2201  15.2205
    15.2233  15.2292  15.2318  15.2835  15.3964  15.4229  15.4242  15.4245
    15.4280  15.4564  15.4578  15.5345  15.5500  15.6846  15.6913  15.7729
    15.7741  15.7845  15.8725  15.8783  15.8874  15.8920  15.9497  15.9542
    15.9622  16.0158  16.0253  16.0294  16.0371  16.0814  16.0896  16.1862
    16.2314  16.2345  16.2662  16.2746  16.2850  16.2858  16.3368  16.3491
    16.3906  16.3917  16.3936  16.3954  16.3960  16.4063  16.4136  16.4277
    16.4560  16.4631  16.4636  16.4670  16.4707  16.4878  16.4965  16.5001
    16.9383  16.9865  16.9993  17.0473  17.1429  17.1558  17.2524  17.2672
    17.2722  17.2832  17.2853  17.3316  17.3399  17.3547  17.3635  17.4082
    17.4111  17.4249  17.4984  17.5683  17.5802  17.5821  17.5984  17.6004
    17.6197  17.8779  17.8785  17.8903  17.8923  17.8986  17.9670  17.9678
    17.9701  17.9815  17.9864  17.9920  17.9932  17.9947  18.0743  18.0787
    18.1015  18.1024  18.2799  18.2850  18.3202  18.3320  18.3371  18.3386
    18.3791  18.3799  18.3826  18.3930  18.4400  18.4432  18.4718  18.5109
    18.6340  18.7417  18.7939  18.7973  18.9257  18.9297  18.9318  18.9469
    19.0469  19.0721  19.0732  19.0866  19.0909  19.1059  19.2551  19.2558
    19.3109  19.3155  19.3273  19.3286  19.3299  19.3380  19.3527  19.7750
    19.9873  20.3853  20.3997  20.4380  20.8750  20.8928  21.0628  21.0638
    21.4415  21.4453  21.9372  21.9639  22.3990  22.4532  22.4776  22.5063
    23.0726  23.0792  26.0350  26.0656  26.2372  26.2387  26.6994  26.7493
    26.8009  26.8205  26.8448  27.0999  27.3817  27.4339  27.8187  27.8454
    28.8531  28.8827  29.1092  29.1543  29.5462  29.6482  29.6496  29.6934
    29.7826  29.7856  29.9840  30.0099  30.0385  30.1274  30.4598  30.4828
    30.7453  30.7976

          k = 0.0556 0.1661 0.2778 ( 33098 PWs)   bands (ev):

   -64.9429 -64.9278 -64.9217 -64.9158 -64.9120 -64.9107 -64.9077 -64.9063
   -64.9048 -64.9039 -64.9020 -64.9016 -64.9014 -64.9004 -64.9001 -64.8979
   -64.8974 -64.8965 -64.8950 -64.8947 -64.8937 -64.8923 -64.8903 -64.8864
   -64.8858 -64.8856 -64.8853 -64.8852 -64.8845 -64.8845 -64.8841 -64.8832
   -30.8181 -30.8167 -30.8095 -30.8032 -30.7965 -30.7943 -30.7917 -30.7625
   -30.7588 -30.7485 -30.7468 -30.7467 -30.7464 -30.7459 -30.7372 -30.7352
   -30.7350 -30.7299 -30.7289 -30.7268 -30.7263 -30.7230 -30.7223 -30.7150
   -30.7084 -30.6933 -30.6921 -30.6846 -30.6803 -30.6793 -30.6766 -30.6748
   -30.6713 -30.6670 -30.6576 -30.6495 -30.6458 -30.6325 -30.6297 -30.6177
   -30.6148 -30.6134 -30.6064 -30.6019 -30.5999 -30.5987 -30.5954 -30.5945
   -30.5943 -30.5938 -30.5910 -30.5861 -30.5833 -30.5821 -30.5811 -30.5782
   -30.5775 -30.5751 -30.5645 -30.5644 -30.5636 -30.5588 -30.5562 -30.5550
   -30.5408 -30.5400 -30.5394 -30.5382 -30.5359 -30.5353 -30.5349 -30.5337
   -30.5302 -30.5265 -30.5265 -30.5239 -30.5237 -30.5231 -30.5197 -30.5188
   -30.5183 -30.5170 -30.5164 -30.5164 -30.5128 -30.5115 -30.5106 -30.5046
   -30.5029 -30.5017 -30.5011 -30.4954 -30.4931 -30.4890 -30.4684 -30.4636
    12.5213  13.6681  14.1076  14.1386  14.1516  14.1606  14.1627  14.2061
    14.2711  14.2836  14.3889  14.4176  14.4298  14.4412  14.5461  14.6184
    14.6717  14.7528  14.7800  14.8114  14.8342  14.8463  14.8522  14.8843
    14.9724  14.9876  15.0105  15.0204  15.0342  15.0600  15.1414  15.1489
    15.1585  15.1704  15.2043  15.2512  15.2957  15.3123  15.3436  15.4458
    15.4592  15.4666  15.5095  15.5687  15.6157  15.6340  15.6366  15.7318
    15.7330  15.7443  15.7613  15.7753  15.8271  15.8838  15.8984  15.9401
    15.9417  15.9513  16.0380  16.0938  16.1340  16.1441  16.1885  16.2006
    16.2097  16.2176  16.2382  16.2613  16.2936  16.3147  16.3199  16.3446
    16.3709  16.4032  16.4500  16.4648  16.5002  16.5128  16.5164  16.5195
    16.5585  16.5727  16.5742  16.5837  16.6038  16.7043  16.7834  16.8060
    16.8311  16.8459  16.8745  16.9644  16.9711  17.0640  17.0796  17.0945
    17.1672  17.1848  17.2064  17.2767  17.2798  17.3580  17.3582  17.4681
    17.4805  17.4981  17.5107  17.5554  17.6023  17.6859  17.7405  17.7406
    17.7593  17.8359  17.8469  17.8626  17.8956  17.9391  17.9796  17.9828
    18.0080  18.0541  18.0599  18.0979  18.1073  18.1160  18.1189  18.1286
    18.1347  18.1661  18.2370  18.2740  18.3005  18.3318  18.3614  18.4278
    18.4370  18.4630  18.4671  18.4737  18.4832  18.4996  18.5010  18.5856
    18.6046  18.6166  18.7130  18.7900  18.8239  18.8460  18.9223  18.9441
    19.0114  19.0498  19.0507  19.0541  19.1390  19.1487  19.1488  19.1551
    19.1936  19.1973  19.2297  19.3099  19.3172  19.3258  19.3264  19.5998
    19.8035  19.9699  20.3223  20.4314  20.4630  20.8276  20.9553  21.3481
    21.5474  21.8459  21.9071  22.0665  22.4436  22.6135  22.8774  23.1573
    23.5316  23.7109  25.2324  25.3889  25.8996  26.1307  26.2415  26.4025
    26.4139  26.8932  27.0654  27.1083  27.1289  27.5910  27.6062  28.2647
    28.3491  28.6136  28.7961  28.9792  29.0862  29.1510  29.4320  29.6043
    29.7831  29.8841  29.8953  30.0204  30.1212  30.3782  30.4654  30.4977
    30.7108  30.7524

          k = 0.0556 0.1661 0.3889 ( 33113 PWs)   bands (ev):

   -64.9402 -64.9325 -64.9200 -64.9150 -64.9144 -64.9102 -64.9095 -64.9060
   -64.9053 -64.9043 -64.9028 -64.9022 -64.9014 -64.9004 -64.8976 -64.8967
   -64.8966 -64.8966 -64.8951 -64.8920 -64.8912 -64.8902 -64.8891 -64.8885
   -64.8871 -64.8870 -64.8867 -64.8855 -64.8854 -64.8846 -64.8840 -64.8832
   -30.8088 -30.8062 -30.7967 -30.7890 -30.7875 -30.7861 -30.7800 -30.7783
   -30.7762 -30.7637 -30.7628 -30.7621 -30.7537 -30.7462 -30.7442 -30.7393
   -30.7392 -30.7386 -30.7375 -30.7334 -30.7244 -30.7211 -30.7163 -30.7111
   -30.7007 -30.6986 -30.6941 -30.6894 -30.6864 -30.6775 -30.6688 -30.6639
   -30.6637 -30.6635 -30.6578 -30.6522 -30.6453 -30.6424 -30.6417 -30.6301
   -30.6273 -30.6158 -30.5953 -30.5946 -30.5939 -30.5935 -30.5923 -30.5922
   -30.5860 -30.5847 -30.5829 -30.5749 -30.5745 -30.5719 -30.5711 -30.5698
   -30.5671 -30.5661 -30.5632 -30.5614 -30.5536 -30.5527 -30.5499 -30.5495
   -30.5491 -30.5489 -30.5485 -30.5464 -30.5462 -30.5458 -30.5457 -30.5353
   -30.5334 -30.5329 -30.5266 -30.5256 -30.5254 -30.5244 -30.5240 -30.5229
   -30.5219 -30.5205 -30.5152 -30.5138 -30.5134 -30.5107 -30.5088 -30.5056
   -30.5054 -30.5021 -30.4966 -30.4921 -30.4919 -30.4848 -30.4746 -30.4685
    12.7313  13.3198  14.2318  14.2448  14.2536  14.2785  14.2926  14.3119
    14.4003  14.4232  14.4552  14.4690  14.5336  14.5418  14.5479  14.5722
    14.6000  14.6319  14.6329  14.6370  14.7001  14.7139  14.7622  14.7729
    14.7938  14.8166  14.9091  14.9266  14.9425  15.0237  15.1375  15.1507
    15.1553  15.1762  15.2172  15.2732  15.2761  15.3989  15.4113  15.4308
    15.4592  15.4781  15.5344  15.5536  15.5682  15.5793  15.5809  15.5890
    15.6154  15.6671  15.7203  15.7529  15.7586  15.8196  15.9040  15.9222
    15.9557  16.0006  16.1074  16.1170  16.1422  16.1681  16.1889  16.1890
    16.1928  16.1970  16.2357  16.2871  16.2876  16.2928  16.3147  16.3337
    16.3881  16.4084  16.4266  16.5418  16.5554  16.6024  16.6060  16.6282
    16.6340  16.6443  16.6817  16.6874  16.7038  16.7670  16.7707  16.7801
    16.8702  16.8850  16.8864  16.9718  16.9976  17.0190  17.0561  17.0761
    17.2353  17.2557  17.2778  17.2924  17.3052  17.3243  17.4228  17.5129
    17.5157  17.5326  17.5971  17.6455  17.6937  17.7080  17.7169  17.7172
    17.7376  17.7413  17.7918  17.8237  17.8624  17.8859  17.8904  17.8957
    17.9536  17.9622  18.0051  18.0303  18.0608  18.1139  18.1388  18.1446
    18.1791  18.1833  18.1922  18.3228  18.3409  18.3435  18.3704  18.3772
    18.4866  18.5277  18.5685  18.5960  18.6355  18.6557  18.6615  18.6690
    18.6722  18.6753  18.7011  18.7655  18.7664  18.8645  18.8688  18.8963
    18.9222  18.9603  18.9612  19.0063  19.0067  19.0156  19.0192  19.1028
    19.1785  19.2480  19.3098  19.3156  19.3191  19.3232  19.5706  19.5792
    19.7072  19.9506  19.9931  20.2271  20.4842  20.5557  20.7559  21.1274
    21.5806  21.8483  21.9375  22.3645  22.7653  23.3380  23.4547  23.8779
    24.1017  24.3687  24.4128  24.7332  24.9951  25.4248  25.5210  26.0167
    26.4460  26.7727  27.3443  27.4619  27.4875  27.6752  27.8907  27.9908
    28.1464  28.2037  28.4279  28.6856  28.8442  29.0718  29.4098  29.5033
    29.6427  29.7877  29.8299  29.9794  29.9892  30.2435  30.2713  30.3041
    30.3742  30.6544

          k = 0.0556 0.1661-0.5000 ( 33118 PWs)   bands (ev):

   -64.9370 -64.9363 -64.9181 -64.9173 -64.9129 -64.9121 -64.9082 -64.9075
   -64.9042 -64.9040 -64.9035 -64.9032 -64.9013 -64.9006 -64.8975 -64.8967
   -64.8962 -64.8955 -64.8929 -64.8922 -64.8896 -64.8894 -64.8889 -64.8887
   -64.8886 -64.8879 -64.8873 -64.8865 -64.8854 -64.8846 -64.8840 -64.8832
   -30.7961 -30.7958 -30.7926 -30.7922 -30.7813 -30.7809 -30.7763 -30.7759
   -30.7755 -30.7751 -30.7722 -30.7719 -30.7609 -30.7602 -30.7431 -30.7430
   -30.7402 -30.7397 -30.7396 -30.7395 -30.7202 -30.7201 -30.7089 -30.7084
   -30.6990 -30.6986 -30.6985 -30.6981 -30.6792 -30.6788 -30.6687 -30.6683
   -30.6577 -30.6572 -30.6542 -30.6534 -30.6470 -30.6468 -30.6391 -30.6386
   -30.6280 -30.6273 -30.5953 -30.5946 -30.5937 -30.5933 -30.5846 -30.5838
   -30.5771 -30.5763 -30.5740 -30.5732 -30.5720 -30.5717 -30.5649 -30.5646
   -30.5624 -30.5619 -30.5606 -30.5604 -30.5589 -30.5585 -30.5578 -30.5575
   -30.5557 -30.5550 -30.5462 -30.5459 -30.5426 -30.5418 -30.5358 -30.5355
   -30.5353 -30.5346 -30.5308 -30.5303 -30.5258 -30.5254 -30.5242 -30.5234
   -30.5222 -30.5215 -30.5184 -30.5181 -30.5146 -30.5139 -30.5075 -30.5067
   -30.5056 -30.5053 -30.4932 -30.4930 -30.4829 -30.4822 -30.4759 -30.4755
    13.0008  13.0018  14.3420  14.3428  14.3775  14.3775  14.4274  14.4281
    14.4325  14.4333  14.4531  14.4539  14.4560  14.4561  14.5649  14.5649
    14.5730  14.5738  14.5949  14.5950  14.6522  14.6527  14.7058  14.7066
    14.7410  14.7416  14.8207  14.8211  14.9914  14.9920  15.0787  15.0788
    15.2720  15.2721  15.2731  15.2737  15.3063  15.3071  15.4161  15.4169
    15.4865  15.4866  15.5183  15.5190  15.5663  15.5666  15.5923  15.5926
    15.6344  15.6344  15.6683  15.6689  15.6771  15.6775  16.0320  16.0326
    16.0522  16.0528  16.0598  16.0605  16.0698  16.0704  16.1320  16.1321
    16.2417  16.2421  16.2441  16.2447  16.3577  16.3583  16.3887  16.3893
    16.4427  16.4428  16.4833  16.4834  16.4985  16.4987  16.6119  16.6121
    16.6494  16.6496  16.7161  16.7163  16.7294  16.7301  16.7528  16.7535
    16.8120  16.8122  16.8274  16.8277  17.2827  17.2832  17.2927  17.2933
    17.3377  17.3378  17.3513  17.3515  17.3770  17.3773  17.4247  17.4249
    17.4719  17.4725  17.6205  17.6212  17.6249  17.6255  17.6857  17.6861
    17.7077  17.7083  17.7494  17.7497  17.7519  17.7525  17.8159  17.8166
    17.9304  17.9311  17.9675  17.9681  18.0394  18.0401  18.0967  18.0975
    18.2312  18.2319  18.2816  18.2823  18.3503  18.3508  18.5211  18.5217
    18.5630  18.5631  18.5772  18.5778  18.7144  18.7147  18.7399  18.7399
    18.8006  18.8012  18.8247  18.8248  18.8261  18.8265  18.8330  18.8332
    18.8406  18.8411  18.8440  18.8444  18.9332  18.9334  18.9839  18.9841
    19.2003  19.2004  19.3109  19.3116  19.3206  19.3214  19.5747  19.5748
    20.0251  20.0252  20.1006  20.1014  20.3917  20.3923  20.6617  20.6625
    21.7446  21.7453  22.2064  22.2071  23.5371  23.5375  24.0821  24.0826
    24.1348  24.1351  24.6682  24.6685  24.7419  24.7425  25.1820  25.1823
    26.8673  26.8674  27.3063  27.3064  27.7173  27.7180  27.9141  27.9148
    28.2607  28.2615  28.3270  28.3271  28.8853  28.8854  29.2604  29.2606
    29.8028  29.8036  29.9303  29.9308  29.9715  29.9722  30.1027  30.1036
    30.7690  30.7694

          k = 0.0556 0.2769 0.0556 ( 33105 PWs)   bands (ev):

   -64.9438 -64.9287 -64.9163 -64.9163 -64.9111 -64.9110 -64.9081 -64.9080
   -64.9041 -64.9041 -64.9022 -64.9020 -64.9006 -64.8994 -64.8993 -64.8992
   -64.8991 -64.8983 -64.8970 -64.8936 -64.8935 -64.8920 -64.8919 -64.8872
   -64.8854 -64.8853 -64.8851 -64.8850 -64.8836 -64.8835 -64.8834 -64.8833
   -30.8194 -30.8164 -30.8163 -30.8118 -30.7997 -30.7997 -30.7932 -30.7608
   -30.7553 -30.7553 -30.7502 -30.7502 -30.7473 -30.7342 -30.7342 -30.7323
   -30.7323 -30.7225 -30.7225 -30.7135 -30.7134 -30.7121 -30.7115 -30.7115
   -30.6990 -30.6990 -30.6970 -30.6970 -30.6863 -30.6863 -30.6686 -30.6685
   -30.6628 -30.6628 -30.6607 -30.6607 -30.6445 -30.6445 -30.6419 -30.6419
   -30.6119 -30.6119 -30.6012 -30.5988 -30.5988 -30.5973 -30.5972 -30.5921
   -30.5907 -30.5891 -30.5890 -30.5872 -30.5872 -30.5860 -30.5860 -30.5851
   -30.5851 -30.5764 -30.5731 -30.5731 -30.5661 -30.5583 -30.5575 -30.5447
   -30.5447 -30.5370 -30.5370 -30.5353 -30.5353 -30.5325 -30.5320 -30.5320
   -30.5279 -30.5279 -30.5273 -30.5273 -30.5221 -30.5182 -30.5154 -30.5143
   -30.5143 -30.5138 -30.5137 -30.5137 -30.5135 -30.5118 -30.5117 -30.5103
   -30.5073 -30.5014 -30.5014 -30.4995 -30.4989 -30.4797 -30.4663 -30.4653
    12.4497  13.6040  14.0905  14.1267  14.1267  14.1548  14.1951  14.1951
    14.2210  14.3470  14.3913  14.3913  14.4108  14.4109  14.4872  14.6081
    14.6082  14.7624  14.7624  14.8062  14.8226  14.8998  14.8998  14.9510
    15.0577  15.0578  15.1022  15.1023  15.1256  15.1257  15.1308  15.1308
    15.2346  15.2347  15.2412  15.2413  15.3557  15.3558  15.4078  15.4079
    15.5197  15.5197  15.6635  15.6636  15.6907  15.6907  15.7005  15.7160
    15.7161  15.7350  15.7351  15.7602  15.7602  15.8718  15.8718  15.9445
    15.9446  15.9867  15.9943  15.9943  16.0613  16.0613  16.0969  16.0970
    16.1017  16.1017  16.1549  16.1859  16.1859  16.2519  16.2810  16.2917
    16.2917  16.3511  16.3668  16.3669  16.4748  16.5058  16.5058  16.5257
    16.5322  16.5355  16.6762  16.6762  16.6947  16.7433  16.8375  16.8375
    16.8861  16.8861  16.9107  16.9107  16.9818  17.0570  17.0663  17.0663
    17.0830  17.0901  17.3647  17.3892  17.3892  17.4829  17.4829  17.5549
    17.5550  17.5710  17.5710  17.6282  17.6283  17.6591  17.6593  17.7202
    17.7203  17.8180  17.8667  17.8668  17.8686  17.8686  17.8923  17.8923
    17.8960  17.8961  18.0148  18.0912  18.1456  18.1456  18.1612  18.1612
    18.1767  18.2629  18.2698  18.2755  18.3059  18.3060  18.3085  18.3085
    18.3496  18.3497  18.3801  18.3917  18.3918  18.4710  18.6417  18.6418
    18.6988  18.7011  18.7011  18.7626  18.8538  18.8538  18.9031  18.9031
    18.9048  18.9880  18.9900  18.9900  19.0004  19.1308  19.1805  19.1805
    19.1824  19.1824  19.2178  19.3988  19.3989  19.4000  19.4000  19.9911
    19.9912  20.2309  20.4399  20.4399  20.7652  20.7652  20.8082  21.1413
    21.3360  21.3361  21.5016  21.8740  22.5812  22.5812  23.1268  23.1268
    23.3002  23.3002  25.7805  25.7805  25.9632  25.9632  26.3398  26.3398
    26.4069  26.7104  26.7104  27.1147  27.8040  27.8040  28.4782  28.4783
    28.7415  29.2282  29.2282  29.2876  29.2876  29.5809  29.5809  29.6409
    29.6409  29.7185  29.7185  29.8473  29.9908  29.9908  30.1532  30.1532
    30.1613  30.1614

          k = 0.0556 0.2769 0.1667 ( 33105 PWs)   bands (ev):

   -64.9429 -64.9280 -64.9215 -64.9158 -64.9119 -64.9107 -64.9078 -64.9058
   -64.9047 -64.9040 -64.9020 -64.9020 -64.9015 -64.9002 -64.9001 -64.8979
   -64.8974 -64.8966 -64.8952 -64.8948 -64.8937 -64.8922 -64.8904 -64.8872
   -64.8858 -64.8857 -64.8855 -64.8848 -64.8844 -64.8841 -64.8837 -64.8834
   -30.8181 -30.8168 -30.8096 -30.8034 -30.7966 -30.7956 -30.7908 -30.7636
   -30.7603 -30.7502 -30.7475 -30.7472 -30.7453 -30.7450 -30.7367 -30.7356
   -30.7343 -30.7293 -30.7287 -30.7268 -30.7252 -30.7238 -30.7207 -30.7139
   -30.7066 -30.6942 -30.6907 -30.6843 -30.6805 -30.6794 -30.6763 -30.6744
   -30.6692 -30.6690 -30.6601 -30.6491 -30.6460 -30.6327 -30.6284 -30.6184
   -30.6151 -30.6136 -30.6097 -30.6020 -30.6012 -30.5955 -30.5950 -30.5947
   -30.5935 -30.5926 -30.5901 -30.5868 -30.5844 -30.5821 -30.5817 -30.5792
   -30.5771 -30.5745 -30.5653 -30.5642 -30.5610 -30.5591 -30.5572 -30.5559
   -30.5409 -30.5408 -30.5404 -30.5390 -30.5365 -30.5360 -30.5354 -30.5348
   -30.5293 -30.5277 -30.5249 -30.5243 -30.5239 -30.5224 -30.5195 -30.5188
   -30.5186 -30.5175 -30.5163 -30.5150 -30.5123 -30.5118 -30.5094 -30.5035
   -30.5020 -30.5018 -30.5018 -30.4954 -30.4931 -30.4889 -30.4683 -30.4636
    12.5204  13.6601  14.1159  14.1376  14.1514  14.1598  14.1618  14.2058
    14.2710  14.2833  14.3879  14.4178  14.4291  14.4417  14.5388  14.6176
    14.6792  14.7520  14.7740  14.8032  14.8347  14.8396  14.8510  14.8834
    14.9776  14.9855  15.0083  15.0201  15.0430  15.0683  15.1408  15.1477
    15.1581  15.1728  15.2034  15.2534  15.2965  15.3149  15.3428  15.4468
    15.4602  15.4661  15.5108  15.5829  15.6165  15.6298  15.6413  15.7141
    15.7343  15.7446  15.7641  15.7772  15.8232  15.8867  15.8918  15.9364
    15.9457  15.9586  16.0478  16.0899  16.1297  16.1415  16.1901  16.1972
    16.2113  16.2210  16.2218  16.2616  16.2778  16.3079  16.3094  16.3493
    16.3795  16.3847  16.4532  16.4837  16.5035  16.5254  16.5262  16.5326
    16.5591  16.5727  16.5841  16.5876  16.6001  16.7029  16.7898  16.8136
    16.8452  16.8511  16.8695  16.9587  16.9868  17.0841  17.0924  17.1088
    17.1785  17.1920  17.1958  17.2626  17.2718  17.3464  17.3519  17.4602
    17.4708  17.4952  17.5025  17.5510  17.6003  17.6824  17.7314  17.7399
    17.7550  17.8204  17.8458  17.8604  17.8895  17.9406  17.9697  17.9979
    18.0071  18.0575  18.0588  18.0964  18.1038  18.1149  18.1186  18.1249
    18.1377  18.1644  18.2442  18.2891  18.3010  18.3310  18.3647  18.4261
    18.4353  18.4617  18.4696  18.4703  18.4753  18.4951  18.5033  18.5860
    18.5968  18.6179  18.7128  18.7946  18.8225  18.8454  18.9227  18.9368
    19.0086  19.0451  19.0488  19.0520  19.1287  19.1476  19.1491  19.1576
    19.1800  19.1853  19.2236  19.3268  19.3309  19.3366  19.3374  19.5999
    19.8103  19.9592  20.3360  20.4170  20.4680  20.8441  20.9595  21.3543
    21.5505  21.7970  21.9318  22.0594  22.4695  22.5822  22.9252  23.1246
    23.5270  23.7079  25.2053  25.4215  25.8498  26.1099  26.2387  26.3621
    26.4072  26.8749  27.1078  27.1250  27.1254  27.6025  27.6441  28.2274
    28.3736  28.6606  28.7586  28.9828  29.1136  29.1984  29.4115  29.6053
    29.7847  29.8672  29.8847  30.1056  30.1563  30.3799  30.4379  30.4991
    30.7221  30.8203

          k = 0.0556 0.2769 0.2778 ( 33110 PWs)   bands (ev):

   -64.9411 -64.9266 -64.9264 -64.9156 -64.9149 -64.9099 -64.9073 -64.9072
   -64.9037 -64.9036 -64.9033 -64.9014 -64.9010 -64.9009 -64.8969 -64.8967
   -64.8965 -64.8962 -64.8940 -64.8940 -64.8927 -64.8926 -64.8888 -64.8872
   -64.8866 -64.8864 -64.8861 -64.8859 -64.8855 -64.8846 -64.8843 -64.8834
   -30.8131 -30.8130 -30.7993 -30.7914 -30.7906 -30.7873 -30.7862 -30.7635
   -30.7626 -30.7621 -30.7607 -30.7500 -30.7484 -30.7422 -30.7413 -30.7388
   -30.7385 -30.7367 -30.7355 -30.7336 -30.7327 -30.7242 -30.7235 -30.7221
   -30.7183 -30.7173 -30.6901 -30.6847 -30.6785 -30.6770 -30.6700 -30.6698
   -30.6624 -30.6613 -30.6548 -30.6524 -30.6277 -30.6257 -30.6255 -30.6152
   -30.6150 -30.6145 -30.6129 -30.6052 -30.6020 -30.5904 -30.5899 -30.5898
   -30.5889 -30.5885 -30.5876 -30.5872 -30.5841 -30.5831 -30.5753 -30.5750
   -30.5693 -30.5667 -30.5664 -30.5660 -30.5531 -30.5530 -30.5528 -30.5527
   -30.5484 -30.5481 -30.5462 -30.5459 -30.5372 -30.5372 -30.5353 -30.5351
   -30.5337 -30.5336 -30.5327 -30.5323 -30.5233 -30.5230 -30.5219 -30.5214
   -30.5197 -30.5192 -30.5143 -30.5131 -30.5123 -30.5116 -30.5076 -30.5067
   -30.5032 -30.5027 -30.5023 -30.4902 -30.4902 -30.4874 -30.4726 -30.4637
    12.6599  13.7696  13.7764  14.1855  14.2264  14.2294  14.2294  14.2535
    14.3806  14.3807  14.4631  14.4694  14.4703  14.5392  14.5941  14.6376
    14.6393  14.6453  14.6860  14.6860  14.7985  14.8018  14.8023  14.8027
    14.8826  14.8898  14.9064  14.9127  15.0744  15.0762  15.0764  15.0806
    15.0827  15.1812  15.1819  15.2148  15.2151  15.2541  15.2543  15.3347
    15.3348  15.4160  15.5301  15.5309  15.5356  15.5377  15.5637  15.7384
    15.7540  15.7745  15.7778  15.7872  15.7875  15.7955  15.7992  16.0439
    16.0508  16.1122  16.1170  16.2040  16.2066  16.2073  16.2177  16.2477
    16.2477  16.2617  16.2802  16.2818  16.3065  16.3999  16.4254  16.4284
    16.4300  16.5157  16.5213  16.5251  16.5569  16.5793  16.6069  16.6211
    16.6252  16.6271  16.6714  16.6768  16.6798  16.6856  16.7009  16.7364
    16.8339  16.8381  16.8538  16.8635  17.0111  17.0280  17.0629  17.0813
    17.1474  17.1618  17.2047  17.2428  17.2971  17.3068  17.3284  17.3375
    17.3439  17.3534  17.4136  17.4161  17.5599  17.5617  17.6931  17.7831
    17.7845  17.7962  17.7967  17.7981  17.8305  17.9120  17.9142  17.9943
    18.0288  18.0818  18.0842  18.1380  18.1406  18.1838  18.1846  18.2234
    18.2297  18.3342  18.3346  18.3349  18.3442  18.3591  18.3592  18.3594
    18.3659  18.4083  18.4084  18.5635  18.6063  18.6318  18.6347  18.6420
    18.6421  18.6422  18.6446  18.7455  18.7474  18.7897  18.9068  18.9087
    18.9845  19.0554  19.0578  19.0781  19.0868  19.0874  19.1821  19.1888
    19.1956  19.2002  19.2142  19.2224  19.2544  19.2700  19.5771  19.5918
    19.6016  19.8961  19.9063  20.2849  20.3732  20.3866  21.5520  21.5596
    21.9354  21.9379  22.2668  22.3091  22.5744  22.6030  23.1016  23.1306
    23.9328  24.3363  24.6144  24.6431  25.8786  25.9076  26.2383  26.2412
    26.3867  26.4040  26.8295  26.8590  27.4496  27.4692  27.6380  27.7472
    27.7862  28.1657  28.2626  28.3024  28.3842  29.4815  29.6609  29.6866
    29.8250  29.8251  30.2220  30.2610  30.4832  30.5067  30.6638  30.6671
    30.8105  30.8941

          k = 0.0556 0.2769 0.3889 ( 33132 PWs)   bands (ev):

   -64.9385 -64.9310 -64.9247 -64.9190 -64.9135 -64.9096 -64.9088 -64.9066
   -64.9055 -64.9045 -64.9032 -64.9017 -64.9006 -64.8982 -64.8963 -64.8959
   -64.8954 -64.8944 -64.8933 -64.8930 -64.8917 -64.8908 -64.8889 -64.8878
   -64.8876 -64.8875 -64.8874 -64.8869 -64.8861 -64.8851 -64.8844 -64.8835
   -30.8053 -30.8042 -30.7859 -30.7816 -30.7795 -30.7794 -30.7772 -30.7763
   -30.7752 -30.7607 -30.7606 -30.7602 -30.7566 -30.7527 -30.7488 -30.7487
   -30.7474 -30.7409 -30.7405 -30.7402 -30.7348 -30.7298 -30.7245 -30.7217
   -30.7212 -30.7086 -30.6990 -30.6975 -30.6886 -30.6765 -30.6634 -30.6596
   -30.6557 -30.6474 -30.6436 -30.6384 -30.6375 -30.6368 -30.6285 -30.6269
   -30.6112 -30.6057 -30.6038 -30.5986 -30.5986 -30.5960 -30.5896 -30.5883
   -30.5870 -30.5843 -30.5836 -30.5804 -30.5768 -30.5751 -30.5726 -30.5663
   -30.5655 -30.5646 -30.5640 -30.5639 -30.5614 -30.5558 -30.5538 -30.5524
   -30.5509 -30.5486 -30.5440 -30.5439 -30.5426 -30.5404 -30.5401 -30.5394
   -30.5337 -30.5333 -30.5321 -30.5282 -30.5273 -30.5269 -30.5267 -30.5261
   -30.5202 -30.5188 -30.5183 -30.5153 -30.5144 -30.5137 -30.5137 -30.5100
   -30.5049 -30.5038 -30.4966 -30.4860 -30.4842 -30.4802 -30.4789 -30.4666
    12.8644  13.4371  13.9275  14.2571  14.3241  14.3270  14.3379  14.3525
    14.3610  14.5093  14.5099  14.5117  14.5217  14.5478  14.5519  14.5911
    14.6139  14.6215  14.6232  14.6681  14.6783  14.7068  14.7537  14.7718
    14.7823  14.8383  14.8662  14.8787  14.9496  14.9746  14.9955  15.0076
    15.0469  15.1451  15.1497  15.1840  15.2313  15.2554  15.2611  15.3109
    15.3226  15.3692  15.4016  15.4379  15.4768  15.5856  15.6289  15.6459
    15.6605  15.7148  15.7676  15.8046  15.8340  15.8548  15.9146  16.0163
    16.0252  16.0313  16.1127  16.1720  16.1783  16.2437  16.2801  16.2928
    16.3144  16.3172  16.3214  16.3735  16.4041  16.4111  16.4341  16.5239
    16.5266  16.5715  16.5901  16.5922  16.5926  16.6269  16.6288  16.6623
    16.6754  16.6759  16.6849  16.7707  16.7753  16.7981  16.7983  16.8204
    16.8316  16.8873  16.8936  16.9091  16.9752  16.9903  17.0713  17.0860
    17.0867  17.1244  17.1488  17.1577  17.1693  17.2133  17.2396  17.3279
    17.4437  17.4451  17.4646  17.4793  17.4856  17.4971  17.5574  17.5760
    17.6094  17.6436  17.7011  17.7178  17.7274  17.8098  17.9676  18.0142
    18.0322  18.0352  18.0532  18.0581  18.1835  18.1857  18.2056  18.2130
    18.2181  18.2634  18.3671  18.3873  18.3900  18.4015  18.4564  18.4686
    18.4756  18.5448  18.5742  18.6086  18.6112  18.6719  18.6974  18.7663
    18.7805  18.7806  18.7899  18.7906  18.8052  18.8063  18.8359  18.8594
    18.9484  19.0035  19.0038  19.0044  19.0105  19.0133  19.0203  19.0307
    19.0804  19.1496  19.1881  19.1931  19.2052  19.2257  19.5089  19.5821
    19.8041  19.9545  20.0711  20.1820  20.2265  20.3141  21.0528  21.5900
    22.2403  22.2420  22.4466  22.5367  22.8194  23.0175  23.3506  23.8105
    23.8585  24.0125  24.4605  25.0218  25.0389  25.4224  25.7216  26.2579
    26.4519  26.5523  26.6702  26.8234  27.0500  27.0543  27.3080  27.5165
    27.8053  27.8057  28.0076  28.2398  28.7998  29.1192  29.6830  29.8041
    29.8812  29.9133  29.9834  30.0878  30.1773  30.2657  30.7455  30.8027
    30.9520  31.0400

          k = 0.0556 0.2769-0.5000 ( 33128 PWs)   bands (ev):

   -64.9354 -64.9347 -64.9225 -64.9217 -64.9121 -64.9114 -64.9077 -64.9069
   -64.9060 -64.9053 -64.9029 -64.9021 -64.8999 -64.8991 -64.8954 -64.8947
   -64.8946 -64.8939 -64.8927 -64.8919 -64.8904 -64.8899 -64.8896 -64.8894
   -64.8892 -64.8887 -64.8869 -64.8865 -64.8862 -64.8858 -64.8843 -64.8836
   -30.7941 -30.7938 -30.7921 -30.7918 -30.7710 -30.7706 -30.7703 -30.7702
   -30.7698 -30.7698 -30.7597 -30.7592 -30.7590 -30.7588 -30.7561 -30.7561
   -30.7552 -30.7550 -30.7462 -30.7457 -30.7267 -30.7261 -30.7260 -30.7255
   -30.7113 -30.7109 -30.6971 -30.6971 -30.6928 -30.6925 -30.6505 -30.6503
   -30.6489 -30.6487 -30.6421 -30.6418 -30.6383 -30.6375 -30.6245 -30.6243
   -30.6232 -30.6225 -30.5906 -30.5899 -30.5893 -30.5887 -30.5862 -30.5855
   -30.5853 -30.5851 -30.5829 -30.5827 -30.5777 -30.5775 -30.5753 -30.5746
   -30.5647 -30.5641 -30.5627 -30.5625 -30.5557 -30.5553 -30.5550 -30.5546
   -30.5472 -30.5464 -30.5445 -30.5440 -30.5410 -30.5408 -30.5394 -30.5391
   -30.5339 -30.5332 -30.5310 -30.5303 -30.5301 -30.5294 -30.5284 -30.5281
   -30.5232 -30.5224 -30.5205 -30.5202 -30.5165 -30.5158 -30.5079 -30.5077
   -30.5076 -30.5069 -30.4873 -30.4866 -30.4838 -30.4837 -30.4723 -30.4721
    13.1267  13.1276  14.1251  14.1260  14.3656  14.3657  14.4363  14.4371
    14.4584  14.4584  14.4597  14.4602  14.5237  14.5245  14.5635  14.5639
    14.6486  14.6495  14.6745  14.6746  14.6897  14.6898  14.7077  14.7080
    14.7514  14.7522  14.8507  14.8511  14.8960  14.8961  14.9561  14.9567
    15.1294  15.1302  15.1453  15.1458  15.2258  15.2260  15.2891  15.2892
    15.3002  15.3010  15.4810  15.4816  15.5093  15.5093  15.5283  15.5290
    15.7927  15.7932  15.7953  15.7953  15.9047  15.9050  15.9181  15.9186
    15.9364  15.9370  16.0568  16.0573  16.2702  16.2708  16.3479  16.3485
    16.3558  16.3559  16.3959  16.3964  16.4249  16.4252  16.4428  16.4429
    16.4888  16.4890  16.6331  16.6332  16.6840  16.6843  16.6886  16.6892
    16.7142  16.7142  16.7394  16.7400  16.7568  16.7574  16.7575  16.7576
    16.9298  16.9301  16.9468  16.9471  17.0981  17.0981  17.1062  17.1067
    17.1159  17.1164  17.1796  17.1797  17.1919  17.1921  17.2087  17.2089
    17.2655  17.2660  17.5199  17.5202  17.5218  17.5224  17.5804  17.5809
    17.6095  17.6099  17.6323  17.6330  17.6447  17.6449  17.9214  17.9221
    17.9270  17.9275  18.1114  18.1121  18.1428  18.1434  18.1563  18.1570
    18.3164  18.3171  18.4413  18.4420  18.4461  18.4468  18.5667  18.5674
    18.5882  18.5888  18.6367  18.6367  18.6840  18.6841  18.6843  18.6843
    18.8063  18.8069  18.8335  18.8336  18.8575  18.8578  18.9009  18.9012
    18.9028  18.9031  18.9179  18.9181  18.9216  18.9217  18.9428  18.9429
    19.1391  19.1393  19.1979  19.1987  19.2008  19.2013  19.5424  19.5426
    19.6903  19.6910  20.2540  20.2547  20.5590  20.5592  20.8603  20.8609
    22.4364  22.4371  22.8130  22.8136  22.9983  22.9987  23.4090  23.4096
    24.1678  24.1681  24.6414  24.6416  25.0662  25.0668  25.7691  25.7693
    26.5239  26.5240  26.8847  26.8849  26.9279  26.9286  27.2690  27.2697
    27.3964  27.3971  28.5766  28.5767  28.9239  28.9240  29.5014  29.5015
    29.8218  29.8227  29.9648  29.9657  30.3694  30.3702  30.5509  30.5510
    31.1946  31.1953

          k = 0.0556 0.3876 0.0556 ( 33095 PWs)   bands (ev):

   -64.9411 -64.9334 -64.9148 -64.9148 -64.9106 -64.9106 -64.9098 -64.9098
   -64.9063 -64.9062 -64.9018 -64.9010 -64.8994 -64.8993 -64.8992 -64.8991
   -64.8979 -64.8975 -64.8972 -64.8910 -64.8910 -64.8899 -64.8898 -64.8898
   -64.8869 -64.8868 -64.8863 -64.8863 -64.8836 -64.8835 -64.8835 -64.8833
   -30.8088 -30.8046 -30.8046 -30.7988 -30.7908 -30.7908 -30.7787 -30.7784
   -30.7730 -30.7730 -30.7657 -30.7657 -30.7654 -30.7376 -30.7342 -30.7342
   -30.7294 -30.7293 -30.7278 -30.7277 -30.7185 -30.7184 -30.7013 -30.7013
   -30.6939 -30.6939 -30.6835 -30.6835 -30.6789 -30.6789 -30.6785 -30.6785
   -30.6736 -30.6736 -30.6573 -30.6573 -30.6551 -30.6551 -30.6470 -30.6470
   -30.6213 -30.6213 -30.5984 -30.5984 -30.5976 -30.5975 -30.5860 -30.5847
   -30.5818 -30.5742 -30.5741 -30.5740 -30.5740 -30.5731 -30.5730 -30.5714
   -30.5713 -30.5688 -30.5678 -30.5603 -30.5603 -30.5601 -30.5523 -30.5523
   -30.5481 -30.5480 -30.5479 -30.5478 -30.5463 -30.5396 -30.5396 -30.5394
   -30.5394 -30.5394 -30.5319 -30.5220 -30.5220 -30.5176 -30.5163 -30.5139
   -30.5138 -30.5137 -30.5136 -30.5135 -30.5134 -30.5093 -30.5089 -30.5089
   -30.5077 -30.5017 -30.5017 -30.4954 -30.4892 -30.4884 -30.4723 -30.4713
    12.6610  13.2535  14.1818  14.2544  14.2544  14.2647  14.3169  14.3169
    14.3541  14.3995  14.4273  14.5167  14.5167  14.5491  14.5492  14.5881
    14.5881  14.6014  14.6593  14.6726  14.6726  14.7243  14.7483  14.7484
    14.8878  14.8878  14.8920  14.8921  15.0902  15.0903  15.1854  15.1855
    15.2411  15.2412  15.3110  15.3111  15.3251  15.3252  15.4690  15.4691
    15.5186  15.5187  15.5318  15.5318  15.6307  15.6307  15.6675  15.6675
    15.6817  15.6817  15.7265  15.7265  15.7717  15.7718  15.8753  15.9146
    15.9147  15.9429  15.9429  16.0462  16.1030  16.1031  16.1033  16.1034
    16.1222  16.1222  16.1717  16.1854  16.2220  16.2404  16.2404  16.2892
    16.2893  16.3182  16.4185  16.4186  16.5618  16.6039  16.6040  16.6284
    16.6305  16.6307  16.6584  16.6584  16.6656  16.6657  16.8201  16.8618
    16.8618  16.9031  16.9094  16.9160  17.0886  17.0934  17.0934  17.1061
    17.3290  17.3290  17.4520  17.4532  17.4533  17.4768  17.4768  17.6491
    17.6493  17.6874  17.6874  17.6944  17.6945  17.7089  17.7090  17.7094
    17.7481  17.7481  17.8364  17.8364  17.8765  17.8765  17.8765  17.8766
    17.8768  17.8992  17.8993  17.9078  17.9078  17.9989  18.0611  18.1067
    18.1067  18.1931  18.2557  18.2557  18.3480  18.3481  18.3850  18.4235
    18.5072  18.5072  18.5160  18.5663  18.5718  18.5718  18.5926  18.5926
    18.7460  18.7460  18.7587  18.8599  18.8599  18.8599  18.8871  18.8970
    18.9010  18.9011  18.9416  19.0037  19.0037  19.0041  19.0041  19.0803
    19.1972  19.1973  19.3068  19.3991  19.3992  19.3997  19.3998  19.5953
    19.5954  20.0036  20.0036  20.4222  20.7155  20.7753  20.9716  20.9716
    21.2553  21.2553  21.4390  21.7911  23.2853  23.2853  23.8323  23.8323
    23.8948  23.8948  24.8986  24.8987  25.2484  25.2484  25.4473  25.4473
    26.7542  27.1705  27.1706  27.6525  27.9471  28.1524  28.1524  28.4783
    28.4783  28.8107  28.8108  29.0323  29.0641  29.0641  29.4526  29.4526
    29.5995  29.5995  29.6756  29.6757  30.1039  30.1039  30.1356  30.1359
    30.3592  30.3592

          k = 0.0556 0.3876 0.1667 ( 33115 PWs)   bands (ev):

   -64.9402 -64.9326 -64.9198 -64.9149 -64.9144 -64.9103 -64.9094 -64.9060
   -64.9048 -64.9042 -64.9028 -64.9019 -64.9012 -64.9005 -64.8975 -64.8973
   -64.8968 -64.8966 -64.8953 -64.8922 -64.8912 -64.8901 -64.8898 -64.8886
   -64.8874 -64.8872 -64.8867 -64.8858 -64.8844 -64.8842 -64.8837 -64.8835
   -30.8090 -30.8065 -30.7970 -30.7893 -30.7878 -30.7875 -30.7808 -30.7772
   -30.7771 -30.7646 -30.7644 -30.7628 -30.7547 -30.7448 -30.7432 -30.7383
   -30.7379 -30.7376 -30.7366 -30.7331 -30.7239 -30.7201 -30.7171 -30.7096
   -30.7016 -30.6975 -30.6925 -30.6888 -30.6856 -30.6774 -30.6689 -30.6642
   -30.6628 -30.6615 -30.6578 -30.6541 -30.6455 -30.6445 -30.6409 -30.6305
   -30.6286 -30.6190 -30.5950 -30.5949 -30.5928 -30.5925 -30.5923 -30.5893
   -30.5875 -30.5840 -30.5834 -30.5755 -30.5727 -30.5717 -30.5715 -30.5707
   -30.5672 -30.5667 -30.5652 -30.5615 -30.5544 -30.5536 -30.5501 -30.5498
   -30.5493 -30.5489 -30.5487 -30.5477 -30.5470 -30.5468 -30.5467 -30.5355
   -30.5344 -30.5339 -30.5266 -30.5265 -30.5253 -30.5239 -30.5235 -30.5217
   -30.5207 -30.5198 -30.5143 -30.5139 -30.5124 -30.5105 -30.5076 -30.5052
   -30.5045 -30.5026 -30.4967 -30.4919 -30.4913 -30.4848 -30.4743 -30.4685
    12.7290  13.3138  14.2297  14.2445  14.2599  14.2767  14.2903  14.3114
    14.3998  14.4225  14.4498  14.4670  14.5322  14.5418  14.5472  14.5731
    14.5958  14.6268  14.6338  14.6359  14.6952  14.7123  14.7607  14.7711
    14.7922  14.8219  14.9083  14.9252  14.9442  15.0255  15.1362  15.1582
    15.1626  15.1769  15.2163  15.2721  15.2770  15.4013  15.4130  15.4346
    15.4625  15.4784  15.5374  15.5557  15.5713  15.5779  15.5802  15.5869
    15.6275  15.6669  15.7264  15.7549  15.7637  15.8241  15.8845  15.9210
    15.9478  15.9970  16.1066  16.1076  16.1403  16.1726  16.1729  16.1822
    16.1856  16.1964  16.2467  16.2714  16.2964  16.2990  16.2997  16.3343
    16.3672  16.4206  16.4289  16.5636  16.5670  16.6191  16.6273  16.6386
    16.6426  16.6453  16.6840  16.6996  16.7184  16.7792  16.7876  16.7879
    16.8708  16.8787  16.9059  16.9723  17.0027  17.0304  17.0678  17.0906
    17.2415  17.2427  17.2629  17.2838  17.2988  17.3144  17.4117  17.4991
    17.5056  17.5257  17.5903  17.6383  17.6857  17.7086  17.7143  17.7186
    17.7201  17.7452  17.7888  17.8196  17.8583  17.8806  17.8901  17.8990
    17.9476  17.9535  18.0019  18.0482  18.0572  18.1083  18.1372  18.1488
    18.1804  18.1834  18.1959  18.3191  18.3387  18.3427  18.3687  18.3751
    18.4899  18.5249  18.5654  18.5996  18.6319  18.6573  18.6586  18.6658
    18.6686  18.6750  18.6992  18.7598  18.7649  18.8654  18.8684  18.8933
    18.9157  18.9572  18.9607  19.0049  19.0058  19.0066  19.0091  19.1003
    19.1740  19.2480  19.3268  19.3307  19.3320  19.3348  19.5636  19.5832
    19.6838  19.9604  19.9821  20.2398  20.4885  20.5648  20.7706  21.0855
    21.5924  21.8698  21.9464  22.3860  22.7538  23.3019  23.4972  23.8410
    24.0926  24.3467  24.4058  24.7684  24.9495  25.4077  25.4765  25.9999
    26.4359  26.7590  27.3940  27.4589  27.4785  27.6668  27.9429  27.9612
    28.1947  28.1954  28.4356  28.7349  28.8644  29.0509  29.4335  29.5075
    29.6222  29.8064  29.8320  29.9812  30.0666  30.2585  30.2734  30.3114
    30.3871  30.6653

          k = 0.0556 0.3876 0.2778 ( 33126 PWs)   bands (ev):

   -64.9385 -64.9312 -64.9245 -64.9190 -64.9135 -64.9097 -64.9088 -64.9065
   -64.9056 -64.9045 -64.9031 -64.9018 -64.9001 -64.8979 -64.8969 -64.8958
   -64.8954 -64.8945 -64.8934 -64.8933 -64.8917 -64.8907 -64.8896 -64.8879
   -64.8878 -64.8876 -64.8875 -64.8861 -64.8857 -64.8853 -64.8841 -64.8836
   -30.8053 -30.8045 -30.7861 -30.7818 -30.7806 -30.7799 -30.7780 -30.7766
   -30.7740 -30.7617 -30.7599 -30.7596 -30.7573 -30.7536 -30.7481 -30.7475
   -30.7474 -30.7413 -30.7400 -30.7390 -30.7340 -30.7307 -30.7235 -30.7225
   -30.7211 -30.7075 -30.6987 -30.6970 -30.6876 -30.6760 -30.6647 -30.6594
   -30.6557 -30.6451 -30.6437 -30.6395 -30.6390 -30.6372 -30.6284 -30.6250
   -30.6142 -30.6061 -30.6043 -30.6005 -30.5963 -30.5956 -30.5898 -30.5882
   -30.5866 -30.5834 -30.5832 -30.5776 -30.5775 -30.5771 -30.5732 -30.5663
   -30.5662 -30.5645 -30.5643 -30.5636 -30.5615 -30.5564 -30.5538 -30.5525
   -30.5511 -30.5488 -30.5451 -30.5447 -30.5430 -30.5403 -30.5403 -30.5402
   -30.5338 -30.5319 -30.5312 -30.5291 -30.5267 -30.5265 -30.5265 -30.5264
   -30.5202 -30.5197 -30.5173 -30.5158 -30.5145 -30.5136 -30.5136 -30.5089
   -30.5044 -30.5040 -30.4960 -30.4860 -30.4842 -30.4802 -30.4787 -30.4666
    12.8630  13.4321  13.9326  14.2569  14.3230  14.3261  14.3376  14.3538
    14.3595  14.5087  14.5096  14.5114  14.5212  14.5460  14.5476  14.5917
    14.6133  14.6192  14.6226  14.6676  14.6785  14.7016  14.7535  14.7672
    14.7864  14.8394  14.8648  14.8773  14.9493  14.9741  15.0013  15.0133
    15.0468  15.1459  15.1506  15.1859  15.2313  15.2570  15.2601  15.3115
    15.3248  15.3714  15.4017  15.4382  15.4769  15.5861  15.6276  15.6473
    15.6627  15.7158  15.7801  15.8086  15.8294  15.8544  15.8984  16.0105
    16.0268  16.0306  16.1158  16.1612  16.1740  16.2328  16.2805  16.2855
    16.3209  16.3273  16.3294  16.3557  16.3929  16.4233  16.4392  16.5196
    16.5315  16.5721  16.5955  16.5985  16.6041  16.6265  16.6384  16.6699
    16.6757  16.6827  16.6894  16.7782  16.7818  16.7959  16.8053  16.8113
    16.8276  16.9036  16.9059  16.9094  16.9845  17.0065  17.0560  17.0711
    17.0924  17.1373  17.1436  17.1629  17.1697  17.2007  17.2347  17.3229
    17.4379  17.4389  17.4665  17.4723  17.4863  17.4984  17.5490  17.5712
    17.6109  17.6379  17.6994  17.7153  17.7176  17.8091  17.9707  18.0151
    18.0279  18.0447  18.0492  18.0576  18.1805  18.1852  18.2004  18.2154
    18.2245  18.2608  18.3674  18.3880  18.3893  18.3986  18.4565  18.4711
    18.4711  18.5452  18.5717  18.6059  18.6103  18.6725  18.6950  18.7676
    18.7782  18.7786  18.7910  18.7918  18.8050  18.8050  18.8335  18.8547
    18.9481  19.0000  19.0026  19.0041  19.0082  19.0119  19.0147  19.0211
    19.0756  19.1456  19.2010  19.2038  19.2144  19.2330  19.5021  19.5889
    19.8137  19.9442  20.0802  20.1636  20.2322  20.3260  21.0609  21.5549
    22.2297  22.2503  22.4508  22.5608  22.8567  23.0401  23.3180  23.7871
    23.8268  24.0434  24.4557  25.0009  25.0179  25.3998  25.7081  26.2528
    26.4403  26.5421  26.6953  26.8326  27.0213  27.0958  27.3476  27.4853
    27.8098  27.8469  28.0235  28.2351  28.7951  29.1240  29.6663  29.8044
    29.8819  29.9144  30.0075  30.0885  30.1603  30.2495  30.8047  30.8201
    30.9719  31.0552

          k = 0.0556 0.3876 0.3889 ( 33146 PWs)   bands (ev):

   -64.9360 -64.9290 -64.9288 -64.9228 -64.9123 -64.9088 -64.9087 -64.9078
   -64.9061 -64.9050 -64.9048 -64.9029 -64.8963 -64.8958 -64.8946 -64.8944
   -64.8941 -64.8939 -64.8923 -64.8923 -64.8917 -64.8916 -64.8895 -64.8889
   -64.8888 -64.8884 -64.8882 -64.8879 -64.8865 -64.8849 -64.8846 -64.8838
   -30.7983 -30.7982 -30.7758 -30.7756 -30.7752 -30.7746 -30.7730 -30.7723
   -30.7706 -30.7694 -30.7610 -30.7596 -30.7593 -30.7573 -30.7559 -30.7492
   -30.7487 -30.7419 -30.7412 -30.7409 -30.7404 -30.7400 -30.7398 -30.7280
   -30.7260 -30.7254 -30.7112 -30.6965 -30.6922 -30.6762 -30.6755 -30.6506
   -30.6420 -30.6420 -30.6323 -30.6297 -30.6229 -30.6163 -30.6159 -30.6124
   -30.6103 -30.6103 -30.6101 -30.6075 -30.6046 -30.5888 -30.5862 -30.5823
   -30.5820 -30.5819 -30.5818 -30.5815 -30.5788 -30.5788 -30.5773 -30.5770
   -30.5748 -30.5743 -30.5614 -30.5612 -30.5595 -30.5591 -30.5590 -30.5541
   -30.5540 -30.5444 -30.5442 -30.5421 -30.5417 -30.5412 -30.5411 -30.5385
   -30.5331 -30.5327 -30.5324 -30.5318 -30.5317 -30.5296 -30.5260 -30.5226
   -30.5221 -30.5196 -30.5179 -30.5174 -30.5171 -30.5157 -30.5128 -30.5070
   -30.5063 -30.5033 -30.5028 -30.4851 -30.4794 -30.4773 -30.4773 -30.4674
    13.0593  13.6041  13.6076  14.0772  14.3021  14.3956  14.4070  14.4565
    14.4568  14.4879  14.4880  14.4898  14.6047  14.6048  14.6318  14.6490
    14.6490  14.6640  14.6655  14.6658  14.6666  14.6873  14.6899  14.8068
    14.8106  14.8232  14.8419  14.8755  14.8795  14.9801  14.9808  14.9830
    14.9842  15.0104  15.0108  15.0521  15.0525  15.1839  15.1850  15.2007
    15.2021  15.2277  15.2290  15.4649  15.4663  15.5111  15.7006  15.7030
    15.7057  15.7069  15.8045  15.8685  15.9058  15.9077  15.9087  15.9191
    15.9320  16.1182  16.2314  16.2330  16.2882  16.4089  16.4124  16.4235
    16.4505  16.4509  16.4533  16.4564  16.4593  16.4630  16.4918  16.4974
    16.5280  16.5414  16.6711  16.6837  16.7017  16.7077  16.7188  16.7426
    16.7505  16.7679  16.7712  16.7923  16.7940  16.7979  16.8995  16.9023
    16.9041  16.9059  16.9173  16.9191  16.9341  16.9396  17.0210  17.0331
    17.0338  17.0482  17.1311  17.1321  17.1342  17.1864  17.2302  17.2365
    17.2405  17.2506  17.2523  17.2657  17.2729  17.2907  17.2975  17.4472
    17.5538  17.5545  17.5784  17.5786  17.6786  17.7454  17.7484  17.7865
[...]
    23.8786  23.8788  23.8788  23.8789  25.9839  25.9843  25.9845  25.9849
    26.3440  26.3440  26.3441  26.3442  26.3442  26.3443  26.3443  26.3444
    27.1404  27.1406  27.1407  27.1408  29.7400  29.7402  29.7409  29.7411
    30.2960  30.2961  30.2961  30.2962  30.8857  30.8858  30.8859  30.8859
    31.4390  31.4393

          k =-0.5000 0.1661-0.5000 ( 33164 PWs)   bands (ev):

   -64.9295 -64.9292 -64.9288 -64.9284 -64.9138 -64.9134 -64.9130 -64.9127
   -64.9023 -64.9019 -64.9015 -64.9012 -64.8921 -64.8920 -64.8919 -64.8918
   -64.8917 -64.8917 -64.8915 -64.8914 -64.8913 -64.8913 -64.8911 -64.8910
   -64.8910 -64.8909 -64.8908 -64.8906 -64.8865 -64.8862 -64.8858 -64.8854
   -30.7793 -30.7792 -30.7792 -30.7791 -30.7790 -30.7790 -30.7789 -30.7789
   -30.7571 -30.7570 -30.7568 -30.7567 -30.7565 -30.7564 -30.7562 -30.7562
   -30.7550 -30.7547 -30.7543 -30.7540 -30.7525 -30.7523 -30.7521 -30.7519
   -30.7086 -30.7084 -30.7083 -30.7081 -30.6659 -30.6659 -30.6658 -30.6658
   -30.6103 -30.6102 -30.6102 -30.6102 -30.6102 -30.6102 -30.6102 -30.6102
   -30.6085 -30.6085 -30.6082 -30.6082 -30.6079 -30.6078 -30.6076 -30.6075
   -30.5908 -30.5908 -30.5907 -30.5907 -30.5698 -30.5698 -30.5696 -30.5695
   -30.5693 -30.5691 -30.5690 -30.5689 -30.5676 -30.5676 -30.5676 -30.5676
   -30.5487 -30.5486 -30.5484 -30.5482 -30.5471 -30.5469 -30.5469 -30.5466
   -30.5465 -30.5464 -30.5463 -30.5462 -30.5333 -30.5333 -30.5333 -30.5333
   -30.5081 -30.5081 -30.5080 -30.5080 -30.5037 -30.5035 -30.5033 -30.5031
   -30.4978 -30.4975 -30.4971 -30.4968 -30.4736 -30.4736 -30.4736 -30.4735
    13.5833  13.5838  13.5842  13.5847  14.2825  14.2827  14.2828  14.2830
    14.6247  14.6247  14.6247  14.6247  14.6305  14.6306  14.6306  14.6307
    14.7038  14.7039  14.7040  14.7042  14.7044  14.7045  14.7047  14.7047
    14.9025  14.9025  14.9026  14.9027  14.9027  14.9028  14.9029  14.9030
    15.0076  15.0077  15.0077  15.0079  15.0082  15.0084  15.0085  15.0085
    15.2000  15.2000  15.2001  15.2001  15.6982  15.6983  15.6987  15.6988
    15.6989  15.6990  15.6993  15.6994  16.0153  16.0156  16.0159  16.0162
    16.0347  16.0350  16.0350  16.0351  16.5090  16.5091  16.5092  16.5093
    16.5819  16.5820  16.5820  16.5821  16.5845  16.5847  16.5849  16.5851
    16.7475  16.7478  16.7479  16.7482  16.7548  16.7548  16.7549  16.7549
    16.7549  16.7550  16.7551  16.7551  16.7914  16.7915  16.7917  16.7918
    16.8258  16.8258  16.8259  16.8261  17.0738  17.0738  17.0740  17.0741
    17.0742  17.0743  17.0744  17.0745  17.1083  17.1085  17.1087  17.1088
    17.1908  17.1910  17.1911  17.1913  17.3088  17.3088  17.3089  17.3089
    17.3091  17.3091  17.3093  17.3093  17.6433  17.6435  17.6440  17.6442
    18.1173  18.1175  18.1179  18.1181  18.2560  18.2561  18.2561  18.2564
    18.2564  18.2566  18.2567  18.2568  18.2608  18.2610  18.2613  18.2615
    18.5874  18.5876  18.5878  18.5879  18.6503  18.6504  18.6508  18.6509
    19.0007  19.0007  19.0008  19.0010  19.0010  19.0012  19.0013  19.0013
    19.0260  19.0261  19.0261  19.0262  19.0262  19.0263  19.0263  19.0263
    19.0357  19.0358  19.0359  19.0360  19.0590  19.0591  19.0594  19.0595
    20.3044  20.3046  20.3049  20.3051  22.0255  22.0257  22.0258  22.0259
    22.0261  22.0262  22.0262  22.0264  23.7056  23.7056  23.7058  23.7058
    23.7060  23.7061  23.7062  23.7062  25.3911  25.3915  25.3918  25.3922
    26.5818  26.5819  26.5820  26.5821  26.5822  26.5823  26.5823  26.5824
    27.2708  27.2710  27.2711  27.2712  29.7252  29.7253  29.7254  29.7254
    30.3747  30.3749  30.3756  30.3758  30.5505  30.5507  30.5507  30.5510
    30.5512  30.5513

          k =-0.5000 0.2769-0.5000 ( 33092 PWs)   bands (ev):

   -64.9282 -64.9278 -64.9274 -64.9271 -64.9174 -64.9171 -64.9167 -64.9163
   -64.8986 -64.8983 -64.8979 -64.8975 -64.8921 -64.8920 -64.8919 -64.8918
   -64.8917 -64.8917 -64.8915 -64.8914 -64.8913 -64.8913 -64.8911 -64.8910
   -64.8910 -64.8909 -64.8908 -64.8906 -64.8878 -64.8875 -64.8871 -64.8867
   -30.7765 -30.7765 -30.7764 -30.7764 -30.7762 -30.7762 -30.7761 -30.7761
   -30.7609 -30.7609 -30.7607 -30.7606 -30.7604 -30.7603 -30.7602 -30.7601
   -30.7600 -30.7599 -30.7598 -30.7597 -30.7596 -30.7594 -30.7593 -30.7592
   -30.6891 -30.6890 -30.6888 -30.6887 -30.6502 -30.6501 -30.6500 -30.6499
   -30.6102 -30.6101 -30.6101 -30.6101 -30.6100 -30.6100 -30.6100 -30.6100
   -30.6091 -30.6090 -30.6089 -30.6088 -30.6086 -30.6085 -30.6083 -30.6083
   -30.6064 -30.6064 -30.6063 -30.6062 -30.5682 -30.5680 -30.5678 -30.5677
   -30.5662 -30.5661 -30.5661 -30.5658 -30.5658 -30.5655 -30.5655 -30.5653
   -30.5647 -30.5647 -30.5647 -30.5646 -30.5495 -30.5494 -30.5494 -30.5491
   -30.5490 -30.5488 -30.5487 -30.5486 -30.5412 -30.5412 -30.5411 -30.5411
   -30.5001 -30.5000 -30.5000 -30.5000 -30.4948 -30.4946 -30.4944 -30.4942
   -30.4926 -30.4923 -30.4920 -30.4917 -30.4764 -30.4764 -30.4764 -30.4764
    13.6505  13.6510  13.6514  13.6519  14.1401  14.1403  14.1405  14.1408
    14.6600  14.6600  14.6601  14.6601  14.6810  14.6811  14.6811  14.6812
    14.6816  14.6817  14.6818  14.6818  14.6848  14.6848  14.6849  14.6850
    14.8337  14.8337  14.8338  14.8340  14.8341  14.8342  14.8343  14.8343
    15.1459  15.1459  15.1460  15.1461  15.1466  15.1466  15.1467  15.1467
    15.2558  15.2558  15.2559  15.2559  15.6866  15.6867  15.6871  15.6871
    15.6873  15.6873  15.6877  15.6878  15.8125  15.8129  15.8131  15.8134
    16.1270  16.1272  16.1272  16.1273  16.5227  16.5229  16.5231  16.5233
    16.6555  16.6555  16.6555  16.6555  16.6596  16.6598  16.6601  16.6603
    16.7308  16.7310  16.7312  16.7314  16.7386  16.7386  16.7388  16.7389
    16.7394  16.7394  16.7394  16.7395  16.7396  16.7396  16.7397  16.7398
    16.7788  16.7788  16.7789  16.7791  17.0414  17.0415  17.0416  17.0418
    17.0418  17.0419  17.0420  17.0421  17.1077  17.1079  17.1080  17.1082
    17.2602  17.2603  17.2606  17.2607  17.3838  17.3838  17.3840  17.3840
    17.3841  17.3842  17.3843  17.3843  17.7713  17.7714  17.7719  17.7720
    17.9681  17.9684  17.9687  17.9689  17.9997  17.9998  17.9999  18.0001
    18.0001  18.0003  18.0004  18.0005  18.2086  18.2088  18.2091  18.2093
    18.2702  18.2703  18.2706  18.2707  18.4753  18.4755  18.4758  18.4759
    19.0882  19.0883  19.0883  19.0883  19.0884  19.0884  19.0884  19.0885
    19.1031  19.1033  19.1033  19.1035  19.1260  19.1260  19.1261  19.1263
    19.1263  19.1264  19.1265  19.1265  19.1375  19.1376  19.1378  19.1379
    21.0552  21.0555  21.0558  21.0561  22.2071  22.2073  22.2074  22.2075
    22.2077  22.2078  22.2079  22.2080  23.4250  23.4251  23.4251  23.4253
    23.4254  23.4256  23.4257  23.4257  24.5498  24.5502  24.5505  24.5508
    26.9981  26.9982  26.9983  26.9984  26.9986  26.9987  26.9988  26.9989
    27.4989  27.4991  27.4992  27.4993  29.1803  29.1804  29.1805  29.1806
    29.6983  29.6983  29.6985  29.6986  29.6988  29.6989  29.6991  29.6991
    31.3229  31.3232

          k =-0.5000 0.3876-0.5000 ( 33116 PWs)   bands (ev):

   -64.9263 -64.9259 -64.9255 -64.9251 -64.9208 -64.9204 -64.9200 -64.9197
   -64.8953 -64.8950 -64.8945 -64.8942 -64.8921 -64.8920 -64.8919 -64.8918
   -64.8917 -64.8917 -64.8915 -64.8914 -64.8913 -64.8913 -64.8911 -64.8910
   -64.8910 -64.8909 -64.8908 -64.8906 -64.8897 -64.8894 -64.8890 -64.8886
   -30.7729 -30.7728 -30.7727 -30.7726 -30.7725 -30.7724 -30.7724 -30.7723
   -30.7659 -30.7657 -30.7655 -30.7654 -30.7652 -30.7652 -30.7649 -30.7647
   -30.7640 -30.7640 -30.7639 -30.7637 -30.7637 -30.7635 -30.7634 -30.7633
   -30.6682 -30.6681 -30.6679 -30.6678 -30.6310 -30.6309 -30.6308 -30.6307
   -30.6258 -30.6257 -30.6256 -30.6255 -30.6101 -30.6101 -30.6101 -30.6100
   -30.6100 -30.6100 -30.6099 -30.6099 -30.6096 -30.6095 -30.6094 -30.6093
   -30.6092 -30.6091 -30.6090 -30.6090 -30.5890 -30.5889 -30.5887 -30.5885
   -30.5618 -30.5618 -30.5617 -30.5616 -30.5614 -30.5612 -30.5611 -30.5610
   -30.5605 -30.5604 -30.5604 -30.5604 -30.5529 -30.5529 -30.5528 -30.5526
   -30.5524 -30.5523 -30.5522 -30.5521 -30.5485 -30.5485 -30.5485 -30.5484
   -30.4927 -30.4927 -30.4926 -30.4926 -30.4894 -30.4891 -30.4889 -30.4887
   -30.4887 -30.4885 -30.4881 -30.4879 -30.4807 -30.4807 -30.4807 -30.4807
    13.7461  13.7465  13.7469  13.7473  13.9979  13.9983  13.9985  13.9989
    14.6845  14.6845  14.6846  14.6847  14.6851  14.6851  14.6852  14.6852
    14.6913  14.6913  14.6914  14.6914  14.7128  14.7129  14.7129  14.7130
    14.7663  14.7663  14.7664  14.7665  14.7667  14.7669  14.7670  14.7670
    15.3043  15.3044  15.3044  15.3046  15.3050  15.3051  15.3051  15.3052
    15.3445  15.3446  15.3447  15.3448  15.6049  15.6049  15.6052  15.6054
    15.6054  15.6056  15.6059  15.6059  15.6269  15.6272  15.6273  15.6276
    16.2546  16.2548  16.2548  16.2548  16.4951  16.4953  16.4954  16.4955
    16.6768  16.6768  16.6770  16.6771  16.7088  16.7090  16.7091  16.7093
    16.7132  16.7133  16.7135  16.7136  16.7377  16.7378  16.7379  16.7380
    16.7566  16.7567  16.7567  16.7568  16.7930  16.7931  16.7931  16.7932
    16.7933  16.7934  16.7934  16.7936  16.9812  16.9812  16.9814  16.9815
    16.9816  16.9816  16.9818  16.9819  16.9977  16.9979  16.9979  16.9981
    17.4290  17.4292  17.4294  17.4296  17.4739  17.4739  17.4740  17.4741
    17.4742  17.4743  17.4744  17.4744  17.7715  17.7716  17.7716  17.7718
    17.7718  17.7721  17.7721  17.7722  17.7926  17.7928  17.7931  17.7933
    17.9309  17.9310  17.9314  17.9316  18.1186  18.1187  18.1190  18.1191
    18.1458  18.1460  18.1462  18.1464  18.2921  18.2922  18.2926  18.2927
    19.1513  19.1514  19.1514  19.1515  19.1515  19.1516  19.1516  19.1517
    19.1586  19.1587  19.1588  19.1590  19.1803  19.1805  19.1806  19.1808
    19.1880  19.1881  19.1881  19.1882  19.1883  19.1884  19.1884  19.1885
    21.8714  21.8717  21.8720  21.8723  22.4616  22.4617  22.4618  22.4620
    22.4621  22.4623  22.4624  22.4624  23.0986  23.0986  23.0987  23.0990
    23.0990  23.0992  23.0993  23.0993  23.6429  23.6433  23.6436  23.6439
    27.5406  27.5407  27.5408  27.5409  27.5411  27.5412  27.5413  27.5415
    27.8165  27.8166  27.8168  27.8168  28.6717  28.6718  28.6719  28.6719
    28.9043  28.9044  28.9045  28.9046  28.9049  28.9050  28.9051  28.9052
    32.3897  32.3900

          k =-0.5000-0.4983-0.5000 ( 33072 PWs)   bands (ev):

   -64.9238 -64.9237 -64.9235 -64.9233 -64.9231 -64.9229 -64.9227 -64.9226
   -64.8926 -64.8925 -64.8923 -64.8922 -64.8920 -64.8919 -64.8919 -64.8918
   -64.8917 -64.8917 -64.8916 -64.8915 -64.8915 -64.8914 -64.8913 -64.8913
   -64.8912 -64.8910 -64.8910 -64.8909 -64.8908 -64.8907 -64.8907 -64.8904
   -30.7686 -30.7685 -30.7685 -30.7685 -30.7685 -30.7684 -30.7683 -30.7683
   -30.7682 -30.7681 -30.7681 -30.7680 -30.7680 -30.7680 -30.7679 -30.7679
   -30.7671 -30.7670 -30.7669 -30.7668 -30.7666 -30.7665 -30.7664 -30.7663
   -30.6468 -30.6468 -30.6467 -30.6467 -30.6466 -30.6465 -30.6465 -30.6464
   -30.6103 -30.6103 -30.6102 -30.6102 -30.6101 -30.6100 -30.6100 -30.6099
   -30.6099 -30.6099 -30.6099 -30.6098 -30.6098 -30.6098 -30.6098 -30.6097
   -30.6097 -30.6097 -30.6096 -30.6096 -30.6096 -30.6095 -30.6095 -30.6094
   -30.5572 -30.5572 -30.5571 -30.5571 -30.5570 -30.5569 -30.5569 -30.5569
   -30.5566 -30.5566 -30.5566 -30.5566 -30.5564 -30.5564 -30.5563 -30.5563
   -30.5551 -30.5551 -30.5551 -30.5551 -30.5550 -30.5550 -30.5549 -30.5549
   -30.4874 -30.4874 -30.4873 -30.4872 -30.4870 -30.4870 -30.4867 -30.4867
   -30.4862 -30.4862 -30.4861 -30.4861 -30.4861 -30.4860 -30.4860 -30.4860
    13.8639  13.8643  13.8644  13.8646  13.8647  13.8650  13.8651  13.8654
    14.7122  14.7123  14.7124  14.7125  14.7126  14.7127  14.7127  14.7128
    14.7141  14.7141  14.7142  14.7142  14.7142  14.7143  14.7143  14.7144
    14.7146  14.7146  14.7148  14.7148  14.7148  14.7149  14.7149  14.7149
    15.4658  15.4659  15.4661  15.4662  15.4662  15.4662  15.4663  15.4665
    15.4665  15.4666  15.4666  15.4668  15.4669  15.4669  15.4670  15.4670
    15.4685  15.4688  15.4689  15.4690  15.4691  15.4692  15.4693  15.4695
    16.3936  16.3938  16.3938  16.3938  16.3938  16.3939  16.3939  16.3939
    16.6874  16.6875  16.6875  16.6876  16.6876  16.6877  16.6877  16.6878
    16.7139  16.7139  16.7140  16.7140  16.7141  16.7141  16.7142  16.7143
    16.8754  16.8755  16.8755  16.8756  16.8756  16.8757  16.8757  16.8758
    16.8901  16.8902  16.8903  16.8903  16.8904  16.8904  16.8905  16.8905
    16.8906  16.8906  16.8907  16.8907  16.8908  16.8908  16.8909  16.8910
    17.5961  17.5961  17.5962  17.5962  17.5963  17.5963  17.5963  17.5964
    17.5964  17.5965  17.5966  17.5966  17.5967  17.5967  17.5967  17.5968
    17.6090  17.6091  17.6092  17.6093  17.6095  17.6095  17.6096  17.6097
    18.0991  18.0992  18.0993  18.0994  18.0995  18.0996  18.0996  18.0998
    18.1078  18.1079  18.1080  18.1080  18.1083  18.1085  18.1085  18.1086
    19.1866  19.1866  19.1867  19.1868  19.1869  19.1869  19.1870  19.1871
    19.1915  19.1915  19.1915  19.1916  19.1916  19.1916  19.1916  19.1917
    19.1917  19.1918  19.1918  19.1918  19.1918  19.1919  19.1919  19.1919
    22.7398  22.7399  22.7401  22.7402  22.7404  22.7405  22.7407  22.7408
    22.7672  22.7673  22.7674  22.7676  22.7676  22.7676  22.7677  22.7677
    22.7679  22.7679  22.7680  22.7680  22.7681  22.7682  22.7683  22.7683
    28.1810  28.1812  28.1812  28.1813  28.1813  28.1814  28.1815  28.1815
    28.1816  28.1817  28.1818  28.1819  28.1819  28.1820  28.1821  28.1821
    28.2120  28.2122  28.2123  28.2124  28.2124  28.2125  28.2127  28.2127
    33.4859  33.4865

     the Fermi energy is    19.2118 ev

!    total energy              =  -16384.95907232 Ry
     Harris-Foulkes estimate   =  -16384.95906133 Ry
     estimated scf accuracy    <       0.00000057 Ry

     total all-electron energy =   -322945.812779 Ry

     The total energy is the sum of the following terms:

     one-electron contribution =   -2495.58162434 Ry
     hartree contribution      =    1664.05879737 Ry
     xc contribution           =    -986.45161759 Ry
     ewald contribution        =   -6399.59534177 Ry
     one-center paw contrib.   =   -8167.42328329 Ry
     smearing contrib. (-TS)   =       0.03399729 Ry

     convergence has been achieved in  11 iterations

     Forces acting on atoms (cartesian axes, Ry/au):

     atom    1 type  1   force =     0.00000000    0.00000000    0.00000000
     atom    2 type  1   force =    -0.00000408    0.00025549   -0.00000000
     atom    3 type  1   force =    -0.00003056   -0.00000000   -0.00003056
     atom    4 type  1   force =     0.00000000    0.00025549   -0.00000408
     atom    5 type  1   force =     0.00000000    0.00000000   -0.00000000
     atom    6 type  1   force =     0.00004368    0.00042773   -0.00000000
     atom    7 type  1   force =    -0.00003056   -0.00000000    0.00003056
     atom    8 type  1   force =    -0.00000000    0.00025549    0.00000408
     atom    9 type  1   force =     0.00000000    0.00000000    0.00000000
     atom   10 type  1   force =    -0.00000408   -0.00025549   -0.00000000
     atom   11 type  1   force =     0.00005999    0.00000000    0.00005999
     atom   12 type  1   force =     0.00000000   -0.00025549   -0.00000408
     atom   13 type  1   force =     0.00000000    0.00000000    0.00000000
     atom   14 type  1   force =     0.00004368   -0.00042773    0.00000000
     atom   15 type  1   force =     0.00005999    0.00000000   -0.00005999
     atom   16 type  1   force =     0.00000000   -0.00025549    0.00000408
     atom   17 type  1   force =     0.00000000   -0.00000000    0.00000000
     atom   18 type  1   force =     0.00000408    0.00025549    0.00000000
     atom   19 type  1   force =     0.00003056   -0.00000000   -0.00003056
     atom   20 type  1   force =    -0.00000000    0.00042773    0.00004368
     atom   21 type  1   force =     0.00000000    0.00000000    0.00000000
     atom   22 type  1   force =    -0.00004368    0.00042773    0.00000000
     atom   23 type  1   force =     0.00003056    0.00000000    0.00003056
     atom   24 type  1   force =     0.00000000    0.00042773   -0.00004368
     atom   25 type  1   force =     0.00000000    0.00000000    0.00000000
     atom   26 type  1   force =     0.00000408   -0.00025549   -0.00000000
     atom   27 type  1   force =    -0.00005999    0.00000000    0.00005999
     atom   28 type  1   force =     0.00000000   -0.00042773    0.00004368
     atom   29 type  1   force =     0.00000000    0.00000000    0.00000000
     atom   30 type  1   force =    -0.00004368   -0.00042773   -0.00000000
     atom   31 type  1   force =    -0.00005999    0.00000000   -0.00005999
     atom   32 type  1   force =    -0.00000000   -0.00042773   -0.00004368

     Total force =     0.001427     Total SCF correction =     0.007221
     SCF correction compared to forces is large: reduce conv_thr to get better values


     Computing stress (Cartesian axis) and pressure

          total   stress  (Ry/bohr**3)                   (kbar)     P=   -4.13
  -0.00002253   0.00000000   0.00000000         -3.31      0.00      0.00
   0.00000000  -0.00003907   0.00000000          0.00     -5.75      0.00
   0.00000000   0.00000000  -0.00002253          0.00      0.00     -3.31


     Writing output data file pxrgoilIiTANSuQh.save/
 
     init_run     :     41.17s CPU     44.69s WALL (       1 calls)
     electrons    :   1954.41s CPU   2057.59s WALL (       1 calls)
     forces       :     18.77s CPU     19.49s WALL (       1 calls)
     stress       :    184.94s CPU    185.64s WALL (       1 calls)

     Called by init_run:
     wfcinit      :     40.37s CPU     43.81s WALL (       1 calls)
     potinit      :      0.37s CPU      0.38s WALL (       1 calls)
     hinit0       :      0.25s CPU      0.26s WALL (       1 calls)

     Called by electrons:
     c_bands      :   1774.28s CPU   1858.54s WALL (      12 calls)
     sum_band     :    176.08s CPU    194.59s WALL (      12 calls)
     v_of_rho     :      0.34s CPU      0.37s WALL (      12 calls)
     newd         :      0.84s CPU      1.12s WALL (      12 calls)
     PAW_pot      :      3.04s CPU      3.09s WALL (      12 calls)
     mix_rho      :      0.08s CPU      0.10s WALL (      12 calls)

     Called by c_bands:
     init_us_2    :     11.02s CPU     11.07s WALL (    2025 calls)
     cegterg      :   1713.94s CPU   1797.90s WALL (     900 calls)

     Called by sum_band:
     sum_band:bec :      1.35s CPU      1.37s WALL (     900 calls)
     addusdens    :      0.96s CPU      1.27s WALL (      12 calls)

     Called by *egterg:
     h_psi        :    696.85s CPU    772.30s WALL (    2648 calls)
     s_psi        :     84.94s CPU     85.24s WALL (    2648 calls)
     g_psi        :      2.46s CPU      2.47s WALL (    1673 calls)
     cdiaghg      :    658.30s CPU    660.58s WALL (    2498 calls)

     Called by h_psi:
     h_psi:pot    :    690.13s CPU    765.30s WALL (    2648 calls)
     h_psi:calbec :     88.14s CPU     92.38s WALL (    2648 calls)
     vloc_psi     :    517.92s CPU    588.42s WALL (    2648 calls)
     add_vuspsi   :     84.04s CPU     84.48s WALL (    2648 calls)

     General routines
     calbec       :    149.92s CPU    156.92s WALL (    3923 calls)
     fft          :      0.33s CPU      0.37s WALL (     181 calls)
     ffts         :      0.03s CPU      0.03s WALL (      24 calls)
     fftw         :    603.49s CPU    685.39s WALL ( 1695700 calls)
     interpolate  :      0.04s CPU      0.05s WALL (      12 calls)
 
     Parallel routines
     fft_scatt_xy :     48.58s CPU     54.33s WALL ( 1695905 calls)
     fft_scatt_yz :    400.41s CPU    458.78s WALL ( 1695905 calls)
 
     PWSCF        : 36m46.15s CPU    40m 6.30s WALL

 
   This run was terminated on:  16:39:51  11Nov2020            

=------------------------------------------------------------------------------=
   JOB DONE.
=------------------------------------------------------------------------------=
