--------------------------------------------------------------------------
WARNING: No preset parameters were found for the device that Open MPI
detected:

  Local host:            bear-pg0206u14b
  Device name:           mlx5_0
  Device vendor ID:      0x02c9
  Device vendor part ID: 4123

Default device parameters will be used, which may result in lower
performance.  You can edit any of the files specified by the
btl_openib_device_param_files MCA parameter to set values for your
device.

NOTE: You can turn off this warning by setting the MCA parameter
      btl_openib_warn_no_device_params_found to 0.
--------------------------------------------------------------------------
--------------------------------------------------------------------------
WARNING: There was an error initializing an OpenFabrics device.

  Local host:   bear-pg0206u14b
  Local device: mlx5_0
--------------------------------------------------------------------------

     Program PWSCF v.6.3 starts on 11Nov2020 at 13:59:12 

     This program is part of the open-source Quantum ESPRESSO suite
     for quantum simulation of materials; please cite
         "P. Giannozzi et al., J. Phys.:Condens. Matter 21 395502 (2009);
         "P. Giannozzi et al., J. Phys.:Condens. Matter 29 465901 (2017);
          URL http://www.quantum-espresso.org", 
     in publications or presentations arising from this work. More details at
     http://www.quantum-espresso.org/quote

     Parallel version (MPI & OpenMP), running on      20 processor cores
     Number of MPI processes:                20
     Threads/MPI process:                     1

     MPI processes distributed on     1 nodes
     R & G space division:  proc/nbgrp/npool/nimage =      20
     Reading input from wd/ec/ec_2_002.in
Warning: card &IONS ignored
Warning: card ION_DYNAMICS = 'BFGS', ignored
Warning: card / ignored
Warning: card &CELL ignored
Warning: card CELL_DYNAMICS = 'BFGS', ignored
Warning: card CELL_FACTOR = 2.0, ignored
Warning: card PRESS = 0.0, ignored
Warning: card / ignored

     Current dimensions of program PWSCF are:
     Max number of different atomic species (ntypx) = 10
     Max number of k-points (npk) =  40000
     Max angular momentum in pseudopotentials (lmaxx) =  3
               file Pd.pbe-spn-kjpaw_psl.1.0.0.UPF: wavefunction(s)  4S 5S 4D renormalized

     Subspace diagonalization in iterative solution of the eigenvalue problem:
     a serial algorithm will be used

 
     Parallelization info
     --------------------
     sticks:   dense  smooth     PW     G-vecs:    dense   smooth      PW
     Min         376     248     67                24608    13202    1873
     Max         377     249     68                24613    13205    1878
     Sum        7527    4969   1353               492195   264059   37529
 


     bravais-lattice index     =            0
     lattice parameter (alat)  =      14.8394  a.u.
     unit-cell volume          =    3270.4877 (a.u.)^3
     number of atoms/cell      =           32
     number of atomic types    =            1
     number of electrons       =       576.00
     number of Kohn-Sham states=          346
     kinetic-energy cutoff     =      71.0000  Ry
     charge density cutoff     =     430.0000  Ry
     convergence threshold     =      1.0E-06
     mixing beta               =       0.1000
     number of iterations used =           10  plain     mixing
     Exchange-correlation      = SLA PW PBX PBC ( 1  4  3  4 0 0)

     celldm(1)=  14.839420  celldm(2)=   0.000000  celldm(3)=   0.000000
     celldm(4)=   0.000000  celldm(5)=   0.000000  celldm(6)=   0.000000

     crystal axes: (cart. coord. in units of alat)
               a(1) = (   1.000000   0.000000   0.000000 )  
               a(2) = (   0.000000   1.000833   0.000000 )  
               a(3) = (   0.000000   0.000000   1.000000 )  

     reciprocal axes: (cart. coord. in units 2 pi/alat)
               b(1) = (  1.000000  0.000000  0.000000 )  
               b(2) = (  0.000000  0.999167  0.000000 )  
               b(3) = (  0.000000  0.000000  1.000000 )  


     PseudoPot. # 1 for Pd read from file:
     /rds/homes/b/bxp912/pp/Pd.pbe-spn-kjpaw_psl.1.0.0.UPF
     MD5 check sum: 790f2ebce206edfd9790dcb9844eca51
     Pseudo is Projector augmented-wave + core cor, Zval = 18.0
     Generated using "atomic" code by A. Dal Corso v.6.3
     Shape of augmentation charge: PSQ
     Using radial grid of 1235 points,  6 beta functions with: 
                l(1) =   0
                l(2) =   0
                l(3) =   1
                l(4) =   1
                l(5) =   2
                l(6) =   2
     Q(r) pseudized with 0 coefficients 


     atomic species   valence    mass     pseudopotential
        Pd            18.00   106.42000     Pd( 1.00)

     16 Sym. Ops., with inversion, found



   Cartesian axes

     site n.     atom                  positions (alat units)
         1           Pd  tau(   1) = (   0.0000000   0.0000000   0.0000000  )
         2           Pd  tau(   2) = (   0.2500045   0.2502128   0.0000000  )
         3           Pd  tau(   3) = (   0.2500045   0.0000000   0.2500040  )
         4           Pd  tau(   4) = (   0.0000000   0.2502128   0.2500040  )
         5           Pd  tau(   5) = (   0.0000000   0.0000000   0.4999990  )
         6           Pd  tau(   6) = (   0.2500116   0.2502199   0.4999990  )
         7           Pd  tau(   7) = (   0.2500045   0.0000000   0.7499950  )
         8           Pd  tau(   8) = (   0.0000000   0.2502128   0.7499950  )
         9           Pd  tau(   9) = (   0.0000000   0.5004165   0.0000000  )
        10           Pd  tau(  10) = (   0.2500045   0.7506202   0.0000000  )
        11           Pd  tau(  11) = (   0.2500116   0.5004165   0.2500109  )
        12           Pd  tau(  12) = (   0.0000000   0.7506202   0.2500040  )
        13           Pd  tau(  13) = (   0.0000000   0.5004165   0.4999990  )
        14           Pd  tau(  14) = (   0.2500116   0.7506131   0.4999990  )
        15           Pd  tau(  15) = (   0.2500116   0.5004165   0.7499881  )
        16           Pd  tau(  16) = (   0.0000000   0.7506202   0.7499950  )
        17           Pd  tau(  17) = (   0.4999998   0.0000000   0.0000000  )
        18           Pd  tau(  18) = (   0.7499952   0.2502128   0.0000000  )
        19           Pd  tau(  19) = (   0.7499952   0.0000000   0.2500040  )
        20           Pd  tau(  20) = (   0.4999998   0.2502199   0.2500109  )
        21           Pd  tau(  21) = (   0.4999998   0.0000000   0.4999990  )
        22           Pd  tau(  22) = (   0.7499881   0.2502199   0.4999990  )
        23           Pd  tau(  23) = (   0.7499952   0.0000000   0.7499950  )
        24           Pd  tau(  24) = (   0.4999998   0.2502199   0.7499881  )
        25           Pd  tau(  25) = (   0.4999998   0.5004165   0.0000000  )
        26           Pd  tau(  26) = (   0.7499952   0.7506202   0.0000000  )
        27           Pd  tau(  27) = (   0.7499881   0.5004165   0.2500109  )
        28           Pd  tau(  28) = (   0.4999998   0.7506131   0.2500109  )
        29           Pd  tau(  29) = (   0.4999998   0.5004165   0.4999990  )
        30           Pd  tau(  30) = (   0.7499881   0.7506131   0.4999990  )
        31           Pd  tau(  31) = (   0.7499881   0.5004165   0.7499881  )
        32           Pd  tau(  32) = (   0.4999998   0.7506131   0.7499881  )

     number of k points=    75  Marzari-Vanderbilt smearing, width (Ry)=  0.0400
                       cart. coord. in units 2pi/alat
        k(    1) = (   0.0555556   0.0555093   0.0555556), wk =   0.0219479
        k(    2) = (   0.0555556   0.0555093   0.1666667), wk =   0.0438957
        k(    3) = (   0.0555556   0.0555093   0.2777778), wk =   0.0438957
        k(    4) = (   0.0555556   0.0555093   0.3888889), wk =   0.0438957
        k(    5) = (   0.0555556   0.0555093  -0.5000000), wk =   0.0219479
        k(    6) = (   0.0555556   0.1665279   0.0555556), wk =   0.0219479
        k(    7) = (   0.0555556   0.1665279   0.1666667), wk =   0.0438957
        k(    8) = (   0.0555556   0.1665279   0.2777778), wk =   0.0438957
        k(    9) = (   0.0555556   0.1665279   0.3888889), wk =   0.0438957
        k(   10) = (   0.0555556   0.1665279  -0.5000000), wk =   0.0219479
        k(   11) = (   0.0555556   0.2775465   0.0555556), wk =   0.0219479
        k(   12) = (   0.0555556   0.2775465   0.1666667), wk =   0.0438957
        k(   13) = (   0.0555556   0.2775465   0.2777778), wk =   0.0438957
        k(   14) = (   0.0555556   0.2775465   0.3888889), wk =   0.0438957
        k(   15) = (   0.0555556   0.2775465  -0.5000000), wk =   0.0219479
        k(   16) = (   0.0555556   0.3885651   0.0555556), wk =   0.0219479
        k(   17) = (   0.0555556   0.3885651   0.1666667), wk =   0.0438957
        k(   18) = (   0.0555556   0.3885651   0.2777778), wk =   0.0438957
        k(   19) = (   0.0555556   0.3885651   0.3888889), wk =   0.0438957
        k(   20) = (   0.0555556   0.3885651  -0.5000000), wk =   0.0219479
        k(   21) = (   0.0555556  -0.4995837   0.0555556), wk =   0.0109739
        k(   22) = (   0.0555556  -0.4995837   0.1666667), wk =   0.0219479
        k(   23) = (   0.0555556  -0.4995837   0.2777778), wk =   0.0219479
        k(   24) = (   0.0555556  -0.4995837   0.3888889), wk =   0.0219479
        k(   25) = (   0.0555556  -0.4995837  -0.5000000), wk =   0.0109739
        k(   26) = (   0.1666667   0.0555093   0.1666667), wk =   0.0219479
        k(   27) = (   0.1666667   0.0555093   0.2777778), wk =   0.0438957
        k(   28) = (   0.1666667   0.0555093   0.3888889), wk =   0.0438957
        k(   29) = (   0.1666667   0.0555093  -0.5000000), wk =   0.0219479
        k(   30) = (   0.1666667   0.1665279   0.1666667), wk =   0.0219479
        k(   31) = (   0.1666667   0.1665279   0.2777778), wk =   0.0438957
        k(   32) = (   0.1666667   0.1665279   0.3888889), wk =   0.0438957
        k(   33) = (   0.1666667   0.1665279  -0.5000000), wk =   0.0219479
        k(   34) = (   0.1666667   0.2775465   0.1666667), wk =   0.0219479
        k(   35) = (   0.1666667   0.2775465   0.2777778), wk =   0.0438957
        k(   36) = (   0.1666667   0.2775465   0.3888889), wk =   0.0438957
        k(   37) = (   0.1666667   0.2775465  -0.5000000), wk =   0.0219479
        k(   38) = (   0.1666667   0.3885651   0.1666667), wk =   0.0219479
        k(   39) = (   0.1666667   0.3885651   0.2777778), wk =   0.0438957
        k(   40) = (   0.1666667   0.3885651   0.3888889), wk =   0.0438957
        k(   41) = (   0.1666667   0.3885651  -0.5000000), wk =   0.0219479
        k(   42) = (   0.1666667  -0.4995837   0.1666667), wk =   0.0109739
        k(   43) = (   0.1666667  -0.4995837   0.2777778), wk =   0.0219479
        k(   44) = (   0.1666667  -0.4995837   0.3888889), wk =   0.0219479
        k(   45) = (   0.1666667  -0.4995837  -0.5000000), wk =   0.0109739
        k(   46) = (   0.2777778   0.0555093   0.2777778), wk =   0.0219479
        k(   47) = (   0.2777778   0.0555093   0.3888889), wk =   0.0438957
        k(   48) = (   0.2777778   0.0555093  -0.5000000), wk =   0.0219479
        k(   49) = (   0.2777778   0.1665279   0.2777778), wk =   0.0219479
        k(   50) = (   0.2777778   0.1665279   0.3888889), wk =   0.0438957
        k(   51) = (   0.2777778   0.1665279  -0.5000000), wk =   0.0219479
        k(   52) = (   0.2777778   0.2775465   0.2777778), wk =   0.0219479
        k(   53) = (   0.2777778   0.2775465   0.3888889), wk =   0.0438957
        k(   54) = (   0.2777778   0.2775465  -0.5000000), wk =   0.0219479
        k(   55) = (   0.2777778   0.3885651   0.2777778), wk =   0.0219479
        k(   56) = (   0.2777778   0.3885651   0.3888889), wk =   0.0438957
        k(   57) = (   0.2777778   0.3885651  -0.5000000), wk =   0.0219479
        k(   58) = (   0.2777778  -0.4995837   0.2777778), wk =   0.0109739
        k(   59) = (   0.2777778  -0.4995837   0.3888889), wk =   0.0219479
        k(   60) = (   0.2777778  -0.4995837  -0.5000000), wk =   0.0109739
        k(   61) = (   0.3888889   0.0555093   0.3888889), wk =   0.0219479
        k(   62) = (   0.3888889   0.0555093  -0.5000000), wk =   0.0219479
        k(   63) = (   0.3888889   0.1665279   0.3888889), wk =   0.0219479
        k(   64) = (   0.3888889   0.1665279  -0.5000000), wk =   0.0219479
        k(   65) = (   0.3888889   0.2775465   0.3888889), wk =   0.0219479
        k(   66) = (   0.3888889   0.2775465  -0.5000000), wk =   0.0219479
        k(   67) = (   0.3888889   0.3885651   0.3888889), wk =   0.0219479
        k(   68) = (   0.3888889   0.3885651  -0.5000000), wk =   0.0219479
        k(   69) = (   0.3888889  -0.4995837   0.3888889), wk =   0.0109739
        k(   70) = (   0.3888889  -0.4995837  -0.5000000), wk =   0.0109739
        k(   71) = (  -0.5000000   0.0555093  -0.5000000), wk =   0.0054870
        k(   72) = (  -0.5000000   0.1665279  -0.5000000), wk =   0.0054870
        k(   73) = (  -0.5000000   0.2775465  -0.5000000), wk =   0.0054870
        k(   74) = (  -0.5000000   0.3885651  -0.5000000), wk =   0.0054870
        k(   75) = (  -0.5000000  -0.4995837  -0.5000000), wk =   0.0027435

     Dense  grid:   492195 G-vectors     FFT dimensions: ( 100, 100, 100)

     Smooth grid:   264059 G-vectors     FFT dimensions: (  80,  80,  80)

     Estimated max dynamical RAM per process >     891.77 MB

     Estimated total dynamical RAM >      17.42 GB

     Check: negative/imaginary core charge=   -0.000002    0.000000

     Initial potential from superposition of free atoms

     starting charge  575.98776, renormalised to  576.00000
     Starting wfcs are  320 randomized atomic wfcs +   26 random wfcs
     Checking if some PAW data can be deallocated... 

     total cpu time spent up to now is       44.1 secs

     Self-consistent Calculation

     iteration #  1     ecut=    71.00 Ry     beta= 0.10
     Davidson diagonalization with overlap
     ethr =  1.00E-02,  avg # of iterations =  3.1

     Threshold (ethr) on eigenvalues was too large:
     Diagonalizing with lowered threshold

     Davidson diagonalization with overlap
     ethr =  8.35E-05,  avg # of iterations =  3.0

     total cpu time spent up to now is      478.4 secs

     total energy              =  -16385.02066060 Ry
     Harris-Foulkes estimate   =  -16385.08836781 Ry
     estimated scf accuracy    <       0.47533094 Ry

     iteration #  2     ecut=    71.00 Ry     beta= 0.10
     Davidson diagonalization with overlap
     ethr =  8.25E-05,  avg # of iterations =  1.0

     total cpu time spent up to now is      614.8 secs

     total energy              =  -16384.93065428 Ry
     Harris-Foulkes estimate   =  -16385.02843899 Ry
     estimated scf accuracy    <       0.25912854 Ry

     iteration #  3     ecut=    71.00 Ry     beta= 0.10
     Davidson diagonalization with overlap
     ethr =  4.50E-05,  avg # of iterations =  2.2

     total cpu time spent up to now is      804.7 secs

     total energy              =  -16384.96106639 Ry
     Harris-Foulkes estimate   =  -16384.96802323 Ry
     estimated scf accuracy    <       0.09024497 Ry

     iteration #  4     ecut=    71.00 Ry     beta= 0.10
     Davidson diagonalization with overlap
     ethr =  1.57E-05,  avg # of iterations =  1.5

     total cpu time spent up to now is      954.7 secs

     total energy              =  -16384.96207952 Ry
     Harris-Foulkes estimate   =  -16384.96446231 Ry
     estimated scf accuracy    <       0.02159068 Ry

     iteration #  5     ecut=    71.00 Ry     beta= 0.10
     Davidson diagonalization with overlap
     c_bands:  1 eigenvalues not converged
     ethr =  3.75E-06,  avg # of iterations =  1.6

     total cpu time spent up to now is     1105.0 secs

     total energy              =  -16384.95731049 Ry
     Harris-Foulkes estimate   =  -16384.96226701 Ry
     estimated scf accuracy    <       0.01425800 Ry

     iteration #  6     ecut=    71.00 Ry     beta= 0.10
     Davidson diagonalization with overlap
     ethr =  2.48E-06,  avg # of iterations =  1.2

     total cpu time spent up to now is     1245.2 secs

     total energy              =  -16384.95832366 Ry
     Harris-Foulkes estimate   =  -16384.95840155 Ry
     estimated scf accuracy    <       0.00095060 Ry

     iteration #  7     ecut=    71.00 Ry     beta= 0.10
     Davidson diagonalization with overlap
     ethr =  1.65E-07,  avg # of iterations =  3.0

     total cpu time spent up to now is     1455.1 secs

     total energy              =  -16384.95841747 Ry
     Harris-Foulkes estimate   =  -16384.95844669 Ry
     estimated scf accuracy    <       0.00014101 Ry

     iteration #  8     ecut=    71.00 Ry     beta= 0.10
     Davidson diagonalization with overlap
     ethr =  2.45E-08,  avg # of iterations =  1.2

     total cpu time spent up to now is     1595.0 secs

     total energy              =  -16384.95841525 Ry
     Harris-Foulkes estimate   =  -16384.95842128 Ry
     estimated scf accuracy    <       0.00005494 Ry

     iteration #  9     ecut=    71.00 Ry     beta= 0.10
     Davidson diagonalization with overlap
     ethr =  9.54E-09,  avg # of iterations =  1.0

     total cpu time spent up to now is     1730.0 secs

     total energy              =  -16384.95841441 Ry
     Harris-Foulkes estimate   =  -16384.95841639 Ry
     estimated scf accuracy    <       0.00003616 Ry

     iteration # 10     ecut=    71.00 Ry     beta= 0.10
     Davidson diagonalization with overlap
     ethr =  6.28E-09,  avg # of iterations =  2.0

     total cpu time spent up to now is     1921.8 secs

     total energy              =  -16384.95842167 Ry
     Harris-Foulkes estimate   =  -16384.95841877 Ry
     estimated scf accuracy    <       0.00000119 Ry

     iteration # 11     ecut=    71.00 Ry     beta= 0.10
     Davidson diagonalization with overlap
     ethr =  2.07E-10,  avg # of iterations =  2.0

     total cpu time spent up to now is     2091.6 secs

     End of self-consistent calculation

          k = 0.0556 0.0555 0.0556 ( 33024 PWs)   bands (ev):

   -64.8892 -64.8603 -64.8602 -64.8602 -64.8548 -64.8547 -64.8546 -64.8445
   -64.8444 -64.8443 -64.8421 -64.8418 -64.8416 -64.8415 -64.8414 -64.8413
   -64.8413 -64.8411 -64.8410 -64.8405 -64.8388 -64.8388 -64.8387 -64.8264
   -64.8259 -64.8258 -64.8257 -64.8256 -64.8255 -64.8254 -64.8253 -64.8249
   -30.7732 -30.7732 -30.7732 -30.7714 -30.7528 -30.7528 -30.7525 -30.6755
   -30.6750 -30.6749 -30.6712 -30.6712 -30.6706 -30.6706 -30.6706 -30.6705
   -30.6634 -30.6628 -30.6627 -30.6580 -30.6580 -30.6576 -30.6576 -30.6575
   -30.6575 -30.6395 -30.6395 -30.6390 -30.6390 -30.6389 -30.6388 -30.5982
   -30.5982 -30.5980 -30.5738 -30.5738 -30.5736 -30.5678 -30.5678 -30.5676
   -30.5584 -30.5584 -30.5584 -30.5583 -30.5582 -30.5581 -30.5434 -30.5434
   -30.5432 -30.5430 -30.5427 -30.5425 -30.5425 -30.5422 -30.5422 -30.5421
   -30.5420 -30.5414 -30.5404 -30.5404 -30.5399 -30.4773 -30.4773 -30.4769
   -30.4768 -30.4767 -30.4767 -30.4649 -30.4649 -30.4645 -30.4645 -30.4645
   -30.4644 -30.4612 -30.4612 -30.4608 -30.4572 -30.4567 -30.4566 -30.4561
   -30.4561 -30.4560 -30.4558 -30.4558 -30.4557 -30.4556 -30.4555 -30.4552
   -30.4547 -30.4543 -30.4490 -30.4489 -30.4487 -30.4033 -30.4010 -30.4009
    12.2789  14.0361  14.0361  14.0361  14.1042  14.1180  14.1180  14.1180
    14.3055  14.3083  14.3084  14.3109  14.3109  14.3109  14.5006  14.5034
    14.5034  15.0464  15.0464  15.0491  15.0492  15.0493  15.0493  15.2000
    15.2028  15.2029  15.3514  15.3516  15.3516  15.3860  15.3894  15.3895
    15.4338  15.4338  15.4342  15.4343  15.4343  15.4344  15.4356  15.4364
    15.4365  15.7765  15.7765  15.7782  15.7782  15.7788  15.7789  15.8832
    15.8859  15.8860  15.9050  15.9050  15.9078  15.9079  15.9082  15.9082
    15.9617  15.9648  15.9649  16.1317  16.1317  16.1337  16.1337  16.1345
    16.1346  16.2382  16.2383  16.2400  16.2427  16.2428  16.2428  16.2429
    16.2440  16.2441  16.3506  16.3507  16.3511  16.4116  16.4166  16.4166
    16.4325  16.4396  16.4452  16.4452  16.4502  16.4639  16.4823  16.4865
    17.2775  17.2817  17.2818  17.3403  17.3403  17.3421  17.4129  17.4130
    17.4131  17.4132  17.4146  17.4146  17.4191  17.4192  17.4205  17.4647
    17.4693  17.4694  17.5699  17.5699  17.5730  17.6891  17.6892  17.6900
    17.8136  17.8137  17.8164  17.8712  17.8713  17.8737  17.9448  17.9448
    17.9455  17.9456  17.9456  17.9457  17.9642  17.9643  17.9646  18.0083
    18.0161  18.0190  18.0191  18.0192  18.0192  18.0213  18.0213  18.1282
    18.1282  18.1304  18.5148  18.5148  18.5182  18.6166  18.6166  18.6195
    18.9995  18.9995  19.0018  19.1242  19.1242  19.1245  19.1495  19.1528
    19.1697  19.1721  19.1721  19.4008  19.4014  19.4014  19.4539  19.4540
    19.4541  19.4541  19.4582  19.4582  19.4583  19.4588  19.4588  20.1247
    20.4305  20.4305  20.4306  20.9520  20.9521  20.9568  21.4616  21.4616
    21.4618  21.4619  21.4674  21.4674  21.9905  21.9905  21.9970  22.5645
    22.5803  22.5803  26.3255  26.3255  26.3256  26.4823  27.4689  27.4690
    27.4761  27.4762  27.4834  27.4835  28.1611  28.1612  28.1680  28.1680
    28.1757  28.1758  29.5755  29.5755  29.5785  29.5785  29.5854  29.5854
    29.7289  29.7509  29.7509  30.6939  30.7353  30.7353  30.7378  30.7378
    30.7433  30.7434

          k = 0.0556 0.0555 0.1667 ( 33010 PWs)   bands (ev):

   -64.8883 -64.8657 -64.8598 -64.8597 -64.8543 -64.8542 -64.8492 -64.8474
   -64.8473 -64.8444 -64.8439 -64.8438 -64.8422 -64.8421 -64.8414 -64.8412
   -64.8408 -64.8406 -64.8388 -64.8384 -64.8383 -64.8363 -64.8363 -64.8267
   -64.8265 -64.8261 -64.8261 -64.8260 -64.8259 -64.8257 -64.8255 -64.8249
   -30.7705 -30.7687 -30.7687 -30.7656 -30.7496 -30.7493 -30.7476 -30.6865
   -30.6813 -30.6812 -30.6774 -30.6769 -30.6763 -30.6758 -30.6756 -30.6754
   -30.6732 -30.6644 -30.6638 -30.6616 -30.6613 -30.6567 -30.6562 -30.6532
   -30.6526 -30.6422 -30.6418 -30.6360 -30.6355 -30.6280 -30.6209 -30.6208
   -30.6031 -30.6028 -30.5891 -30.5887 -30.5739 -30.5736 -30.5733 -30.5729
   -30.5618 -30.5478 -30.5477 -30.5456 -30.5453 -30.5431 -30.5429 -30.5425
   -30.5422 -30.5401 -30.5400 -30.5394 -30.5382 -30.5375 -30.5372 -30.5369
   -30.5365 -30.5363 -30.5336 -30.5285 -30.5283 -30.4895 -30.4888 -30.4796
   -30.4796 -30.4743 -30.4739 -30.4687 -30.4684 -30.4672 -30.4671 -30.4654
   -30.4651 -30.4628 -30.4614 -30.4611 -30.4611 -30.4605 -30.4603 -30.4568
   -30.4567 -30.4564 -30.4561 -30.4559 -30.4553 -30.4536 -30.4533 -30.4531
   -30.4527 -30.4522 -30.4491 -30.4444 -30.4442 -30.4098 -30.4031 -30.4023
    12.3524  14.0094  14.0705  14.0824  14.0825  14.1321  14.1595  14.1595
    14.1729  14.3387  14.3531  14.3531  14.3569  14.3596  14.5527  14.5554
    14.5726  14.9632  14.9634  15.0245  15.0814  15.0840  15.0881  15.0908
    15.1199  15.2008  15.2009  15.2263  15.2289  15.2403  15.2466  15.2468
    15.3932  15.3934  15.4080  15.4112  15.4228  15.4239  15.4588  15.4607
    15.5059  15.5066  15.5789  15.7645  15.7653  15.7794  15.7812  15.8250
    15.8269  15.8345  15.8365  15.8934  15.8964  15.9817  15.9837  15.9991
    16.0448  16.0456  16.0927  16.0953  16.0971  16.1026  16.1034  16.1364
    16.1385  16.1826  16.1836  16.2115  16.2123  16.3761  16.3907  16.3931
    16.3932  16.3962  16.4131  16.4136  16.4301  16.4377  16.4578  16.4595
    16.4692  16.4792  16.4848  16.4889  16.5105  16.5175  16.5196  16.5229
    17.0875  17.0898  17.1997  17.2075  17.2234  17.2261  17.2796  17.2796
    17.2974  17.3427  17.3652  17.3669  17.4841  17.4953  17.4969  17.5089
    17.5097  17.5474  17.5483  17.5568  17.5587  17.7685  17.7708  17.7893
    17.7953  17.7974  17.8618  17.8619  17.9411  17.9418  17.9504  17.9512
    17.9515  17.9533  17.9733  18.0267  18.0296  18.0418  18.0420  18.0679
    18.1594  18.1599  18.1673  18.1674  18.2033  18.2050  18.2584  18.2759
    18.2778  18.3091  18.4164  18.5604  18.5634  18.6860  18.6895  18.6916
    18.7192  18.7366  18.7388  18.9513  19.0628  19.0629  19.0850  19.1008
    19.1432  19.1446  19.1458  19.1689  19.1722  19.3316  19.3828  19.3834
    19.3865  19.3873  19.3972  19.4526  19.4537  19.4541  19.4550  20.1157
    20.4885  20.4923  20.6007  20.6007  20.8312  20.9233  20.9718  20.9768
    21.4389  21.4392  21.9716  22.0296  22.0357  22.2180  22.5702  22.5772
    22.8563  22.8715  26.3242  26.4841  26.4844  26.7522  26.7663  26.7666
    26.7731  26.7790  27.3591  27.3660  27.6016  27.6090  28.2855  28.2926
    28.8004  28.8142  29.6213  29.6292  29.7151  29.7368  29.7454  29.8776
    29.8930  29.9573  29.9697  30.1674  30.1794  30.2051  30.2882  30.2889
    30.7158  30.7271

          k = 0.0556 0.0555 0.2778 ( 33006 PWs)   bands (ev):

   -64.8864 -64.8709 -64.8588 -64.8586 -64.8535 -64.8533 -64.8503 -64.8502
   -64.8463 -64.8462 -64.8442 -64.8439 -64.8427 -64.8421 -64.8414 -64.8412
   -64.8406 -64.8404 -64.8389 -64.8356 -64.8355 -64.8340 -64.8339 -64.8285
   -64.8272 -64.8271 -64.8269 -64.8268 -64.8264 -64.8257 -64.8256 -64.8249
   -30.7635 -30.7604 -30.7604 -30.7558 -30.7433 -30.7430 -30.7378 -30.7036
   -30.6979 -30.6978 -30.6928 -30.6925 -30.6897 -30.6788 -30.6785 -30.6767
   -30.6763 -30.6668 -30.6666 -30.6575 -30.6571 -30.6562 -30.6556 -30.6549
   -30.6430 -30.6425 -30.6411 -30.6404 -30.6301 -30.6295 -30.6115 -30.6111
   -30.6036 -30.6035 -30.6035 -30.6032 -30.5874 -30.5870 -30.5847 -30.5844
   -30.5521 -30.5520 -30.5435 -30.5422 -30.5418 -30.5403 -30.5396 -30.5358
   -30.5341 -30.5311 -30.5311 -30.5285 -30.5283 -30.5278 -30.5276 -30.5264
   -30.5264 -30.5183 -30.5144 -30.5142 -30.5085 -30.5013 -30.5003 -30.4850
   -30.4850 -30.4782 -30.4778 -30.4765 -30.4762 -30.4732 -30.4724 -30.4723
   -30.4693 -30.4690 -30.4686 -30.4685 -30.4626 -30.4607 -30.4578 -30.4568
   -30.4561 -30.4560 -30.4559 -30.4558 -30.4553 -30.4529 -30.4527 -30.4526
   -30.4495 -30.4424 -30.4422 -30.4412 -30.4406 -30.4211 -30.4073 -30.4063
    12.4975  13.6593  14.1367  14.1727  14.1728  14.2016  14.2420  14.2420
    14.2681  14.3938  14.4371  14.4373  14.4562  14.4588  14.5406  14.6534
    14.6559  14.8157  14.8159  14.8589  14.8727  14.9503  14.9503  15.0019
    15.1093  15.1100  15.1469  15.1491  15.1696  15.1721  15.1779  15.1794
    15.2783  15.2805  15.2934  15.2939  15.4050  15.4061  15.4511  15.4538
    15.5698  15.5709  15.7103  15.7111  15.7447  15.7459  15.7622  15.7632
    15.7655  15.7818  15.7836  15.8103  15.8107  15.9220  15.9233  15.9939
    15.9942  16.0464  16.0502  16.0510  16.1213  16.1225  16.1434  16.1457
    16.1500  16.1515  16.2183  16.2313  16.2318  16.3190  16.3535  16.3538
    16.3574  16.4130  16.4131  16.4194  16.5137  16.5470  16.5510  16.5651
    16.5746  16.5816  16.7282  16.7294  16.7462  16.7959  16.8827  16.8840
    16.9386  16.9423  16.9570  16.9588  17.0278  17.1076  17.1133  17.1133
    17.1306  17.1367  17.4356  17.4526  17.4539  17.5499  17.5513  17.6171
    17.6182  17.6330  17.6336  17.6912  17.6918  17.7224  17.7240  17.7858
    17.7875  17.8953  17.9284  17.9290  17.9298  17.9310  17.9529  17.9536
    17.9595  17.9596  18.0585  18.1569  18.2090  18.2093  18.2245  18.2246
    18.2355  18.3186  18.3240  18.3248  18.3654  18.3657  18.3661  18.3670
    18.4134  18.4143  18.4405  18.4562  18.4573  18.5285  18.7054  18.7071
    18.7663  18.7703  18.7761  18.8205  18.9188  18.9190  18.9686  18.9687
    18.9746  19.0504  19.0578  19.0597  19.0712  19.1970  19.2500  19.2510
    19.2529  19.2542  19.2835  19.4520  19.4533  19.4539  19.4547  20.0609
    20.0638  20.2886  20.5110  20.5152  20.8243  20.8245  20.8642  21.2018
    21.3906  21.3909  21.6078  21.9277  22.6651  22.6717  23.2113  23.2187
    23.3450  23.3597  25.8835  25.8902  26.0276  26.0419  26.4428  26.4500
    26.4948  26.7989  26.7994  27.2035  27.8497  27.8578  28.5239  28.5316
    28.8517  29.2995  29.3051  29.3968  29.3975  29.6377  29.6489  29.6880
    29.7088  29.7865  29.7908  29.9559  30.0400  30.0576  30.2056  30.2172
    30.2211  30.2283

          k = 0.0556 0.0555 0.3889 ( 33022 PWs)   bands (ev):

   -64.8836 -64.8757 -64.8572 -64.8571 -64.8529 -64.8528 -64.8522 -64.8521
   -64.8485 -64.8484 -64.8441 -64.8430 -64.8421 -64.8414 -64.8412 -64.8406
   -64.8401 -64.8391 -64.8391 -64.8330 -64.8329 -64.8318 -64.8317 -64.8313
   -64.8286 -64.8285 -64.8282 -64.8280 -64.8264 -64.8257 -64.8256 -64.8249
   -30.7526 -30.7485 -30.7484 -30.7425 -30.7342 -30.7340 -30.7234 -30.7216
   -30.7160 -30.7160 -30.7085 -30.7083 -30.7083 -30.6819 -30.6788 -30.6785
   -30.6737 -30.6735 -30.6721 -30.6720 -30.6625 -30.6624 -30.6452 -30.6447
   -30.6376 -30.6371 -30.6273 -30.6267 -30.6222 -30.6221 -30.6218 -30.6216
   -30.6168 -30.6164 -30.6005 -30.6001 -30.5982 -30.5977 -30.5876 -30.5875
   -30.5615 -30.5613 -30.5419 -30.5414 -30.5407 -30.5399 -30.5296 -30.5280
   -30.5234 -30.5157 -30.5156 -30.5150 -30.5149 -30.5143 -30.5142 -30.5130
   -30.5130 -30.5120 -30.5108 -30.5017 -30.5013 -30.5012 -30.4928 -30.4928
   -30.4893 -30.4891 -30.4890 -30.4889 -30.4872 -30.4815 -30.4805 -30.4805
   -30.4800 -30.4799 -30.4727 -30.4637 -30.4635 -30.4602 -30.4586 -30.4568
   -30.4561 -30.4560 -30.4553 -30.4549 -30.4547 -30.4517 -30.4504 -30.4503
   -30.4500 -30.4428 -30.4427 -30.4369 -30.4307 -30.4298 -30.4134 -30.4124
    12.7103  13.3067  14.2292  14.3019  14.3019  14.3121  14.3645  14.3645
    14.4018  14.4507  14.4751  14.5627  14.5631  14.5962  14.5984  14.6393
    14.6395  14.6505  14.7101  14.7220  14.7220  14.7740  14.7955  14.7977
    14.9344  14.9355  14.9427  14.9439  15.1415  15.1427  15.2324  15.2337
    15.2869  15.2890  15.3552  15.3568  15.3749  15.3757  15.5130  15.5149
    15.5698  15.5703  15.5780  15.5781  15.6766  15.6767  15.7160  15.7167
    15.7333  15.7350  15.7744  15.7760  15.8207  15.8235  15.9429  15.9634
    15.9641  15.9960  15.9964  16.1074  16.1495  16.1502  16.1520  16.1528
    16.1828  16.1844  16.2434  16.2505  16.2860  16.3027  16.3054  16.3332
    16.3338  16.3851  16.4625  16.4629  16.6018  16.6454  16.6483  16.6706
    16.6716  16.6771  16.7024  16.7033  16.7108  16.7119  16.8636  16.9078
    16.9102  16.9486  16.9559  16.9610  17.1420  17.1450  17.1455  17.1599
    17.3837  17.3877  17.5188  17.5196  17.5267  17.5439  17.5446  17.7138
    17.7142  17.7500  17.7504  17.7586  17.7593  17.7747  17.7758  17.7861
    17.8117  17.8122  17.8976  17.8981  17.9320  17.9388  17.9393  17.9417
    17.9419  17.9549  17.9558  17.9710  17.9715  18.0553  18.1056  18.1707
    18.1709  18.2400  18.3166  18.3209  18.4125  18.4127  18.4470  18.4863
    18.5697  18.5705  18.5733  18.6300  18.6371  18.6372  18.6586  18.6588
    18.8114  18.8115  18.8264  18.9198  18.9268  18.9283  18.9561  18.9580
    18.9655  18.9658  19.0061  19.0711  19.0723  19.0734  19.0743  19.1442
    19.2628  19.2641  19.3946  19.4520  19.4530  19.4539  19.4546  19.6630
    19.6649  20.0727  20.0760  20.4796  20.7720  20.8765  21.0294  21.0297
    21.3108  21.3112  21.4980  21.8463  23.3735  23.3804  23.9208  23.9283
    23.9453  23.9597  24.9968  25.0036  25.3086  25.3228  25.5455  25.5528
    26.8465  27.2630  27.2637  27.7452  28.0510  28.2008  28.2095  28.5814
    28.5821  28.8589  28.8674  29.1183  29.1287  29.1350  29.5101  29.5201
    29.6479  29.6672  29.7293  29.7395  30.1820  30.1822  30.1899  30.2000
    30.4068  30.4228

          k = 0.0556 0.0555-0.5000 ( 33044 PWs)   bands (ev):

   -64.8804 -64.8796 -64.8556 -64.8555 -64.8549 -64.8548 -64.8509 -64.8508
   -64.8501 -64.8500 -64.8439 -64.8432 -64.8421 -64.8414 -64.8412 -64.8406
   -64.8399 -64.8392 -64.8352 -64.8345 -64.8310 -64.8309 -64.8302 -64.8302
   -64.8301 -64.8301 -64.8294 -64.8293 -64.8264 -64.8257 -64.8256 -64.8249
   -30.7386 -30.7382 -30.7339 -30.7335 -30.7331 -30.7328 -30.7265 -30.7261
   -30.7229 -30.7226 -30.7221 -30.7219 -30.7049 -30.7042 -30.6766 -30.6764
   -30.6763 -30.6761 -30.6688 -30.6687 -30.6686 -30.6685 -30.6340 -30.6337
   -30.6335 -30.6331 -30.6287 -30.6283 -30.6281 -30.6276 -30.6130 -30.6127
   -30.6125 -30.6125 -30.6121 -30.6120 -30.6118 -30.6113 -30.5737 -30.5737
   -30.5730 -30.5730 -30.5419 -30.5412 -30.5409 -30.5402 -30.5219 -30.5212
   -30.5205 -30.5198 -30.5045 -30.5042 -30.5033 -30.5033 -30.5026 -30.5026
   -30.5025 -30.5025 -30.5022 -30.5021 -30.5017 -30.5015 -30.5014 -30.5011
   -30.4961 -30.4958 -30.4954 -30.4951 -30.4901 -30.4900 -30.4893 -30.4893
   -30.4861 -30.4858 -30.4598 -30.4590 -30.4588 -30.4587 -30.4584 -30.4583
   -30.4576 -30.4570 -30.4568 -30.4561 -30.4559 -30.4553 -30.4512 -30.4504
   -30.4458 -30.4458 -30.4455 -30.4455 -30.4216 -30.4209 -30.4206 -30.4199
    12.9834  12.9844  14.3386  14.3394  14.4610  14.4615  14.4618  14.4623
    14.4624  14.4624  14.5249  14.5249  14.5257  14.5258  14.5717  14.5718
    14.5809  14.5817  14.7285  14.7292  14.7293  14.7300  14.7640  14.7647
    14.7658  14.7665  14.9651  14.9658  14.9669  14.9676  15.3167  15.3169
    15.3170  15.3172  15.4313  15.4320  15.4327  15.4334  15.4556  15.4562
    15.4565  15.4571  15.5897  15.5903  15.5908  15.5914  15.7447  15.7449
    15.7455  15.7457  15.7520  15.7521  15.7545  15.7546  15.9642  15.9643
    15.9645  15.9646  16.1040  16.1047  16.1520  16.1526  16.1546  16.1553
    16.1773  16.1778  16.2436  16.2442  16.2458  16.2463  16.3393  16.3399
    16.4988  16.4989  16.4996  16.4997  16.5596  16.5598  16.5601  16.5603
    16.7195  16.7197  16.7707  16.7710  16.7731  16.7734  16.7962  16.7970
    16.8022  16.8030  16.8051  16.8053  17.5375  17.5376  17.5381  17.5381
    17.5382  17.5384  17.5387  17.5389  17.5420  17.5423  17.5857  17.5860
    17.6565  17.6572  17.7565  17.7569  17.7571  17.7575  17.8394  17.8398
    17.8401  17.8404  17.8471  17.8475  17.8513  17.8518  17.8556  17.8558
    17.8563  17.8564  17.8942  17.8947  17.8949  17.8953  18.0692  18.0693
    18.0699  18.0700  18.1662  18.1670  18.6206  18.6210  18.6213  18.6217
    18.6475  18.6477  18.7606  18.7608  18.7619  18.7621  18.7673  18.7680
    18.7950  18.7952  18.8058  18.8061  18.8606  18.8612  18.8618  18.8624
    18.8689  18.8694  18.8697  18.8703  19.0217  19.0220  19.2945  19.2946
    19.2954  19.2955  19.4521  19.4528  19.4538  19.4546  19.6548  19.6549
    19.6572  19.6573  20.1159  20.1165  20.6434  20.6442  21.1920  21.1923
    21.1928  21.1931  21.7090  21.7097  24.1535  24.1539  24.1604  24.1607
    24.6085  24.6091  24.6227  24.6233  24.7003  24.7006  24.7078  24.7081
    27.3726  27.3727  27.8630  27.8632  27.8641  27.8642  28.3932  28.3933
    28.6311  28.6318  28.6406  28.6414  29.2683  29.2691  29.2776  29.2784
    29.5929  29.5936  29.6093  29.6099  30.3537  30.3546  30.3715  30.3724
    30.6368  30.6377

          k = 0.0556 0.1665 0.0556 ( 33013 PWs)   bands (ev):

   -64.8883 -64.8658 -64.8597 -64.8597 -64.8542 -64.8542 -64.8493 -64.8474
   -64.8474 -64.8443 -64.8440 -64.8439 -64.8422 -64.8414 -64.8414 -64.8413
   -64.8411 -64.8408 -64.8389 -64.8384 -64.8383 -64.8363 -64.8362 -64.8271
   -64.8263 -64.8262 -64.8261 -64.8260 -64.8256 -64.8255 -64.8254 -64.8252
   -30.7704 -30.7688 -30.7687 -30.7656 -30.7496 -30.7496 -30.7473 -30.6870
   -30.6818 -30.6818 -30.6769 -30.6768 -30.6759 -30.6759 -30.6757 -30.6757
   -30.6737 -30.6639 -30.6638 -30.6611 -30.6611 -30.6563 -30.6563 -30.6526
   -30.6526 -30.6417 -30.6417 -30.6356 -30.6356 -30.6277 -30.6215 -30.6215
   -30.6030 -30.6030 -30.5890 -30.5890 -30.5738 -30.5738 -30.5731 -30.5731
   -30.5616 -30.5476 -30.5476 -30.5461 -30.5460 -30.5432 -30.5432 -30.5420
   -30.5419 -30.5398 -30.5397 -30.5394 -30.5379 -30.5373 -30.5372 -30.5371
   -30.5367 -30.5366 -30.5334 -30.5286 -30.5286 -30.4891 -30.4887 -30.4801
   -30.4801 -30.4739 -30.4739 -30.4688 -30.4687 -30.4676 -30.4676 -30.4655
   -30.4654 -30.4631 -30.4612 -30.4611 -30.4607 -30.4606 -30.4606 -30.4567
   -30.4565 -30.4559 -30.4558 -30.4556 -30.4556 -30.4534 -30.4533 -30.4532
   -30.4524 -30.4521 -30.4489 -30.4444 -30.4444 -30.4098 -30.4031 -30.4023
    12.3522  14.0068  14.0703  14.0823  14.0824  14.1321  14.1595  14.1595
    14.1729  14.3386  14.3531  14.3531  14.3595  14.3596  14.5552  14.5553
    14.5701  14.9607  14.9608  15.0223  15.0839  15.0839  15.0907  15.0908
    15.1195  15.2003  15.2003  15.2290  15.2290  15.2396  15.2465  15.2465
    15.3930  15.3931  15.4113  15.4114  15.4237  15.4237  15.4602  15.4602
    15.5066  15.5066  15.5749  15.7632  15.7632  15.7817  15.7817  15.8275
    15.8275  15.8369  15.8370  15.8957  15.8958  15.9836  15.9837  15.9966
    16.0423  16.0423  16.0893  16.0959  16.0960  16.1010  16.1010  16.1391
    16.1392  16.1831  16.1831  16.2128  16.2128  16.3711  16.3913  16.3913
    16.3942  16.3942  16.4145  16.4145  16.4241  16.4330  16.4605  16.4626
    16.4702  16.4842  16.4842  16.4941  16.5153  16.5187  16.5218  16.5218
    17.0914  17.0915  17.2023  17.2054  17.2274  17.2275  17.2819  17.2819
    17.2995  17.3460  17.3646  17.3646  17.4833  17.4951  17.4952  17.5082
    17.5083  17.5465  17.5465  17.5547  17.5548  17.7681  17.7682  17.7854
    17.7940  17.7941  17.8616  17.8617  17.9417  17.9417  17.9508  17.9508
    17.9510  17.9511  17.9677  18.0312  18.0323  18.0410  18.0410  18.0704
    18.1595  18.1596  18.1687  18.1687  18.2033  18.2034  18.2598  18.2758
    18.2759  18.3073  18.4203  18.5606  18.5607  18.6879  18.6895  18.6895
    18.7216  18.7383  18.7383  18.9529  19.0623  19.0624  19.0827  19.1013
    19.1423  19.1436  19.1437  19.1687  19.1687  19.3311  19.3825  19.3825
    19.3836  19.3836  19.3968  19.4574  19.4574  19.4582  19.4582  20.1168
    20.4886  20.4886  20.6015  20.6015  20.8319  20.9279  20.9722  20.9722
    21.4445  21.4445  21.9778  22.0288  22.0288  22.2030  22.5697  22.5697
    22.8707  22.8707  26.3239  26.4837  26.4837  26.7590  26.7590  26.7600
    26.7600  26.7784  27.3522  27.3522  27.6155  27.6156  28.3000  28.3001
    28.8070  28.8070  29.6333  29.6333  29.7347  29.7369  29.7369  29.8915
    29.8915  29.9664  29.9664  30.1802  30.1802  30.1824  30.2783  30.2783
    30.7281  30.7289

          k = 0.0556 0.1665 0.1667 ( 33023 PWs)   bands (ev):

   -64.8873 -64.8652 -64.8651 -64.8592 -64.8538 -64.8508 -64.8489 -64.8488
   -64.8473 -64.8472 -64.8439 -64.8437 -64.8432 -64.8417 -64.8407 -64.8405
   -64.8402 -64.8401 -64.8384 -64.8383 -64.8365 -64.8364 -64.8343 -64.8272
   -64.8268 -64.8265 -64.8263 -64.8262 -64.8261 -64.8260 -64.8258 -64.8252
   -30.7677 -30.7677 -30.7631 -30.7583 -30.7465 -30.7448 -30.7446 -30.6896
   -30.6892 -30.6871 -30.6866 -30.6776 -30.6771 -30.6758 -30.6743 -30.6738
   -30.6734 -30.6731 -30.6726 -30.6724 -30.6648 -30.6646 -30.6632 -30.6627
   -30.6392 -30.6328 -30.6327 -30.6313 -30.6310 -30.6267 -30.6262 -30.6186
   -30.6180 -30.6081 -30.6045 -30.5803 -30.5756 -30.5755 -30.5617 -30.5616
   -30.5576 -30.5574 -30.5517 -30.5449 -30.5448 -30.5438 -30.5431 -30.5379
   -30.5376 -30.5374 -30.5372 -30.5370 -30.5359 -30.5356 -30.5339 -30.5337
   -30.5322 -30.5321 -30.5199 -30.5197 -30.5143 -30.4924 -30.4918 -30.4865
   -30.4864 -30.4774 -30.4758 -30.4742 -30.4685 -30.4683 -30.4681 -30.4679
   -30.4652 -30.4649 -30.4643 -30.4642 -30.4639 -30.4633 -30.4597 -30.4587
   -30.4586 -30.4577 -30.4552 -30.4549 -30.4545 -30.4535 -30.4533 -30.4532
   -30.4486 -30.4486 -30.4448 -30.4446 -30.4379 -30.4178 -30.4051 -30.4022
    12.4248  14.0593  14.0618  14.1169  14.1169  14.1240  14.1449  14.1861
    14.2260  14.2261  14.3804  14.3805  14.3983  14.4001  14.5935  14.6225
    14.6248  14.9832  14.9853  15.0033  15.0058  15.0324  15.0325  15.0523
    15.0545  15.0763  15.1248  15.1248  15.1455  15.1458  15.2667  15.2718
    15.2725  15.2805  15.2812  15.3323  15.4431  15.4719  15.4723  15.4770
    15.4780  15.5077  15.5081  15.5925  15.5964  15.7386  15.7403  15.8233
    15.8236  15.8341  15.9272  15.9286  15.9424  15.9435  16.0034  16.0045
    16.0149  16.0738  16.0772  16.0833  16.0862  16.1376  16.1397  16.2372
    16.2846  16.2853  16.3274  16.3296  16.3374  16.3377  16.3861  16.4073
    16.4436  16.4438  16.4466  16.4485  16.4487  16.4648  16.4666  16.4823
    16.5143  16.5158  16.5161  16.5167  16.5273  16.5400  16.5423  16.5475
    16.9908  17.0467  17.0499  17.1000  17.2036  17.2069  17.3119  17.3320
    17.3329  17.3357  17.3365  17.3914  17.3935  17.4146  17.4168  17.4697
    17.4749  17.4783  17.5574  17.6294  17.6397  17.6403  17.6589  17.6594
    17.6819  17.9372  17.9373  17.9538  17.9553  17.9582  18.0205  18.0284
    18.0292  18.0448  18.0459  18.0474  18.0545  18.0549  18.1358  18.1369
    18.1639  18.1641  18.3432  18.3444  18.3837  18.3953  18.3966  18.3986
    18.4395  18.4403  18.4449  18.4482  18.5031  18.5040  18.5349  18.5762
    18.6993  18.8063  18.8588  18.8596  18.9928  18.9936  18.9938  19.0118
    19.1095  19.1390  19.1393  19.1555  19.1565  19.1687  19.3247  19.3249
    19.3817  19.3847  19.3858  19.3883  19.3954  19.3978  19.4184  19.8361
    20.0573  20.4570  20.4606  20.5006  20.9484  20.9528  21.1271  21.1274
    21.5193  21.5203  22.0160  22.0227  22.4935  22.5071  22.5575  22.5647
    23.1328  23.1537  26.1335  26.1411  26.3218  26.3221  26.7846  26.8474
    26.8604  26.8962  26.9022  27.1848  27.4812  27.4943  27.9190  27.9257
    28.9344  28.9419  29.2151  29.2264  29.6184  29.7182  29.7539  29.7652
    29.8529  29.8536  30.0748  30.0810  30.1727  30.1950  30.5637  30.5695
    30.8504  30.8655

          k = 0.0556 0.1665 0.2778 ( 33012 PWs)   bands (ev):

   -64.8855 -64.8702 -64.8640 -64.8582 -64.8541 -64.8529 -64.8499 -64.8482
   -64.8469 -64.8461 -64.8441 -64.8437 -64.8436 -64.8424 -64.8422 -64.8400
   -64.8395 -64.8385 -64.8371 -64.8367 -64.8357 -64.8342 -64.8323 -64.8285
   -64.8276 -64.8274 -64.8273 -64.8270 -64.8266 -64.8262 -64.8260 -64.8252
   -30.7623 -30.7609 -30.7536 -30.7473 -30.7402 -30.7389 -30.7354 -30.7065
   -30.7029 -30.6927 -30.6900 -30.6896 -30.6896 -30.6896 -30.6802 -30.6789
   -30.6787 -30.6733 -30.6726 -30.6704 -30.6689 -30.6672 -30.6647 -30.6580
   -30.6505 -30.6369 -30.6345 -30.6278 -30.6239 -30.6227 -30.6191 -30.6172
   -30.6130 -30.6103 -30.6009 -30.5917 -30.5886 -30.5753 -30.5714 -30.5597
   -30.5574 -30.5558 -30.5496 -30.5442 -30.5423 -30.5394 -30.5379 -30.5372
   -30.5358 -30.5353 -30.5334 -30.5287 -30.5255 -30.5240 -30.5232 -30.5205
   -30.5193 -30.5170 -30.5066 -30.5061 -30.5042 -30.5005 -30.4984 -30.4974
   -30.4824 -30.4817 -30.4813 -30.4799 -30.4773 -30.4772 -30.4767 -30.4758
   -30.4712 -30.4682 -30.4675 -30.4652 -30.4651 -30.4647 -30.4611 -30.4604
   -30.4600 -30.4581 -30.4580 -30.4572 -30.4539 -30.4532 -30.4517 -30.4455
   -30.4436 -30.4431 -30.4428 -30.4368 -30.4341 -30.4302 -30.4093 -30.4045
    12.5680  13.7151  14.1615  14.1837  14.1982  14.2055  14.2077  14.2527
    14.3181  14.3304  14.4347  14.4637  14.4768  14.4880  14.5920  14.6651
    14.7244  14.8015  14.8259  14.8566  14.8857  14.8922  14.9009  14.9335
    15.0231  15.0363  15.0592  15.0699  15.0868  15.1123  15.1878  15.1962
    15.2047  15.2216  15.2524  15.3024  15.3432  15.3637  15.3941  15.4946
    15.5069  15.5184  15.5601  15.6259  15.6666  15.6833  15.6898  15.7783
    15.7851  15.7960  15.8123  15.8272  15.8763  15.9389  15.9488  15.9924
    15.9956  16.0065  16.0930  16.1453  16.1902  16.1907  16.2426  16.2534
    16.2678  16.2715  16.2857  16.3112  16.3445  16.3648  16.3677  16.3996
    16.4260  16.4470  16.5022  16.5289  16.5560  16.5742  16.5759  16.5800
    16.6065  16.6232  16.6272  16.6388  16.6556  16.7575  16.8379  16.8664
    16.8904  16.9001  16.9251  17.0155  17.0322  17.1294  17.1412  17.1558
    17.2269  17.2442  17.2583  17.3320  17.3347  17.4117  17.4170  17.5227
    17.5367  17.5576  17.5653  17.6157  17.6609  17.7445  17.7970  17.8005
    17.8179  17.8950  17.9056  17.9210  17.9527  17.9999  18.0355  18.0440
    18.0686  18.1133  18.1172  18.1589  18.1661  18.1772  18.1777  18.1881
    18.1968  18.2270  18.2996  18.3391  18.3613  18.3939  18.4242  18.4887
    18.4980  18.5263  18.5311  18.5348  18.5409  18.5604  18.5645  18.6512
    18.6612  18.6816  18.7753  18.8573  18.8871  18.9101  18.9871  19.0043
    19.0749  19.1148  19.1150  19.1183  19.2015  19.2165  19.2171  19.2221
    19.2530  19.2563  19.2910  19.3812  19.3859  19.3928  19.3963  19.6678
    19.8686  20.0315  20.3934  20.4919  20.5283  20.9001  21.0314  21.4158
    21.6140  21.9009  21.9850  22.1422  22.5222  22.6718  22.9717  23.2153
    23.5858  23.7923  25.3079  25.4863  25.9582  26.1877  26.3245  26.4647
    26.4953  26.9727  27.1622  27.1843  27.2133  27.6903  27.6921  28.3381
    28.4486  28.7189  28.8692  29.0520  29.1670  29.2563  29.4973  29.6745
    29.8523  29.9512  29.9747  30.1521  30.2205  30.4509  30.5448  30.5650
    30.7879  30.8722

          k = 0.0556 0.1665 0.3889 ( 33032 PWs)   bands (ev):

   -64.8827 -64.8750 -64.8622 -64.8572 -64.8567 -64.8525 -64.8517 -64.8482
   -64.8472 -64.8465 -64.8449 -64.8442 -64.8435 -64.8425 -64.8396 -64.8389
   -64.8387 -64.8386 -64.8371 -64.8341 -64.8332 -64.8321 -64.8312 -64.8306
   -64.8291 -64.8290 -64.8286 -64.8276 -64.8271 -64.8263 -64.8259 -64.8252
   -30.7530 -30.7504 -30.7407 -30.7330 -30.7312 -30.7306 -30.7241 -30.7218
   -30.7203 -30.7076 -30.7071 -30.7057 -30.6975 -30.6892 -30.6873 -30.6825
   -30.6824 -30.6820 -30.6807 -30.6769 -30.6678 -30.6638 -30.6604 -30.6534
   -30.6445 -30.6413 -30.6363 -30.6319 -30.6288 -30.6206 -30.6120 -30.6073
   -30.6058 -30.6052 -30.6008 -30.5952 -30.5883 -30.5850 -30.5841 -30.5731
   -30.5697 -30.5590 -30.5379 -30.5373 -30.5351 -30.5347 -30.5345 -30.5330
   -30.5283 -30.5272 -30.5251 -30.5172 -30.5152 -30.5138 -30.5131 -30.5120
   -30.5094 -30.5082 -30.5055 -30.5032 -30.4955 -30.4947 -30.4913 -30.4913
   -30.4908 -30.4906 -30.4902 -30.4884 -30.4880 -30.4879 -30.4878 -30.4772
   -30.4751 -30.4748 -30.4681 -30.4673 -30.4664 -30.4661 -30.4652 -30.4641
   -30.4631 -30.4619 -30.4562 -30.4554 -30.4545 -30.4519 -30.4498 -30.4468
   -30.4466 -30.4437 -30.4379 -30.4329 -30.4328 -30.4260 -30.4155 -30.4095
    12.7781  13.3667  14.2770  14.2917  14.3069  14.3236  14.3377  14.3588
    14.4475  14.4704  14.5008  14.5148  14.5809  14.5881  14.5958  14.6198
    14.6457  14.6780  14.6839  14.6849  14.7460  14.7608  14.8103  14.8213
    14.8420  14.8689  14.9560  14.9751  14.9923  15.0729  15.1853  15.2027
    15.2079  15.2275  15.2648  15.3200  15.3267  15.4506  15.4601  15.4821
    15.5111  15.5267  15.5881  15.6027  15.6206  15.6286  15.6302  15.6382
    15.6715  15.7168  15.7730  15.8045  15.8144  15.8722  15.9509  15.9739
    16.0063  16.0537  16.1603  16.1687  16.1980  16.2226  16.2412  16.2418
    16.2429  16.2454  16.2922  16.3315  16.3429  16.3489  16.3614  16.3838
    16.4324  16.4645  16.4780  16.6058  16.6120  16.6663  16.6719  16.6838
    16.6890  16.6931  16.7331  16.7434  16.7625  16.8267  16.8325  16.8406
    16.9220  16.9362  16.9501  17.0247  17.0543  17.0778  17.1167  17.1368
    17.2976  17.3090  17.3313  17.3492  17.3566  17.3813  17.4779  17.5706
    17.5714  17.5902  17.6528  17.7013  17.7510  17.7650  17.7753  17.7756
    17.7937  17.8016  17.8497  17.8815  17.9212  17.9446  17.9504  17.9558
    18.0113  18.0188  18.0649  18.0941  18.1209  18.1728  18.1995  18.2098
    18.2429  18.2441  18.2462  18.3833  18.4016  18.4044  18.4322  18.4384
    18.5483  18.5882  18.6300  18.6620  18.6981  18.7206  18.7244  18.7297
    18.7348  18.7391  18.7640  18.8267  18.8292  18.9280  18.9326  18.9577
    18.9826  19.0258  19.0269  19.0728  19.0730  19.0755  19.0797  19.1658
    19.2405  19.3138  19.3814  19.3866  19.3874  19.3905  19.6329  19.6490
    19.7669  20.0181  20.0542  20.2974  20.5584  20.6234  20.8272  21.1837
    21.6516  21.9246  22.0076  22.4410  22.8413  23.3961  23.5493  23.9359
    24.1567  24.4444  24.4942  24.8296  25.0534  25.4813  25.5797  26.0974
    26.5265  26.8516  27.4455  27.5365  27.5627  27.7585  27.9930  28.0654
    28.2507  28.2868  28.5012  28.7901  28.9404  29.1525  29.4899  29.5786
    29.7234  29.8779  29.9008  30.0463  30.1159  30.3215  30.3383  30.3928
    30.4609  30.7282

          k = 0.0556 0.1665-0.5000 ( 33046 PWs)   bands (ev):

   -64.8796 -64.8788 -64.8603 -64.8595 -64.8552 -64.8544 -64.8505 -64.8497
   -64.8462 -64.8461 -64.8454 -64.8454 -64.8434 -64.8427 -64.8395 -64.8387
   -64.8382 -64.8375 -64.8351 -64.8343 -64.8317 -64.8313 -64.8310 -64.8306
   -64.8305 -64.8298 -64.8293 -64.8286 -64.8271 -64.8263 -64.8259 -64.8252
   -30.7402 -30.7398 -30.7368 -30.7365 -30.7252 -30.7248 -30.7203 -30.7200
   -30.7196 -30.7192 -30.7161 -30.7158 -30.7043 -30.7036 -30.6863 -30.6861
   -30.6835 -30.6831 -30.6829 -30.6828 -30.6632 -30.6631 -30.6528 -30.6524
   -30.6413 -30.6412 -30.6409 -30.6407 -30.6213 -30.6209 -30.6117 -30.6113
   -30.6009 -30.6003 -30.5959 -30.5951 -30.5903 -30.5900 -30.5818 -30.5814
   -30.5713 -30.5705 -30.5380 -30.5374 -30.5348 -30.5344 -30.5252 -30.5245
   -30.5195 -30.5188 -30.5164 -30.5156 -30.5141 -30.5138 -30.5069 -30.5066
   -30.5043 -30.5039 -30.5022 -30.5020 -30.5009 -30.5005 -30.5001 -30.4997
   -30.4978 -30.4970 -30.4881 -30.4877 -30.4844 -30.4837 -30.4776 -30.4773
   -30.4771 -30.4763 -30.4724 -30.4720 -30.4673 -30.4669 -30.4653 -30.4645
   -30.4635 -30.4628 -30.4597 -30.4594 -30.4557 -30.4549 -30.4484 -30.4476
   -30.4470 -30.4467 -30.4344 -30.4341 -30.4238 -30.4230 -30.4170 -30.4165
    13.0476  13.0486  14.3874  14.3882  14.4248  14.4249  14.4728  14.4734
    14.4852  14.4860  14.4982  14.4991  14.5034  14.5034  14.6125  14.6126
    14.6188  14.6196  14.6425  14.6426  14.6999  14.7005  14.7524  14.7532
    14.7896  14.7902  14.8682  14.8686  15.0432  15.0439  15.1269  15.1270
    15.3213  15.3214  15.3248  15.3254  15.3588  15.3596  15.4639  15.4647
    15.5385  15.5386  15.5667  15.5675  15.6164  15.6167  15.6413  15.6416
    15.6896  15.6896  15.7228  15.7234  15.7277  15.7282  16.0830  16.0836
    16.1048  16.1054  16.1072  16.1078  16.1240  16.1246  16.1860  16.1861
    16.2892  16.2898  16.2981  16.2985  16.4034  16.4039  16.4393  16.4400
    16.4980  16.4981  16.5413  16.5414  16.5546  16.5548  16.6697  16.6699
    16.7124  16.7126  16.7795  16.7798  16.7957  16.7964  16.8027  16.8035
    16.8646  16.8648  16.8841  16.8844  17.3377  17.3383  17.3478  17.3483
    17.3961  17.3962  17.4083  17.4085  17.4342  17.4345  17.4828  17.4830
    17.5287  17.5293  17.6755  17.6762  17.6817  17.6823  17.7496  17.7500
    17.7647  17.7653  17.8019  17.8023  17.8088  17.8094  17.8752  17.8759
    17.9880  17.9886  18.0266  18.0272  18.0979  18.0985  18.1613  18.1621
    18.2918  18.2925  18.3420  18.3427  18.4138  18.4143  18.5827  18.5834
    18.6236  18.6237  18.6399  18.6406  18.7754  18.7757  18.8002  18.8002
    18.8613  18.8619  18.8877  18.8882  18.8904  18.8905  18.8972  18.8974
    18.9054  18.9059  18.9083  18.9087  18.9967  18.9969  19.0477  19.0480
    19.2633  19.2634  19.3826  19.3833  19.3882  19.3890  19.6361  19.6362
    20.0971  20.0973  20.1697  20.1705  20.4495  20.4501  20.7315  20.7322
    21.8186  21.8193  22.2800  22.2807  23.6130  23.6134  24.1775  24.1780
    24.1928  24.1932  24.7263  24.7266  24.7977  24.7983  25.2631  25.2634
    26.9450  26.9451  27.3828  27.3830  27.8202  27.8209  27.9880  27.9887
    28.3642  28.3650  28.4090  28.4092  28.9671  28.9673  29.3477  29.3479
    29.8819  29.8827  30.0459  30.0464  30.0499  30.0505  30.1696  30.1705
    31.0239  31.0245

          k = 0.0556 0.2775 0.0556 ( 33014 PWs)   bands (ev):

   -64.8864 -64.8710 -64.8587 -64.8586 -64.8534 -64.8533 -64.8503 -64.8502
   -64.8463 -64.8462 -64.8441 -64.8441 -64.8427 -64.8414 -64.8414 -64.8413
   -64.8411 -64.8404 -64.8390 -64.8355 -64.8355 -64.8339 -64.8339 -64.8288
   -64.8272 -64.8271 -64.8269 -64.8269 -64.8256 -64.8255 -64.8255 -64.8253
   -30.7635 -30.7604 -30.7604 -30.7559 -30.7434 -30.7434 -30.7375 -30.7039
   -30.6982 -30.6982 -30.6930 -30.6930 -30.6901 -30.6783 -30.6782 -30.6763
   -30.6762 -30.6664 -30.6664 -30.6571 -30.6570 -30.6559 -30.6551 -30.6551
   -30.6425 -30.6425 -30.6406 -30.6406 -30.6296 -30.6296 -30.6113 -30.6113
   -30.6042 -30.6042 -30.6034 -30.6034 -30.5871 -30.5871 -30.5846 -30.5845
   -30.5527 -30.5527 -30.5435 -30.5416 -30.5415 -30.5399 -30.5398 -30.5352
   -30.5337 -30.5311 -30.5311 -30.5287 -30.5287 -30.5278 -30.5278 -30.5266
   -30.5266 -30.5183 -30.5146 -30.5145 -30.5083 -30.5008 -30.5001 -30.4854
   -30.4854 -30.4782 -30.4782 -30.4766 -30.4765 -30.4734 -30.4728 -30.4728
   -30.4690 -30.4690 -30.4688 -30.4688 -30.4629 -30.4603 -30.4575 -30.4559
   -30.4559 -30.4558 -30.4557 -30.4556 -30.4555 -30.4529 -30.4529 -30.4523
   -30.4492 -30.4425 -30.4424 -30.4410 -30.4405 -30.4210 -30.4073 -30.4063
    12.4971  13.6572  14.1363  14.1724  14.1724  14.2015  14.2419  14.2419
    14.2680  14.3935  14.4373  14.4373  14.4584  14.4585  14.5386  14.6556
    14.6556  14.8137  14.8137  14.8572  14.8723  14.9498  14.9499  15.0013
    15.1092  15.1093  15.1488  15.1489  15.1718  15.1719  15.1791  15.1791
    15.2808  15.2809  15.2931  15.2932  15.4056  15.4057  15.4541  15.4542
    15.5704  15.5704  15.7120  15.7120  15.7442  15.7442  15.7608  15.7642
    15.7643  15.7839  15.7840  15.8107  15.8108  15.9229  15.9229  15.9949
    15.9950  16.0438  16.0493  16.0493  16.1191  16.1192  16.1462  16.1463
    16.1519  16.1519  16.2147  16.2338  16.2339  16.3143  16.3474  16.3520
    16.3520  16.4146  16.4154  16.4155  16.5187  16.5525  16.5525  16.5700
    16.5803  16.5827  16.7294  16.7294  16.7472  16.7966  16.8865  16.8866
    16.9409  16.9409  16.9608  16.9608  17.0311  17.1097  17.1164  17.1164
    17.1335  17.1399  17.4311  17.4511  17.4511  17.5474  17.5474  17.6161
    17.6162  17.6319  17.6320  17.6899  17.6899  17.7214  17.7215  17.7842
    17.7843  17.8895  17.9284  17.9285  17.9291  17.9291  17.9527  17.9528
    17.9582  17.9583  18.0641  18.1551  18.2082  18.2082  18.2236  18.2237
    18.2362  18.3201  18.3270  18.3284  18.3664  18.3664  18.3671  18.3671
    18.4130  18.4131  18.4410  18.4557  18.4557  18.5296  18.7058  18.7058
    18.7669  18.7669  18.7707  18.8224  18.9184  18.9185  18.9682  18.9683
    18.9727  19.0511  19.0573  19.0574  19.0691  19.1967  19.2496  19.2496
    19.2510  19.2510  19.2834  19.4572  19.4572  19.4580  19.4580  20.0610
    20.0611  20.2907  20.5115  20.5115  20.8262  20.8262  20.8685  21.2034
    21.3958  21.3958  21.5940  21.9334  22.6635  22.6635  23.2100  23.2100
    23.3578  23.3578  25.8771  25.8771  26.0362  26.0362  26.4368  26.4368
    26.4934  26.7976  26.7976  27.2019  27.8637  27.8638  28.5381  28.5383
    28.8429  29.3055  29.3055  29.3888  29.3888  29.6506  29.6506  29.7091
    29.7091  29.7933  29.7933  29.9480  30.0579  30.0580  30.2217  30.2218
    30.2305  30.2306

          k = 0.0556 0.2775 0.1667 ( 33009 PWs)   bands (ev):

   -64.8855 -64.8703 -64.8639 -64.8582 -64.8541 -64.8529 -64.8500 -64.8481
   -64.8468 -64.8461 -64.8441 -64.8438 -64.8436 -64.8423 -64.8422 -64.8399
   -64.8395 -64.8386 -64.8371 -64.8368 -64.8356 -64.8341 -64.8323 -64.8288
   -64.8276 -64.8275 -64.8273 -64.8267 -64.8265 -64.8262 -64.8258 -64.8254
   -30.7622 -30.7609 -30.7536 -30.7473 -30.7402 -30.7392 -30.7352 -30.7068
   -30.7033 -30.6932 -30.6903 -30.6899 -30.6893 -30.6892 -30.6797 -30.6793
   -30.6785 -30.6732 -30.6725 -30.6705 -30.6686 -30.6674 -30.6642 -30.6577
   -30.6501 -30.6372 -30.6341 -30.6278 -30.6239 -30.6227 -30.6191 -30.6171
   -30.6125 -30.6108 -30.6015 -30.5915 -30.5886 -30.5753 -30.5711 -30.5599
   -30.5575 -30.5558 -30.5504 -30.5443 -30.5426 -30.5386 -30.5376 -30.5374
   -30.5355 -30.5351 -30.5332 -30.5288 -30.5258 -30.5240 -30.5233 -30.5207
   -30.5191 -30.5169 -30.5068 -30.5060 -30.5036 -30.5006 -30.4983 -30.4979
   -30.4823 -30.4819 -30.4818 -30.4801 -30.4777 -30.4772 -30.4767 -30.4760
   -30.4710 -30.4686 -30.4671 -30.4653 -30.4652 -30.4644 -30.4609 -30.4604
   -30.4603 -30.4584 -30.4578 -30.4569 -30.4537 -30.4534 -30.4514 -30.4453
   -30.4434 -30.4431 -30.4430 -30.4368 -30.4341 -30.4302 -30.4093 -30.4045
    12.5678  13.7130  14.1635  14.1834  14.1981  14.2053  14.2075  14.2526
    14.3180  14.3304  14.4344  14.4638  14.4766  14.4881  14.5902  14.6649
    14.7263  14.8013  14.8244  14.8545  14.8858  14.8905  14.9006  14.9333
    15.0244  15.0358  15.0586  15.0698  15.0891  15.1144  15.1876  15.1959
    15.2046  15.2222  15.2522  15.3029  15.3434  15.3644  15.3939  15.4949
    15.5071  15.5182  15.5604  15.6295  15.6668  15.6823  15.6910  15.7739
    15.7854  15.7961  15.8130  15.8276  15.8753  15.9396  15.9472  15.9915
    15.9966  16.0083  16.0955  16.1443  16.1871  16.1921  16.2448  16.2507
    16.2683  16.2726  16.2813  16.3113  16.3406  16.3619  16.3664  16.4008
    16.4281  16.4426  16.5029  16.5334  16.5568  16.5759  16.5789  16.5841
    16.6067  16.6228  16.6302  16.6398  16.6546  16.7572  16.8395  16.8684
    16.8940  16.9013  16.9238  17.0141  17.0361  17.1344  17.1444  17.1594
    17.2298  17.2470  17.2546  17.3277  17.3335  17.4087  17.4155  17.5207
    17.5342  17.5568  17.5632  17.6146  17.6604  17.7437  17.7947  17.8004
    17.8168  17.8909  17.9053  17.9205  17.9511  18.0003  18.0330  18.0480
    18.0684  18.1142  18.1170  18.1585  18.1652  18.1767  18.1778  18.1872
    18.1976  18.2266  18.3015  18.3428  18.3615  18.3936  18.4250  18.4883
    18.4976  18.5260  18.5319  18.5338  18.5389  18.5593  18.5651  18.6513
    18.6592  18.6819  18.7752  18.8585  18.8868  18.9100  18.9872  19.0025
    19.0741  19.1136  19.1137  19.1187  19.1988  19.2162  19.2172  19.2228
    19.2497  19.2533  19.2895  19.3854  19.3893  19.3955  19.3990  19.6678
    19.8704  20.0288  20.3969  20.4883  20.5295  20.9043  21.0324  21.4173
    21.6148  21.8887  21.9912  22.1404  22.5287  22.6640  22.9837  23.2071
    23.5847  23.7916  25.3011  25.4945  25.9457  26.1825  26.3238  26.4546
    26.4936  26.9683  27.1728  27.1883  27.2124  27.6894  27.7054  28.3287
    28.4547  28.7307  28.8598  29.0529  29.1739  29.2682  29.4920  29.6748
    29.8527  29.9514  29.9676  30.1735  30.2291  30.4515  30.5379  30.5654
    30.7914  30.8894

          k = 0.0556 0.2775 0.2778 ( 33028 PWs)   bands (ev):

   -64.8836 -64.8689 -64.8689 -64.8579 -64.8572 -64.8522 -64.8495 -64.8494
   -64.8458 -64.8457 -64.8454 -64.8433 -64.8431 -64.8430 -64.8389 -64.8388
   -64.8385 -64.8383 -64.8360 -64.8359 -64.8347 -64.8346 -64.8308 -64.8288
   -64.8285 -64.8283 -64.8281 -64.8276 -64.8275 -64.8265 -64.8263 -64.8255
   -30.7572 -30.7572 -30.7432 -30.7352 -30.7342 -30.7308 -30.7305 -30.7068
   -30.7066 -30.7052 -30.7049 -30.6930 -30.6926 -30.6850 -30.6847 -30.6825
   -30.6823 -30.6794 -30.6791 -30.6772 -30.6769 -30.6676 -30.6661 -30.6657
   -30.6615 -30.6612 -30.6329 -30.6273 -30.6208 -30.6204 -30.6131 -30.6131
   -30.6058 -30.6038 -30.5962 -30.5956 -30.5697 -30.5682 -30.5681 -30.5576
   -30.5575 -30.5560 -30.5555 -30.5459 -30.5451 -30.5329 -30.5328 -30.5315
   -30.5311 -30.5310 -30.5298 -30.5297 -30.5254 -30.5251 -30.5170 -30.5170
   -30.5099 -30.5093 -30.5080 -30.5079 -30.4951 -30.4950 -30.4947 -30.4946
   -30.4898 -30.4897 -30.4874 -30.4874 -30.4788 -30.4787 -30.4768 -30.4763
   -30.4759 -30.4750 -30.4747 -30.4736 -30.4649 -30.4648 -30.4635 -30.4626
   -30.4612 -30.4604 -30.4553 -30.4542 -30.4540 -30.4534 -30.4485 -30.4482
   -30.4442 -30.4442 -30.4440 -30.4315 -30.4315 -30.4282 -30.4136 -30.4045
    12.7073  13.8223  13.8240  14.2323  14.2719  14.2752  14.2752  14.3004
    14.4280  14.4280  14.5106  14.5160  14.5162  14.5864  14.6452  14.6847
    14.6905  14.6920  14.7347  14.7347  14.8476  14.8484  14.8512  14.8513
    14.9340  14.9358  14.9573  14.9588  15.1244  15.1248  15.1252  15.1310
    15.1316  15.2293  15.2295  15.2621  15.2622  15.3052  15.3052  15.3847
    15.3847  15.4640  15.5810  15.5813  15.5871  15.5876  15.6118  15.7971
    15.8010  15.8276  15.8284  15.8395  15.8396  15.8458  15.8533  16.0984
    16.1001  16.1703  16.1715  16.2586  16.2594  16.2617  16.2644  16.3040
    16.3065  16.3100  16.3344  16.3348  16.3550  16.4492  16.4751  16.4808
    16.4812  16.5710  16.5725  16.5838  16.6146  16.6387  16.6551  16.6764
    16.6775  16.6791  16.7240  16.7254  16.7386  16.7401  16.7520  16.7876
    16.8875  16.8885  16.9101  16.9125  17.0743  17.0786  17.1283  17.1329
    17.2104  17.2140  17.2648  17.3043  17.3569  17.3593  17.3879  17.3902
    17.4056  17.4079  17.4739  17.4782  17.6210  17.6215  17.7527  17.8405
    17.8409  17.8554  17.8555  17.8637  17.8901  17.9735  17.9741  18.0492
    18.0888  18.1435  18.1441  18.1992  18.1999  18.2458  18.2461  18.2858
    18.2874  18.3966  18.3967  18.3975  18.4000  18.4199  18.4200  18.4201
    18.4237  18.4726  18.4727  18.6276  18.6708  18.6969  18.6976  18.7042
    18.7043  18.7069  18.7074  18.8094  18.8120  18.8508  18.9717  18.9722
    19.0473  19.1233  19.1239  19.1411  19.1545  19.1546  19.2520  19.2554
    19.2564  19.2592  19.2802  19.2823  19.3202  19.3357  19.6398  19.6639
    19.6664  19.9652  19.9678  20.3483  20.4438  20.4472  21.6314  21.6334
    22.0031  22.0038  22.3582  22.3688  22.6551  22.6623  23.1827  23.1899
    23.9906  24.4201  24.7091  24.7163  25.9667  25.9740  26.3230  26.3237
    26.4588  26.4632  26.9211  26.9285  27.5462  27.5511  27.7243  27.8479
    27.8577  28.2518  28.3634  28.3734  28.4545  29.5567  29.7421  29.7485
    29.8917  29.8918  30.3060  30.3271  30.5825  30.5884  30.7422  30.7428
    30.9415  30.9623

          k = 0.0556 0.2775 0.3889 ( 33047 PWs)   bands (ev):

   -64.8810 -64.8735 -64.8670 -64.8613 -64.8558 -64.8518 -64.8510 -64.8488
   -64.8477 -64.8467 -64.8454 -64.8438 -64.8425 -64.8401 -64.8385 -64.8378
   -64.8374 -64.8363 -64.8353 -64.8351 -64.8336 -64.8327 -64.8310 -64.8297
   -64.8295 -64.8295 -64.8294 -64.8286 -64.8278 -64.8271 -64.8264 -64.8255
   -30.7494 -30.7484 -30.7297 -30.7253 -30.7238 -30.7234 -30.7212 -30.7201
   -30.7187 -30.7045 -30.7040 -30.7039 -30.7002 -30.6964 -30.6922 -30.6920
   -30.6912 -30.6844 -30.6841 -30.6835 -30.6776 -30.6740 -30.6671 -30.6656
   -30.6645 -30.6511 -30.6420 -30.6400 -30.6312 -30.6189 -30.6065 -30.6026
   -30.5987 -30.5887 -30.5868 -30.5809 -30.5800 -30.5799 -30.5711 -30.5683
   -30.5543 -30.5484 -30.5462 -30.5412 -30.5393 -30.5383 -30.5324 -30.5307
   -30.5284 -30.5262 -30.5256 -30.5210 -30.5191 -30.5177 -30.5144 -30.5081
   -30.5076 -30.5069 -30.5060 -30.5058 -30.5032 -30.4977 -30.4950 -30.4940
   -30.4927 -30.4907 -30.4861 -30.4860 -30.4843 -30.4821 -30.4817 -30.4811
   -30.4751 -30.4745 -30.4735 -30.4701 -30.4687 -30.4684 -30.4681 -30.4676
   -30.4618 -30.4605 -30.4592 -30.4569 -30.4555 -30.4552 -30.4550 -30.4511
   -30.4460 -30.4454 -30.4375 -30.4271 -30.4251 -30.4214 -30.4198 -30.4075
    12.9119  13.4847  13.9798  14.3041  14.3701  14.3724  14.3849  14.4038
    14.4068  14.5568  14.5578  14.5594  14.5692  14.5938  14.5983  14.6378
    14.6618  14.6677  14.6713  14.7154  14.7264  14.7527  14.8020  14.8178
    14.8333  14.8864  14.9147  14.9271  14.9968  15.0221  15.0469  15.0583
    15.0968  15.1954  15.1999  15.2346  15.2793  15.3059  15.3096  15.3595
    15.3730  15.4219  15.4510  15.4882  15.5264  15.6349  15.6791  15.6968
    15.7148  15.7644  15.8246  15.8571  15.8849  15.9077  15.9623  16.0691
    16.0810  16.0827  16.1661  16.2234  16.2298  16.2898  16.3337  16.3389
    16.3701  16.3723  16.3776  16.4184  16.4493  16.4666  16.4894  16.5778
    16.5824  16.6219  16.6428  16.6452  16.6558  16.6841  16.6893  16.7243
    16.7247  16.7303  16.7424  16.8271  16.8279  16.8489  16.8526  16.8708
    16.8811  16.9526  16.9554  16.9613  17.0351  17.0533  17.1242  17.1393
    17.1473  17.1842  17.2068  17.2171  17.2280  17.2678  17.2910  17.3876
    17.4994  17.5024  17.5230  17.5338  17.5419  17.5538  17.6159  17.6350
    17.6679  17.7011  17.7589  17.7755  17.7879  17.8696  18.0311  18.0752
    18.0867  18.0949  18.1129  18.1188  18.2442  18.2484  18.2640  18.2758
    18.2779  18.3240  18.4290  18.4501  18.4509  18.4620  18.5179  18.5303
    18.5343  18.6070  18.6356  18.6693  18.6742  18.7352  18.7609  18.8306
    18.8446  18.8446  18.8557  18.8557  18.8687  18.8688  18.8980  18.9203
    19.0121  19.0653  19.0698  19.0709  19.0762  19.0801  19.0806  19.0918
    19.1418  19.2110  19.2580  19.2601  19.2714  19.2940  19.5709  19.6480
    19.8724  20.0154  20.1451  20.2457  20.2924  20.3837  21.1306  21.6510
    22.3121  22.3160  22.5163  22.6155  22.9112  23.0958  23.4100  23.8841
    23.9184  24.1062  24.5185  25.1001  25.1053  25.4894  25.7803  26.3396
    26.5310  26.6326  26.7614  26.8972  27.1241  27.1515  27.4076  27.5894
    27.8764  27.9054  28.1030  28.3252  28.8850  29.2065  29.7659  29.8712
    29.9475  29.9863  30.0642  30.1539  30.2454  30.3486  30.8624  30.8821
    31.0438  31.1177

          k = 0.0556 0.2775-0.5000 ( 33066 PWs)   bands (ev):

   -64.8779 -64.8772 -64.8647 -64.8640 -64.8544 -64.8536 -64.8499 -64.8491
   -64.8482 -64.8474 -64.8450 -64.8443 -64.8417 -64.8410 -64.8374 -64.8367
   -64.8366 -64.8359 -64.8348 -64.8340 -64.8325 -64.8319 -64.8317 -64.8313
   -64.8311 -64.8306 -64.8286 -64.8286 -64.8278 -64.8278 -64.8263 -64.8255
   -30.7382 -30.7379 -30.7363 -30.7360 -30.7154 -30.7146 -30.7142 -30.7139
   -30.7136 -30.7134 -30.7031 -30.7029 -30.7025 -30.7024 -30.6996 -30.6996
   -30.6988 -30.6986 -30.6895 -30.6891 -30.6703 -30.6697 -30.6696 -30.6689
   -30.6539 -30.6535 -30.6401 -30.6401 -30.6353 -30.6349 -30.5933 -30.5931
   -30.5917 -30.5914 -30.5850 -30.5846 -30.5797 -30.5790 -30.5675 -30.5673
   -30.5664 -30.5657 -30.5319 -30.5313 -30.5313 -30.5306 -30.5288 -30.5280
   -30.5266 -30.5264 -30.5251 -30.5249 -30.5197 -30.5195 -30.5178 -30.5170
   -30.5067 -30.5062 -30.5042 -30.5041 -30.4977 -30.4972 -30.4971 -30.4968
   -30.4890 -30.4882 -30.4864 -30.4859 -30.4828 -30.4826 -30.4811 -30.4808
   -30.4755 -30.4748 -30.4723 -30.4716 -30.4715 -30.4709 -30.4700 -30.4697
   -30.4647 -30.4639 -30.4619 -30.4616 -30.4576 -30.4569 -30.4493 -30.4491
   -30.4486 -30.4479 -30.4283 -30.4275 -30.4249 -30.4247 -30.4133 -30.4131
    13.1742  13.1751  14.1770  14.1778  14.4130  14.4131  14.4824  14.4832
    14.5055  14.5057  14.5058  14.5059  14.5696  14.5704  14.6112  14.6116
    14.6946  14.6955  14.7225  14.7226  14.7377  14.7378  14.7554  14.7556
    14.7984  14.7992  14.8998  14.9002  14.9436  14.9437  15.0068  15.0073
    15.1806  15.1814  15.1958  15.1963  15.2756  15.2758  15.3398  15.3400
    15.3485  15.3493  15.5297  15.5304  15.5632  15.5632  15.5778  15.5786
    15.8458  15.8458  15.8475  15.8480  15.9559  15.9561  15.9698  15.9704
    15.9906  15.9912  16.1057  16.1062  16.3157  16.3163  16.4009  16.4015
    16.4104  16.4105  16.4404  16.4409  16.4805  16.4808  16.4970  16.4971
    16.5435  16.5437  16.6911  16.6912  16.7400  16.7406  16.7481  16.7483
    16.7700  16.7700  16.8032  16.8037  16.8071  16.8077  16.8197  16.8199
    16.9803  16.9806  17.0019  17.0022  17.1559  17.1559  17.1618  17.1623
    17.1717  17.1721  17.2367  17.2368  17.2499  17.2500  17.2653  17.2655
    17.3226  17.3231  17.5799  17.5805  17.5821  17.5824  17.6366  17.6371
    17.6657  17.6661  17.6907  17.6914  17.6973  17.6975  17.9817  17.9824
    17.9874  17.9879  18.1734  18.1741  18.2029  18.2035  18.2157  18.2165
    18.3767  18.3774  18.5034  18.5041  18.5078  18.5085  18.6291  18.6298
    18.6518  18.6524  18.6974  18.6974  18.7454  18.7455  18.7455  18.7457
    18.8670  18.8676  18.8944  18.8944  18.9199  18.9202  18.9660  18.9663
    18.9680  18.9684  18.9833  18.9835  18.9882  18.9883  19.0053  19.0053
    19.2017  19.2019  19.2645  19.2653  19.2703  19.2708  19.6036  19.6037
    19.7577  19.7584  20.3220  20.3227  20.6349  20.6351  20.9227  20.9233
    22.5122  22.5129  22.8872  22.8878  23.0722  23.0726  23.5017  23.5022
    24.2278  24.2281  24.7027  24.7029  25.1246  25.1252  25.8521  25.8523
    26.6017  26.6017  26.9604  26.9605  27.0253  27.0260  27.3402  27.3409
    27.4953  27.4960  28.6697  28.6698  29.0082  29.0083  29.5855  29.5856
    29.8903  29.8911  30.0309  30.0318  30.4495  30.4503  30.6386  30.6387
    31.2875  31.2882

          k = 0.0556 0.3886 0.0556 ( 33021 PWs)   bands (ev):

   -64.8836 -64.8758 -64.8572 -64.8571 -64.8529 -64.8528 -64.8521 -64.8520
   -64.8485 -64.8484 -64.8439 -64.8431 -64.8414 -64.8413 -64.8413 -64.8411
   -64.8400 -64.8393 -64.8393 -64.8329 -64.8329 -64.8318 -64.8317 -64.8315
   -64.8287 -64.8286 -64.8282 -64.8281 -64.8257 -64.8255 -64.8255 -64.8253
   -30.7526 -30.7485 -30.7485 -30.7426 -30.7343 -30.7343 -30.7231 -30.7218
   -30.7163 -30.7163 -30.7087 -30.7087 -30.7085 -30.6817 -30.6783 -30.6783
   -30.6734 -30.6733 -30.6717 -30.6717 -30.6622 -30.6622 -30.6448 -30.6448
   -30.6372 -30.6372 -30.6268 -30.6268 -30.6220 -30.6220 -30.6217 -30.6217
   -30.6166 -30.6166 -30.6002 -30.6002 -30.5979 -30.5979 -30.5883 -30.5883
   -30.5621 -30.5621 -30.5412 -30.5412 -30.5402 -30.5402 -30.5290 -30.5276
   -30.5235 -30.5158 -30.5158 -30.5153 -30.5153 -30.5146 -30.5145 -30.5131
   -30.5130 -30.5115 -30.5106 -30.5017 -30.5015 -30.5015 -30.4932 -30.4932
   -30.4893 -30.4893 -30.4892 -30.4891 -30.4874 -30.4813 -30.4808 -30.4807
   -30.4803 -30.4803 -30.4729 -30.4635 -30.4635 -30.4597 -30.4583 -30.4559
   -30.4558 -30.4557 -30.4556 -30.4548 -30.4548 -30.4513 -30.4503 -30.4503
   -30.4497 -30.4428 -30.4428 -30.4368 -30.4305 -30.4297 -30.4133 -30.4123
    12.7095  13.3051  14.2286  14.3012  14.3013  14.3119  14.3643  14.3643
    14.4017  14.4492  14.4746  14.5630  14.5630  14.5978  14.5979  14.6378
    14.6378  14.6502  14.7089  14.7216  14.7216  14.7735  14.7970  14.7971
    14.9352  14.9352  14.9430  14.9431  15.1416  15.1417  15.2334  15.2334
    15.2886  15.2887  15.3575  15.3575  15.3751  15.3751  15.5156  15.5157
    15.5695  15.5696  15.5794  15.5795  15.6782  15.6783  15.7171  15.7171
    15.7337  15.7337  15.7760  15.7761  15.8224  15.8225  15.9376  15.9647
    15.9648  15.9958  15.9958  16.1044  16.1525  16.1525  16.1529  16.1530
    16.1806  16.1807  16.2372  16.2464  16.2823  16.3005  16.3006  16.3365
    16.3365  16.3807  16.4658  16.4659  16.6066  16.6507  16.6507  16.6762
    16.6766  16.6781  16.7062  16.7063  16.7144  16.7144  16.8675  16.9118
    16.9118  16.9528  16.9583  16.9646  17.1428  17.1466  17.1466  17.1607
    17.3859  17.3859  17.5165  17.5165  17.5212  17.5412  17.5412  17.7119
    17.7120  17.7488  17.7489  17.7570  17.7571  17.7728  17.7729  17.7803
    17.8103  17.8103  17.8971  17.8972  17.9331  17.9380  17.9381  17.9398
    17.9399  17.9562  17.9562  17.9700  17.9700  18.0561  18.1110  18.1696
    18.1696  18.2448  18.3181  18.3181  18.4116  18.4116  18.4470  18.4860
    18.5699  18.5700  18.5750  18.6296  18.6363  18.6363  18.6576  18.6576
    18.8108  18.8108  18.8250  18.9212  18.9263  18.9263  18.9545  18.9591
    18.9654  18.9654  19.0060  19.0709  19.0709  19.0718  19.0718  19.1446
    19.2629  19.2630  19.3860  19.4573  19.4573  19.4578  19.4578  19.6631
    19.6632  20.0732  20.0732  20.4824  20.7759  20.8641  21.0324  21.0325
    21.3155  21.3155  21.5007  21.8512  23.3709  23.3709  23.9186  23.9186
    23.9568  23.9568  24.9916  24.9917  25.3180  25.3180  25.5407  25.5407
    26.8436  27.2603  27.2603  27.7423  28.0442  28.2145  28.2145  28.5752
    28.5752  28.8729  28.8730  29.1289  29.1314  29.1314  29.5232  29.5232
    29.6679  29.6679  29.7427  29.7428  30.1858  30.1859  30.2010  30.2012
    30.4246  30.4246

          k = 0.0556 0.3886 0.1667 ( 33034 PWs)   bands (ev):

   -64.8827 -64.8750 -64.8621 -64.8572 -64.8567 -64.8525 -64.8517 -64.8482
   -64.8471 -64.8463 -64.8450 -64.8441 -64.8433 -64.8426 -64.8395 -64.8391
   -64.8388 -64.8386 -64.8373 -64.8341 -64.8331 -64.8320 -64.8314 -64.8306
   -64.8292 -64.8290 -64.8286 -64.8277 -64.8265 -64.8263 -64.8257 -64.8255
   -30.7530 -30.7505 -30.7408 -30.7331 -30.7313 -30.7310 -30.7243 -30.7215
   -30.7206 -30.7078 -30.7076 -30.7059 -30.6978 -30.6889 -30.6870 -30.6824
   -30.6820 -30.6817 -30.6805 -30.6768 -30.6676 -30.6635 -30.6606 -30.6530
   -30.6448 -30.6410 -30.6359 -30.6318 -30.6286 -30.6206 -30.6120 -30.6074
   -30.6056 -30.6047 -30.6007 -30.5957 -30.5883 -30.5857 -30.5837 -30.5732
   -30.5701 -30.5598 -30.5377 -30.5375 -30.5347 -30.5346 -30.5345 -30.5323
   -30.5287 -30.5270 -30.5252 -30.5173 -30.5144 -30.5140 -30.5132 -30.5122
   -30.5093 -30.5085 -30.5060 -30.5032 -30.4957 -30.4949 -30.4914 -30.4913
   -30.4907 -30.4907 -30.4903 -30.4888 -30.4883 -30.4881 -30.4880 -30.4772
   -30.4754 -30.4751 -30.4681 -30.4676 -30.4663 -30.4660 -30.4650 -30.4638
   -30.4628 -30.4618 -30.4559 -30.4555 -30.4543 -30.4518 -30.4494 -30.4467
   -30.4464 -30.4438 -30.4379 -30.4329 -30.4327 -30.4260 -30.4154 -30.4095
    12.7775  13.3652  14.2765  14.2916  14.3084  14.3232  14.3371  14.3587
    14.4474  14.4702  14.4994  14.5143  14.5805  14.5881  14.5957  14.6201
    14.6446  14.6765  14.6844  14.6846  14.7448  14.7605  14.8099  14.8208
    14.8415  14.8703  14.9558  14.9747  14.9928  15.0734  15.1850  15.2046
    15.2098  15.2276  15.2645  15.3198  15.3269  15.4512  15.4605  15.4831
    15.5119  15.5268  15.5888  15.6032  15.6214  15.6283  15.6300  15.6377
    15.6745  15.7167  15.7745  15.8050  15.8156  15.8733  15.9460  15.9736
    16.0043  16.0528  16.1603  16.1660  16.1975  16.2238  16.2361  16.2393
    16.2410  16.2473  16.2949  16.3276  16.3458  16.3506  16.3568  16.3839
    16.4272  16.4676  16.4786  16.6112  16.6149  16.6704  16.6772  16.6864
    16.6911  16.6934  16.7337  16.7465  16.7661  16.8298  16.8368  16.8426
    16.9219  16.9342  16.9556  17.0248  17.0556  17.0807  17.1196  17.1404
    17.2994  17.3054  17.3275  17.3470  17.3550  17.3788  17.4751  17.5664
    17.5696  17.5885  17.6511  17.6995  17.7490  17.7651  17.7749  17.7760
    17.7889  17.8026  17.8490  17.8805  17.9202  17.9433  17.9503  17.9567
    18.0098  18.0166  18.0641  18.0987  18.1200  18.1713  18.1991  18.2108
    18.2421  18.2441  18.2483  18.3823  18.4010  18.4042  18.4318  18.4378
    18.5492  18.5875  18.6292  18.6629  18.6972  18.7210  18.7237  18.7290
    18.7339  18.7391  18.7635  18.8251  18.8291  18.9282  18.9326  18.9569
    18.9809  19.0248  19.0270  19.0724  19.0729  19.0732  19.0772  19.1652
    19.2393  19.3138  19.3857  19.3904  19.3907  19.3933  19.6312  19.6500
    19.7610  20.0206  20.0514  20.3006  20.5594  20.6257  20.8309  21.1732
    21.6546  21.9300  22.0099  22.4464  22.8384  23.3870  23.5600  23.9266
    24.1545  24.4389  24.4925  24.8384  25.0419  25.4770  25.5686  26.0931
    26.5240  26.8482  27.4579  27.5407  27.5555  27.7564  28.0061  28.0580
    28.2628  28.2847  28.5031  28.8025  28.9455  29.1473  29.4958  29.5796
    29.7183  29.8820  29.9014  30.0468  30.1352  30.3253  30.3389  30.3947
    30.4646  30.7309

          k = 0.0556 0.3886 0.2778 ( 33050 PWs)   bands (ev):

   -64.8810 -64.8735 -64.8669 -64.8613 -64.8558 -64.8519 -64.8510 -64.8487
   -64.8478 -64.8467 -64.8453 -64.8439 -64.8423 -64.8400 -64.8387 -64.8378
   -64.8374 -64.8365 -64.8354 -64.8352 -64.8336 -64.8326 -64.8313 -64.8297
   -64.8296 -64.8295 -64.8294 -64.8281 -64.8278 -64.8273 -64.8261 -64.8257
   -30.7494 -30.7484 -30.7298 -30.7253 -30.7241 -30.7235 -30.7215 -30.7202
   -30.7183 -30.7049 -30.7039 -30.7037 -30.7003 -30.6966 -30.6921 -30.6916
   -30.6912 -30.6843 -30.6842 -30.6831 -30.6774 -30.6742 -30.6668 -30.6658
   -30.6645 -30.6508 -30.6419 -30.6399 -30.6310 -30.6188 -30.6068 -30.6025
   -30.5987 -30.5882 -30.5868 -30.5810 -30.5806 -30.5800 -30.5710 -30.5678
   -30.5551 -30.5485 -30.5463 -30.5417 -30.5386 -30.5384 -30.5324 -30.5307
   -30.5283 -30.5260 -30.5253 -30.5204 -30.5192 -30.5183 -30.5145 -30.5082
   -30.5078 -30.5068 -30.5060 -30.5059 -30.5032 -30.4978 -30.4950 -30.4941
   -30.4928 -30.4907 -30.4864 -30.4862 -30.4844 -30.4820 -30.4818 -30.4814
   -30.4752 -30.4741 -30.4732 -30.4703 -30.4685 -30.4684 -30.4680 -30.4678
   -30.4618 -30.4607 -30.4590 -30.4570 -30.4555 -30.4553 -30.4549 -30.4508
   -30.4457 -30.4455 -30.4374 -30.4271 -30.4251 -30.4214 -30.4198 -30.4075
    12.9115  13.4834  13.9811  14.3040  14.3698  14.3722  14.3849  14.4042
    14.4064  14.5566  14.5577  14.5593  14.5691  14.5933  14.5972  14.6380
    14.6617  14.6671  14.6712  14.7152  14.7264  14.7514  14.8019  14.8167
    14.8343  14.8867  14.9143  14.9268  14.9968  15.0220  15.0483  15.0597
    15.0968  15.1956  15.2001  15.2351  15.2794  15.3062  15.3093  15.3596
    15.3736  15.4224  15.4511  15.4883  15.5264  15.6350  15.6788  15.6972
    15.7154  15.7646  15.8277  15.8581  15.8838  15.9076  15.9582  16.0677
    16.0814  16.0826  16.1668  16.2207  16.2288  16.2871  16.3338  16.3370
    16.3732  16.3734  16.3796  16.4140  16.4466  16.4697  16.4907  16.5768
    16.5836  16.6221  16.6442  16.6468  16.6586  16.6835  16.6922  16.7244
    16.7265  16.7320  16.7435  16.8286  16.8298  16.8483  16.8544  16.8685
    16.8801  16.9572  16.9594  16.9598  17.0374  17.0574  17.1204  17.1356
    17.1487  17.1875  17.2055  17.2201  17.2264  17.2647  17.2898  17.3864
    17.4976  17.5012  17.5235  17.5320  17.5421  17.5541  17.6138  17.6338
    17.6683  17.6997  17.7585  17.7748  17.7854  17.8694  18.0319  18.0754
    18.0857  18.0974  18.1119  18.1186  18.2434  18.2482  18.2627  18.2772
    18.2787  18.3234  18.4290  18.4503  18.4507  18.4612  18.5179  18.5309
    18.5332  18.6072  18.6349  18.6687  18.6739  18.7353  18.7603  18.8309
    18.8440  18.8441  18.8558  18.8562  18.8684  18.8687  18.8974  18.9190
    19.0120  19.0644  19.0695  19.0708  19.0756  19.0780  19.0809  19.0894
    19.1406  19.2100  19.2613  19.2628  19.2737  19.2958  19.5692  19.6497
    19.8748  20.0128  20.1474  20.2411  20.2938  20.3866  21.1326  21.6422
    22.3129  22.3146  22.5174  22.6215  22.9205  23.1015  23.4018  23.8782
    23.9104  24.1139  24.5173  25.0906  25.1044  25.4837  25.7769  26.3383
    26.5281  26.6302  26.7677  26.8993  27.1169  27.1619  27.4175  27.5816
    27.8775  27.9158  28.1070  28.3240  28.8839  29.2077  29.7618  29.8713
    29.9476  29.9866  30.0702  30.1540  30.2409  30.3446  30.8767  30.8865
    31.0483  31.1216

          k = 0.0556 0.3886 0.3889 ( 33059 PWs)   bands (ev):

   -64.8785 -64.8713 -64.8713 -64.8651 -64.8546 -64.8510 -64.8509 -64.8500
   -64.8483 -64.8471 -64.8470 -64.8450 -64.8381 -64.8379 -64.8365 -64.8364
   -64.8361 -64.8359 -64.8343 -64.8342 -64.8336 -64.8335 -64.8312 -64.8309
   -64.8306 -64.8304 -64.8300 -64.8299 -64.8285 -64.8269 -64.8266 -64.8259
   -30.7423 -30.7423 -30.7196 -30.7195 -30.7188 -30.7187 -30.7165 -30.7159
   -30.7140 -30.7137 -30.7045 -30.7033 -30.7032 -30.7006 -30.7002 -30.6922
   -30.6921 -30.6854 -30.6852 -30.6845 -30.6842 -30.6834 -30.6833 -30.6711
   -30.6688 -30.6687 -30.6541 -30.6397 -30.6349 -30.6187 -30.6185 -30.5931
   -30.5848 -30.5847 -30.5735 -30.5728 -30.5658 -30.5585 -30.5584 -30.5536
   -30.5531 -30.5526 -30.5525 -30.5483 -30.5476 -30.5296 -30.5290 -30.5248
   -30.5247 -30.5243 -30.5243 -30.5230 -30.5211 -30.5210 -30.5190 -30.5190
   -30.5161 -30.5160 -30.5035 -30.5034 -30.5011 -30.5010 -30.5004 -30.4960
   -30.4960 -30.4859 -30.4859 -30.4835 -30.4833 -30.4832 -30.4831 -30.4804
   -30.4748 -30.4744 -30.4743 -30.4732 -30.4732 -30.4708 -30.4677 -30.4637
   -30.4634 -30.4607 -30.4591 -30.4590 -30.4587 -30.4567 -30.4545 -30.4481
   -30.4479 -30.4443 -30.4441 -30.4262 -30.4201 -30.4183 -30.4182 -30.4082
    13.1077  13.6551  13.6560  14.1277  14.3494  14.4429  14.4530  14.5035
    14.5036  14.5358  14.5358  14.5375  14.6526  14.6526  14.6792  14.6971
    14.6971  14.7115  14.7118  14.7130  14.7132  14.7368  14.7374  14.8566
    14.8576  14.8721  14.8891  14.9249  14.9259  15.0296  15.0298  15.0326
    15.0329  15.0582  15.0582  15.1017  15.1018  15.2353  15.2356  15.2500
    15.2503  15.2780  15.2783  15.5146  15.5149  15.5639  15.7529  15.7535
    15.7578  15.7581  15.8548  15.9201  15.9608  15.9615  15.9651  15.9679
    15.9824  16.1729  16.2825  16.2829  16.3368  16.4577  16.4670  16.4697
    16.5046  16.5047  16.5098  16.5109  16.5116  16.5122  16.5485  16.5499
    16.5779  16.5911  16.7311  16.7421  16.7580  16.7595  16.7681  16.7940
    16.8108  16.8236  16.8245  16.8448  16.8454  16.8468  16.9584  16.9596
    16.9668  16.9696  16.9705  16.9729  16.9891  16.9905  17.0852  17.0884
    17.0928  17.1095  17.1847  17.1855  17.1881  17.2480  17.2904  17.2920
    17.2968  17.3066  17.3070  17.3239  17.3257  17.3487  17.3505  17.5082
[...]
    23.9500  23.9502  23.9502  23.9503  26.0837  26.0841  26.0843  26.0847
    26.4253  26.4253  26.4253  26.4254  26.4255  26.4255  26.4256  26.4256
    27.1969  27.1971  27.1972  27.1973  29.8687  29.8689  29.8696  29.8698
    30.3721  30.3722  30.3722  30.3723  30.9640  30.9641  30.9641  30.9641
    31.5412  31.5414

          k =-0.5000 0.1665-0.5000 ( 33060 PWs)   bands (ev):

   -64.8720 -64.8716 -64.8712 -64.8709 -64.8559 -64.8556 -64.8552 -64.8548
   -64.8442 -64.8439 -64.8435 -64.8431 -64.8341 -64.8341 -64.8339 -64.8338
   -64.8338 -64.8338 -64.8336 -64.8335 -64.8334 -64.8333 -64.8332 -64.8331
   -64.8330 -64.8330 -64.8328 -64.8327 -64.8282 -64.8279 -64.8275 -64.8271
   -30.7227 -30.7227 -30.7227 -30.7226 -30.7225 -30.7224 -30.7224 -30.7224
   -30.7002 -30.7002 -30.7000 -30.6999 -30.6996 -30.6996 -30.6994 -30.6993
   -30.6992 -30.6989 -30.6985 -30.6982 -30.6968 -30.6966 -30.6963 -30.6961
   -30.6522 -30.6520 -30.6518 -30.6517 -30.6087 -30.6087 -30.6086 -30.6086
   -30.5523 -30.5523 -30.5523 -30.5523 -30.5522 -30.5522 -30.5522 -30.5522
   -30.5513 -30.5512 -30.5510 -30.5509 -30.5506 -30.5506 -30.5503 -30.5503
   -30.5324 -30.5323 -30.5323 -30.5322 -30.5111 -30.5110 -30.5109 -30.5108
   -30.5107 -30.5106 -30.5104 -30.5103 -30.5102 -30.5101 -30.5100 -30.5099
   -30.4900 -30.4898 -30.4896 -30.4894 -30.4884 -30.4882 -30.4882 -30.4879
   -30.4878 -30.4877 -30.4876 -30.4875 -30.4755 -30.4755 -30.4755 -30.4755
   -30.4499 -30.4499 -30.4498 -30.4498 -30.4446 -30.4444 -30.4442 -30.4440
   -30.4392 -30.4389 -30.4385 -30.4382 -30.4148 -30.4148 -30.4148 -30.4148
    13.6306  13.6312  13.6315  13.6320  14.3317  14.3318  14.3320  14.3322
    14.6738  14.6738  14.6739  14.6739  14.6779  14.6780  14.6780  14.6781
    14.7501  14.7502  14.7503  14.7505  14.7507  14.7509  14.7510  14.7511
    14.9507  14.9508  14.9508  14.9509  14.9510  14.9511  14.9512  14.9512
    15.0562  15.0563  15.0564  15.0566  15.0569  15.0570  15.0571  15.0572
    15.2455  15.2455  15.2456  15.2456  15.7481  15.7481  15.7485  15.7486
    15.7487  15.7488  15.7491  15.7492  16.0704  16.0708  16.0710  16.0714
    16.0854  16.0856  16.0856  16.0858  16.5727  16.5729  16.5729  16.5730
    16.6420  16.6422  16.6424  16.6426  16.6430  16.6431  16.6432  16.6432
    16.8093  16.8094  16.8094  16.8095  16.8095  16.8095  16.8096  16.8097
    16.8128  16.8131  16.8132  16.8135  16.8361  16.8362  16.8364  16.8365
    16.8736  16.8737  16.8737  16.8740  17.1278  17.1279  17.1280  17.1281
    17.1282  17.1283  17.1284  17.1285  17.1555  17.1556  17.1559  17.1560
    17.2562  17.2565  17.2565  17.2568  17.3700  17.3700  17.3702  17.3702
    17.3704  17.3704  17.3705  17.3705  17.6951  17.6953  17.6958  17.6959
    18.1757  18.1759  18.1763  18.1766  18.3181  18.3182  18.3182  18.3185
    18.3185  18.3187  18.3188  18.3189  18.3277  18.3279  18.3281  18.3283
    18.6503  18.6504  18.6506  18.6508  18.7137  18.7138  18.7141  18.7142
    19.0668  19.0669  19.0669  19.0672  19.0672  19.0674  19.0675  19.0675
    19.0877  19.0878  19.0878  19.0879  19.0879  19.0880  19.0880  19.0880
    19.1003  19.1005  19.1005  19.1006  19.1264  19.1266  19.1268  19.1269
    20.3765  20.3768  20.3770  20.3773  22.0832  22.0833  22.0834  22.0835
    22.0837  22.0838  22.0839  22.0840  23.7762  23.7762  23.7763  23.7764
    23.7766  23.7766  23.7768  23.7768  25.4883  25.4887  25.4890  25.4893
    26.6640  26.6640  26.6641  26.6642  26.6643  26.6644  26.6645  26.6646
    27.3296  27.3297  27.3299  27.3299  29.7989  29.7990  29.7991  29.7991
    30.5041  30.5044  30.5050  30.5052  30.6496  30.6497  30.6499  30.6502
    30.6503  30.6504

          k =-0.5000 0.2775-0.5000 ( 33044 PWs)   bands (ev):

   -64.8706 -64.8703 -64.8699 -64.8695 -64.8597 -64.8593 -64.8589 -64.8585
   -64.8405 -64.8402 -64.8398 -64.8394 -64.8341 -64.8341 -64.8339 -64.8338
   -64.8338 -64.8338 -64.8336 -64.8335 -64.8334 -64.8333 -64.8332 -64.8331
   -64.8330 -64.8330 -64.8328 -64.8327 -64.8295 -64.8292 -64.8288 -64.8284
   -30.7201 -30.7201 -30.7200 -30.7200 -30.7198 -30.7198 -30.7197 -30.7197
   -30.7053 -30.7051 -30.7051 -30.7048 -30.7048 -30.7046 -30.7044 -30.7042
   -30.7033 -30.7033 -30.7030 -30.7030 -30.7028 -30.7027 -30.7025 -30.7025
   -30.6325 -30.6323 -30.6321 -30.6320 -30.5928 -30.5927 -30.5926 -30.5925
   -30.5523 -30.5523 -30.5523 -30.5523 -30.5522 -30.5522 -30.5522 -30.5522
   -30.5517 -30.5517 -30.5515 -30.5514 -30.5512 -30.5512 -30.5510 -30.5509
   -30.5484 -30.5483 -30.5482 -30.5481 -30.5098 -30.5096 -30.5094 -30.5093
   -30.5077 -30.5077 -30.5077 -30.5077 -30.5074 -30.5073 -30.5072 -30.5069
   -30.5069 -30.5067 -30.5066 -30.5065 -30.4908 -30.4907 -30.4907 -30.4904
   -30.4904 -30.4901 -30.4901 -30.4900 -30.4836 -30.4836 -30.4835 -30.4835
   -30.4418 -30.4418 -30.4417 -30.4417 -30.4356 -30.4354 -30.4351 -30.4349
   -30.4337 -30.4334 -30.4331 -30.4328 -30.4177 -30.4177 -30.4177 -30.4177
    13.6982  13.6987  13.6990  13.6995  14.1891  14.1893  14.1896  14.1898
    14.7078  14.7078  14.7079  14.7079  14.7276  14.7277  14.7278  14.7279
    14.7282  14.7283  14.7284  14.7285  14.7338  14.7338  14.7339  14.7340
    14.8815  14.8815  14.8816  14.8818  14.8819  14.8820  14.8821  14.8821
    15.1950  15.1950  15.1951  15.1951  15.1956  15.1957  15.1958  15.1958
    15.3019  15.3020  15.3020  15.3021  15.7374  15.7375  15.7379  15.7379
    15.7381  15.7381  15.7385  15.7386  15.8652  15.8656  15.8658  15.8661
    16.1782  16.1784  16.1784  16.1785  16.5833  16.5835  16.5836  16.5839
    16.7172  16.7172  16.7172  16.7172  16.7205  16.7207  16.7210  16.7212
    16.7832  16.7833  16.7835  16.7836  16.7920  16.7921  16.7921  16.7922
    16.7922  16.7923  16.7924  16.7924  16.7961  16.7964  16.7965  16.7967
    16.8256  16.8256  16.8257  16.8259  17.0950  17.0950  17.0952  17.0953
    17.0953  17.0954  17.0956  17.0957  17.1725  17.1727  17.1728  17.1730
    17.3087  17.3088  17.3091  17.3092  17.4455  17.4455  17.4457  17.4457
    17.4458  17.4459  17.4460  17.4460  17.8247  17.8249  17.8254  17.8255
    18.0245  18.0247  18.0250  18.0252  18.0614  18.0615  18.0616  18.0618
    18.0618  18.0620  18.0621  18.0622  18.2749  18.2751  18.2754  18.2755
    18.3322  18.3323  18.3326  18.3327  18.5368  18.5369  18.5373  18.5374
    19.1506  19.1507  19.1507  19.1508  19.1508  19.1509  19.1509  19.1510
    19.1692  19.1694  19.1694  19.1696  19.1918  19.1918  19.1919  19.1921
    19.1921  19.1923  19.1923  19.1923  19.2055  19.2057  19.2059  19.2060
    21.1315  21.1318  21.1321  21.1324  22.2667  22.2668  22.2669  22.2671
    22.2672  22.2673  22.2674  22.2675  23.4941  23.4941  23.4942  23.4944
    23.4945  23.4947  23.4948  23.4948  24.6436  24.6439  24.6443  24.6446
    27.0819  27.0820  27.0821  27.0822  27.0823  27.0824  27.0825  27.0826
    27.5598  27.5600  27.5601  27.5602  29.2515  29.2516  29.2517  29.2517
    29.7939  29.7939  29.7941  29.7942  29.7944  29.7945  29.7947  29.7947
    31.4545  31.4548

          k =-0.5000 0.3886-0.5000 ( 33056 PWs)   bands (ev):

   -64.8686 -64.8683 -64.8679 -64.8675 -64.8631 -64.8627 -64.8623 -64.8620
   -64.8372 -64.8368 -64.8364 -64.8361 -64.8341 -64.8341 -64.8339 -64.8338
   -64.8338 -64.8338 -64.8336 -64.8335 -64.8334 -64.8333 -64.8332 -64.8331
   -64.8330 -64.8330 -64.8328 -64.8327 -64.8315 -64.8311 -64.8307 -64.8304
   -30.7164 -30.7163 -30.7162 -30.7161 -30.7160 -30.7159 -30.7159 -30.7158
   -30.7103 -30.7101 -30.7098 -30.7098 -30.7096 -30.7096 -30.7093 -30.7090
   -30.7073 -30.7073 -30.7072 -30.7070 -30.7070 -30.7068 -30.7067 -30.7066
   -30.6113 -30.6111 -30.6110 -30.6108 -30.5734 -30.5733 -30.5732 -30.5731
   -30.5680 -30.5679 -30.5678 -30.5677 -30.5524 -30.5524 -30.5523 -30.5523
   -30.5522 -30.5522 -30.5521 -30.5521 -30.5520 -30.5520 -30.5518 -30.5518
   -30.5516 -30.5516 -30.5515 -30.5514 -30.5308 -30.5307 -30.5305 -30.5304
   -30.5033 -30.5033 -30.5033 -30.5033 -30.5031 -30.5030 -30.5028 -30.5027
   -30.5025 -30.5024 -30.5024 -30.5023 -30.4943 -30.4942 -30.4941 -30.4939
   -30.4938 -30.4936 -30.4935 -30.4934 -30.4910 -30.4910 -30.4910 -30.4910
   -30.4342 -30.4342 -30.4342 -30.4342 -30.4302 -30.4300 -30.4297 -30.4296
   -30.4295 -30.4294 -30.4290 -30.4288 -30.4221 -30.4221 -30.4220 -30.4220
    13.7941  13.7945  13.7949  13.7953  14.0467  14.0470  14.0473  14.0476
    14.7313  14.7314  14.7315  14.7315  14.7319  14.7320  14.7321  14.7321
    14.7395  14.7395  14.7396  14.7396  14.7616  14.7617  14.7618  14.7619
    14.8137  14.8137  14.8138  14.8140  14.8142  14.8143  14.8144  14.8144
    15.3540  15.3542  15.3542  15.3543  15.3547  15.3549  15.3549  15.3550
    15.3917  15.3918  15.3919  15.3920  15.6559  15.6559  15.6562  15.6564
    15.6565  15.6566  15.6569  15.6570  15.6774  15.6777  15.6779  15.6782
    16.3067  16.3069  16.3069  16.3070  16.5520  16.5522  16.5522  16.5524
    16.7403  16.7403  16.7405  16.7406  16.7579  16.7580  16.7582  16.7583
    16.7741  16.7743  16.7744  16.7746  16.7836  16.7836  16.7838  16.7839
    16.8190  16.8190  16.8191  16.8191  16.8447  16.8448  16.8449  16.8449
    16.8451  16.8451  16.8452  16.8453  17.0339  17.0340  17.0341  17.0342
    17.0343  17.0343  17.0345  17.0346  17.0616  17.0618  17.0619  17.0621
    17.4792  17.4793  17.4796  17.4798  17.5358  17.5358  17.5359  17.5359
    17.5361  17.5361  17.5362  17.5363  17.8331  17.8332  17.8332  17.8334
    17.8334  17.8337  17.8337  17.8338  17.8467  17.8470  17.8472  17.8474
    17.9863  17.9865  17.9869  17.9870  18.1813  18.1814  18.1816  18.1818
    18.2112  18.2113  18.2116  18.2118  18.3516  18.3517  18.3521  18.3522
    19.2147  19.2148  19.2148  19.2149  19.2150  19.2150  19.2150  19.2151
    19.2258  19.2260  19.2260  19.2262  19.2486  19.2487  19.2489  19.2490
    19.2532  19.2533  19.2533  19.2535  19.2535  19.2536  19.2536  19.2537
    21.9521  21.9524  21.9527  21.9530  22.5237  22.5238  22.5238  22.5240
    22.5242  22.5243  22.5244  22.5245  23.1656  23.1657  23.1657  23.1660
    23.1660  23.1663  23.1663  23.1664  23.7326  23.7329  23.7332  23.7336
    27.6266  27.6267  27.6268  27.6270  27.6271  27.6273  27.6274  27.6275
    27.8797  27.8799  27.8800  27.8801  28.7401  28.7402  28.7403  28.7404
    28.9964  28.9965  28.9966  28.9967  28.9970  28.9971  28.9972  28.9973
    32.5229  32.5236

          k =-0.5000-0.4996-0.5000 ( 32968 PWs)   bands (ev):

   -64.8662 -64.8660 -64.8658 -64.8657 -64.8654 -64.8653 -64.8651 -64.8649
   -64.8345 -64.8344 -64.8342 -64.8341 -64.8340 -64.8339 -64.8338 -64.8338
   -64.8337 -64.8336 -64.8336 -64.8335 -64.8334 -64.8334 -64.8333 -64.8333
   -64.8332 -64.8331 -64.8330 -64.8329 -64.8328 -64.8328 -64.8326 -64.8324
   -30.7121 -30.7121 -30.7120 -30.7120 -30.7119 -30.7118 -30.7117 -30.7117
   -30.7116 -30.7115 -30.7115 -30.7115 -30.7115 -30.7114 -30.7114 -30.7114
   -30.7112 -30.7112 -30.7111 -30.7111 -30.7108 -30.7108 -30.7107 -30.7106
   -30.5894 -30.5894 -30.5893 -30.5893 -30.5892 -30.5891 -30.5891 -30.5890
   -30.5525 -30.5524 -30.5524 -30.5523 -30.5523 -30.5522 -30.5522 -30.5522
   -30.5521 -30.5521 -30.5521 -30.5521 -30.5521 -30.5520 -30.5520 -30.5520
   -30.5520 -30.5519 -30.5519 -30.5519 -30.5519 -30.5518 -30.5518 -30.5517
   -30.4985 -30.4985 -30.4985 -30.4985 -30.4983 -30.4983 -30.4983 -30.4983
   -30.4980 -30.4980 -30.4980 -30.4980 -30.4978 -30.4977 -30.4977 -30.4977
   -30.4977 -30.4976 -30.4976 -30.4976 -30.4975 -30.4975 -30.4975 -30.4975
   -30.4282 -30.4282 -30.4281 -30.4281 -30.4279 -30.4279 -30.4277 -30.4276
   -30.4276 -30.4275 -30.4274 -30.4274 -30.4273 -30.4273 -30.4273 -30.4273
    13.9123  13.9127  13.9128  13.9130  13.9131  13.9134  13.9135  13.9138
    14.7608  14.7609  14.7610  14.7610  14.7611  14.7612  14.7612  14.7612
    14.7613  14.7613  14.7613  14.7613  14.7614  14.7614  14.7615  14.7616
    14.7617  14.7618  14.7619  14.7619  14.7619  14.7620  14.7620  14.7620
    15.5164  15.5164  15.5166  15.5167  15.5167  15.5168  15.5168  15.5170
    15.5170  15.5172  15.5172  15.5172  15.5173  15.5174  15.5174  15.5175
    15.5175  15.5175  15.5176  15.5177  15.5178  15.5179  15.5180  15.5182
    16.4474  16.4476  16.4476  16.4476  16.4477  16.4477  16.4477  16.4478
    16.7524  16.7525  16.7525  16.7525  16.7526  16.7526  16.7527  16.7528
    16.7590  16.7591  16.7592  16.7592  16.7593  16.7593  16.7594  16.7595
    16.9385  16.9386  16.9386  16.9387  16.9387  16.9388  16.9388  16.9389
    16.9420  16.9421  16.9422  16.9422  16.9423  16.9424  16.9424  16.9424
    16.9425  16.9425  16.9426  16.9426  16.9427  16.9427  16.9428  16.9429
    17.6578  17.6579  17.6580  17.6580  17.6580  17.6581  17.6581  17.6582
    17.6582  17.6583  17.6584  17.6584  17.6584  17.6585  17.6585  17.6586
    17.6611  17.6612  17.6613  17.6614  17.6616  17.6616  17.6617  17.6619
    18.1631  18.1633  18.1633  18.1634  18.1635  18.1637  18.1637  18.1638
    18.1653  18.1654  18.1654  18.1655  18.1658  18.1659  18.1660  18.1661
    19.2546  19.2546  19.2547  19.2548  19.2548  19.2549  19.2550  19.2550
    19.2559  19.2559  19.2559  19.2559  19.2560  19.2560  19.2560  19.2561
    19.2561  19.2561  19.2562  19.2562  19.2562  19.2563  19.2563  19.2563
    22.8250  22.8251  22.8253  22.8254  22.8257  22.8257  22.8260  22.8261
    22.8318  22.8319  22.8320  22.8322  22.8323  22.8323  22.8323  22.8323
    22.8325  22.8325  22.8326  22.8327  22.8327  22.8329  22.8329  22.8329
    28.2699  28.2700  28.2701  28.2701  28.2702  28.2703  28.2703  28.2704
    28.2705  28.2706  28.2706  28.2707  28.2708  28.2709  28.2709  28.2710
    28.2778  28.2780  28.2781  28.2782  28.2782  28.2783  28.2784  28.2785
    33.5022  33.5036

     the Fermi energy is    19.2768 ev

!    total energy              =  -16384.95843292 Ry
     Harris-Foulkes estimate   =  -16384.95842178 Ry
     estimated scf accuracy    <       0.00000057 Ry

     total all-electron energy =   -322945.812140 Ry

     The total energy is the sum of the following terms:

     one-electron contribution =   -2487.27046806 Ry
     hartree contribution      =    1661.13488878 Ry
     xc contribution           =    -986.50940279 Ry
     ewald contribution        =   -6404.92051140 Ry
     one-center paw contrib.   =   -8167.42607126 Ry
     smearing contrib. (-TS)   =       0.03313181 Ry

     convergence has been achieved in  11 iterations

     Forces acting on atoms (cartesian axes, Ry/au):

     atom    1 type  1   force =     0.00000000   -0.00000000   -0.00000000
     atom    2 type  1   force =    -0.00000342    0.00025094    0.00000000
     atom    3 type  1   force =    -0.00003046    0.00000000   -0.00003046
     atom    4 type  1   force =     0.00000000    0.00025094   -0.00000342
     atom    5 type  1   force =     0.00000000    0.00000000    0.00000000
     atom    6 type  1   force =     0.00004214    0.00042236    0.00000000
     atom    7 type  1   force =    -0.00003046    0.00000000    0.00003046
     atom    8 type  1   force =     0.00000000    0.00025094    0.00000342
     atom    9 type  1   force =     0.00000000    0.00000000    0.00000000
     atom   10 type  1   force =    -0.00000342   -0.00025094    0.00000000
     atom   11 type  1   force =     0.00005757    0.00000000    0.00005757
     atom   12 type  1   force =     0.00000000   -0.00025094   -0.00000342
     atom   13 type  1   force =     0.00000000    0.00000000    0.00000000
     atom   14 type  1   force =     0.00004214   -0.00042236   -0.00000000
     atom   15 type  1   force =     0.00005757    0.00000000   -0.00005757
     atom   16 type  1   force =     0.00000000   -0.00025094    0.00000342
     atom   17 type  1   force =     0.00000000   -0.00000000    0.00000000
     atom   18 type  1   force =     0.00000342    0.00025094    0.00000000
     atom   19 type  1   force =     0.00003046    0.00000000   -0.00003046
     atom   20 type  1   force =     0.00000000    0.00042236    0.00004214
     atom   21 type  1   force =     0.00000000    0.00000000    0.00000000
     atom   22 type  1   force =    -0.00004214    0.00042236   -0.00000000
     atom   23 type  1   force =     0.00003046    0.00000000    0.00003046
     atom   24 type  1   force =    -0.00000000    0.00042236   -0.00004214
     atom   25 type  1   force =     0.00000000    0.00000000   -0.00000000
     atom   26 type  1   force =     0.00000342   -0.00025094    0.00000000
     atom   27 type  1   force =    -0.00005757    0.00000000    0.00005757
     atom   28 type  1   force =    -0.00000000   -0.00042236    0.00004214
     atom   29 type  1   force =     0.00000000    0.00000000    0.00000000
     atom   30 type  1   force =    -0.00004214   -0.00042236    0.00000000
     atom   31 type  1   force =    -0.00005757   -0.00000000   -0.00005757
     atom   32 type  1   force =     0.00000000   -0.00042236   -0.00004214

     Total force =     0.001407     Total SCF correction =     0.007152
     SCF correction compared to forces is large: reduce conv_thr to get better values


     Computing stress (Cartesian axis) and pressure

          total   stress  (Ry/bohr**3)                   (kbar)     P=    0.31
   0.00000341   0.00000000   0.00000000          0.50      0.00      0.00
   0.00000000  -0.00000048   0.00000000          0.00     -0.07      0.00
   0.00000000   0.00000000   0.00000341          0.00      0.00      0.50


     Writing output data file sEXYpExDqpqTUmTy.save/
 
     init_run     :     39.98s CPU     43.39s WALL (       1 calls)
     electrons    :   1943.61s CPU   2047.60s WALL (       1 calls)
     forces       :     18.65s CPU     19.39s WALL (       1 calls)
     stress       :    184.27s CPU    185.23s WALL (       1 calls)

     Called by init_run:
     wfcinit      :     39.23s CPU     42.56s WALL (       1 calls)
     potinit      :      0.36s CPU      0.37s WALL (       1 calls)
     hinit0       :      0.21s CPU      0.23s WALL (       1 calls)

     Called by electrons:
     c_bands      :   1765.88s CPU   1850.71s WALL (      12 calls)
     sum_band     :    173.70s CPU    192.44s WALL (      12 calls)
     v_of_rho     :      0.34s CPU      0.36s WALL (      12 calls)
     newd         :      0.84s CPU      1.11s WALL (      12 calls)
     PAW_pot      :      3.04s CPU      3.10s WALL (      12 calls)
     mix_rho      :      0.09s CPU      0.10s WALL (      12 calls)

     Called by c_bands:
     init_us_2    :     10.40s CPU     10.46s WALL (    2025 calls)
     cegterg      :   1706.32s CPU   1790.82s WALL (     900 calls)

     Called by sum_band:
     sum_band:bec :      1.39s CPU      1.40s WALL (     900 calls)
     addusdens    :      0.93s CPU      1.24s WALL (      12 calls)

     Called by *egterg:
     h_psi        :    690.54s CPU    766.82s WALL (    2677 calls)
     s_psi        :     85.88s CPU     86.16s WALL (    2677 calls)
     g_psi        :      2.44s CPU      2.46s WALL (    1702 calls)
     cdiaghg      :    659.84s CPU    661.92s WALL (    2527 calls)

     Called by h_psi:
     h_psi:pot    :    684.13s CPU    760.15s WALL (    2677 calls)
     h_psi:calbec :     87.95s CPU     92.12s WALL (    2677 calls)
     vloc_psi     :    511.11s CPU    582.58s WALL (    2677 calls)
     add_vuspsi   :     85.04s CPU     85.44s WALL (    2677 calls)

     General routines
     calbec       :    147.67s CPU    154.59s WALL (    3952 calls)
     fft          :      0.33s CPU      0.37s WALL (     181 calls)
     ffts         :      0.03s CPU      0.03s WALL (      24 calls)
     fftw         :    595.08s CPU    678.15s WALL ( 1695724 calls)
     interpolate  :      0.04s CPU      0.05s WALL (      12 calls)
 
     Parallel routines
     fft_scatt_xy :     48.62s CPU     54.46s WALL ( 1695929 calls)
     fft_scatt_yz :    390.55s CPU    449.51s WALL ( 1695929 calls)
 
     PWSCF        : 36m33.36s CPU    39m54.05s WALL

 
   This run was terminated on:  14:39: 6  11Nov2020            

=------------------------------------------------------------------------------=
   JOB DONE.
=------------------------------------------------------------------------------=
