--------------------------------------------------------------------------
WARNING: No preset parameters were found for the device that Open MPI
detected:

  Local host:            bear-pg0206u14b
  Device name:           mlx5_0
  Device vendor ID:      0x02c9
  Device vendor part ID: 4123

Default device parameters will be used, which may result in lower
performance.  You can edit any of the files specified by the
btl_openib_device_param_files MCA parameter to set values for your
device.

NOTE: You can turn off this warning by setting the MCA parameter
      btl_openib_warn_no_device_params_found to 0.
--------------------------------------------------------------------------
--------------------------------------------------------------------------
WARNING: There was an error initializing an OpenFabrics device.

  Local host:   bear-pg0206u14b
  Local device: mlx5_0
--------------------------------------------------------------------------

     Program PWSCF v.6.3 starts on 11Nov2020 at 19:21:37 

     This program is part of the open-source Quantum ESPRESSO suite
     for quantum simulation of materials; please cite
         "P. Giannozzi et al., J. Phys.:Condens. Matter 21 395502 (2009);
         "P. Giannozzi et al., J. Phys.:Condens. Matter 29 465901 (2017);
          URL http://www.quantum-espresso.org", 
     in publications or presentations arising from this work. More details at
     http://www.quantum-espresso.org/quote

     Parallel version (MPI & OpenMP), running on      20 processor cores
     Number of MPI processes:                20
     Threads/MPI process:                     1

     MPI processes distributed on     1 nodes
     R & G space division:  proc/nbgrp/npool/nimage =      20
     Reading input from wd/ec/ec_3_004.in
Warning: card &IONS ignored
Warning: card ION_DYNAMICS = 'BFGS', ignored
Warning: card / ignored
Warning: card &CELL ignored
Warning: card CELL_DYNAMICS = 'BFGS', ignored
Warning: card CELL_FACTOR = 2.0, ignored
Warning: card PRESS = 0.0, ignored
Warning: card / ignored

     Current dimensions of program PWSCF are:
     Max number of different atomic species (ntypx) = 10
     Max number of k-points (npk) =  40000
     Max angular momentum in pseudopotentials (lmaxx) =  3
               file Pd.pbe-spn-kjpaw_psl.1.0.0.UPF: wavefunction(s)  4S 5S 4D renormalized

     Subspace diagonalization in iterative solution of the eigenvalue problem:
     a serial algorithm will be used

 
     Parallelization info
     --------------------
     sticks:   dense  smooth     PW     G-vecs:    dense   smooth      PW
     Min         376     247     67                24654    13231    1875
     Max         377     248     68                24659    13236    1880
     Sum        7521    4957   1353               493091   264699   37545
 


     bravais-lattice index     =            0
     lattice parameter (alat)  =      14.8394  a.u.
     unit-cell volume          =    3275.9340 (a.u.)^3
     number of atoms/cell      =           32
     number of atomic types    =            1
     number of electrons       =       576.00
     number of Kohn-Sham states=          346
     kinetic-energy cutoff     =      71.0000  Ry
     charge density cutoff     =     430.0000  Ry
     convergence threshold     =      1.0E-06
     mixing beta               =       0.1000
     number of iterations used =           10  plain     mixing
     Exchange-correlation      = SLA PW PBX PBC ( 1  4  3  4 0 0)

     celldm(1)=  14.839420  celldm(2)=   0.000000  celldm(3)=   0.000000
     celldm(4)=   0.000000  celldm(5)=   0.000000  celldm(6)=   0.000000

     crystal axes: (cart. coord. in units of alat)
               a(1) = (   1.000000   0.000000   0.000000 )  
               a(2) = (   0.000000   1.000000   0.000000 )  
               a(3) = (   0.000000   0.000000   1.002500 )  

     reciprocal axes: (cart. coord. in units 2 pi/alat)
               b(1) = (  1.000000  0.000000  0.000000 )  
               b(2) = (  0.000000  1.000000  0.000000 )  
               b(3) = (  0.000000  0.000000  0.997506 )  


     PseudoPot. # 1 for Pd read from file:
     /rds/homes/b/bxp912/pp/Pd.pbe-spn-kjpaw_psl.1.0.0.UPF
     MD5 check sum: 790f2ebce206edfd9790dcb9844eca51
     Pseudo is Projector augmented-wave + core cor, Zval = 18.0
     Generated using "atomic" code by A. Dal Corso v.6.3
     Shape of augmentation charge: PSQ
     Using radial grid of 1235 points,  6 beta functions with: 
                l(1) =   0
                l(2) =   0
                l(3) =   1
                l(4) =   1
                l(5) =   2
                l(6) =   2
     Q(r) pseudized with 0 coefficients 


     atomic species   valence    mass     pseudopotential
        Pd            18.00   106.42000     Pd( 1.00)

     16 Sym. Ops., with inversion, found



   Cartesian axes

     site n.     atom                  positions (alat units)
         1           Pd  tau(   1) = (   0.0000000   0.0000000   0.0000000  )
         2           Pd  tau(   2) = (   0.2500045   0.2500045   0.0000000  )
         3           Pd  tau(   3) = (   0.2500045   0.0000000   0.2506290  )
         4           Pd  tau(   4) = (   0.0000000   0.2500045   0.2506290  )
         5           Pd  tau(   5) = (   0.0000000   0.0000000   0.5012490  )
         6           Pd  tau(   6) = (   0.2500116   0.2500116   0.5012490  )
         7           Pd  tau(   7) = (   0.2500045   0.0000000   0.7518700  )
         8           Pd  tau(   8) = (   0.0000000   0.2500045   0.7518700  )
         9           Pd  tau(   9) = (   0.0000000   0.4999998   0.0000000  )
        10           Pd  tau(  10) = (   0.2500045   0.7499952   0.0000000  )
        11           Pd  tau(  11) = (   0.2500116   0.4999998   0.2506359  )
        12           Pd  tau(  12) = (   0.0000000   0.7499952   0.2506290  )
        13           Pd  tau(  13) = (   0.0000000   0.4999998   0.5012490  )
        14           Pd  tau(  14) = (   0.2500116   0.7499881   0.5012490  )
        15           Pd  tau(  15) = (   0.2500116   0.4999998   0.7518631  )
        16           Pd  tau(  16) = (   0.0000000   0.7499952   0.7518700  )
        17           Pd  tau(  17) = (   0.4999998   0.0000000   0.0000000  )
        18           Pd  tau(  18) = (   0.7499952   0.2500045   0.0000000  )
        19           Pd  tau(  19) = (   0.7499952   0.0000000   0.2506290  )
        20           Pd  tau(  20) = (   0.4999998   0.2500116   0.2506359  )
        21           Pd  tau(  21) = (   0.4999998   0.0000000   0.5012490  )
        22           Pd  tau(  22) = (   0.7499881   0.2500116   0.5012490  )
        23           Pd  tau(  23) = (   0.7499952   0.0000000   0.7518700  )
        24           Pd  tau(  24) = (   0.4999998   0.2500116   0.7518631  )
        25           Pd  tau(  25) = (   0.4999998   0.4999998   0.0000000  )
        26           Pd  tau(  26) = (   0.7499952   0.7499952   0.0000000  )
        27           Pd  tau(  27) = (   0.7499881   0.4999998   0.2506359  )
        28           Pd  tau(  28) = (   0.4999998   0.7499881   0.2506359  )
        29           Pd  tau(  29) = (   0.4999998   0.4999998   0.5012490  )
        30           Pd  tau(  30) = (   0.7499881   0.7499881   0.5012490  )
        31           Pd  tau(  31) = (   0.7499881   0.4999998   0.7518631  )
        32           Pd  tau(  32) = (   0.4999998   0.7499881   0.7518631  )

     number of k points=    75  Marzari-Vanderbilt smearing, width (Ry)=  0.0400
                       cart. coord. in units 2pi/alat
        k(    1) = (   0.0555556   0.0555556   0.0554170), wk =   0.0219479
        k(    2) = (   0.0555556   0.0555556   0.1662510), wk =   0.0219479
        k(    3) = (   0.0555556   0.0555556   0.2770851), wk =   0.0219479
        k(    4) = (   0.0555556   0.0555556   0.3879191), wk =   0.0219479
        k(    5) = (   0.0555556   0.0555556  -0.4987531), wk =   0.0109739
        k(    6) = (   0.0555556   0.1666667   0.0554170), wk =   0.0438957
        k(    7) = (   0.0555556   0.1666667   0.1662510), wk =   0.0438957
        k(    8) = (   0.0555556   0.1666667   0.2770851), wk =   0.0438957
        k(    9) = (   0.0555556   0.1666667   0.3879191), wk =   0.0438957
        k(   10) = (   0.0555556   0.1666667  -0.4987531), wk =   0.0219479
        k(   11) = (   0.0555556   0.2777778   0.0554170), wk =   0.0438957
        k(   12) = (   0.0555556   0.2777778   0.1662510), wk =   0.0438957
        k(   13) = (   0.0555556   0.2777778   0.2770851), wk =   0.0438957
        k(   14) = (   0.0555556   0.2777778   0.3879191), wk =   0.0438957
        k(   15) = (   0.0555556   0.2777778  -0.4987531), wk =   0.0219479
        k(   16) = (   0.0555556   0.3888889   0.0554170), wk =   0.0438957
        k(   17) = (   0.0555556   0.3888889   0.1662510), wk =   0.0438957
        k(   18) = (   0.0555556   0.3888889   0.2770851), wk =   0.0438957
        k(   19) = (   0.0555556   0.3888889   0.3879191), wk =   0.0438957
        k(   20) = (   0.0555556   0.3888889  -0.4987531), wk =   0.0219479
        k(   21) = (   0.0555556  -0.5000000   0.0554170), wk =   0.0219479
        k(   22) = (   0.0555556  -0.5000000   0.1662510), wk =   0.0219479
        k(   23) = (   0.0555556  -0.5000000   0.2770851), wk =   0.0219479
        k(   24) = (   0.0555556  -0.5000000   0.3879191), wk =   0.0219479
        k(   25) = (   0.0555556  -0.5000000  -0.4987531), wk =   0.0109739
        k(   26) = (   0.1666667   0.1666667   0.0554170), wk =   0.0219479
        k(   27) = (   0.1666667   0.1666667   0.1662510), wk =   0.0219479
        k(   28) = (   0.1666667   0.1666667   0.2770851), wk =   0.0219479
        k(   29) = (   0.1666667   0.1666667   0.3879191), wk =   0.0219479
        k(   30) = (   0.1666667   0.1666667  -0.4987531), wk =   0.0109739
        k(   31) = (   0.1666667   0.2777778   0.0554170), wk =   0.0438957
        k(   32) = (   0.1666667   0.2777778   0.1662510), wk =   0.0438957
        k(   33) = (   0.1666667   0.2777778   0.2770851), wk =   0.0438957
        k(   34) = (   0.1666667   0.2777778   0.3879191), wk =   0.0438957
        k(   35) = (   0.1666667   0.2777778  -0.4987531), wk =   0.0219479
        k(   36) = (   0.1666667   0.3888889   0.0554170), wk =   0.0438957
        k(   37) = (   0.1666667   0.3888889   0.1662510), wk =   0.0438957
        k(   38) = (   0.1666667   0.3888889   0.2770851), wk =   0.0438957
        k(   39) = (   0.1666667   0.3888889   0.3879191), wk =   0.0438957
        k(   40) = (   0.1666667   0.3888889  -0.4987531), wk =   0.0219479
        k(   41) = (   0.1666667  -0.5000000   0.0554170), wk =   0.0219479
        k(   42) = (   0.1666667  -0.5000000   0.1662510), wk =   0.0219479
        k(   43) = (   0.1666667  -0.5000000   0.2770851), wk =   0.0219479
        k(   44) = (   0.1666667  -0.5000000   0.3879191), wk =   0.0219479
        k(   45) = (   0.1666667  -0.5000000  -0.4987531), wk =   0.0109739
        k(   46) = (   0.2777778   0.2777778   0.0554170), wk =   0.0219479
        k(   47) = (   0.2777778   0.2777778   0.1662510), wk =   0.0219479
        k(   48) = (   0.2777778   0.2777778   0.2770851), wk =   0.0219479
        k(   49) = (   0.2777778   0.2777778   0.3879191), wk =   0.0219479
        k(   50) = (   0.2777778   0.2777778  -0.4987531), wk =   0.0109739
        k(   51) = (   0.2777778   0.3888889   0.0554170), wk =   0.0438957
        k(   52) = (   0.2777778   0.3888889   0.1662510), wk =   0.0438957
        k(   53) = (   0.2777778   0.3888889   0.2770851), wk =   0.0438957
        k(   54) = (   0.2777778   0.3888889   0.3879191), wk =   0.0438957
        k(   55) = (   0.2777778   0.3888889  -0.4987531), wk =   0.0219479
        k(   56) = (   0.2777778  -0.5000000   0.0554170), wk =   0.0219479
        k(   57) = (   0.2777778  -0.5000000   0.1662510), wk =   0.0219479
        k(   58) = (   0.2777778  -0.5000000   0.2770851), wk =   0.0219479
        k(   59) = (   0.2777778  -0.5000000   0.3879191), wk =   0.0219479
        k(   60) = (   0.2777778  -0.5000000  -0.4987531), wk =   0.0109739
        k(   61) = (   0.3888889   0.3888889   0.0554170), wk =   0.0219479
        k(   62) = (   0.3888889   0.3888889   0.1662510), wk =   0.0219479
        k(   63) = (   0.3888889   0.3888889   0.2770851), wk =   0.0219479
        k(   64) = (   0.3888889   0.3888889   0.3879191), wk =   0.0219479
        k(   65) = (   0.3888889   0.3888889  -0.4987531), wk =   0.0109739
        k(   66) = (   0.3888889  -0.5000000   0.0554170), wk =   0.0219479
        k(   67) = (   0.3888889  -0.5000000   0.1662510), wk =   0.0219479
        k(   68) = (   0.3888889  -0.5000000   0.2770851), wk =   0.0219479
        k(   69) = (   0.3888889  -0.5000000   0.3879191), wk =   0.0219479
        k(   70) = (   0.3888889  -0.5000000  -0.4987531), wk =   0.0109739
        k(   71) = (  -0.5000000  -0.5000000   0.0554170), wk =   0.0054870
        k(   72) = (  -0.5000000  -0.5000000   0.1662510), wk =   0.0054870
        k(   73) = (  -0.5000000  -0.5000000   0.2770851), wk =   0.0054870
        k(   74) = (  -0.5000000  -0.5000000   0.3879191), wk =   0.0054870
        k(   75) = (  -0.5000000  -0.5000000  -0.4987531), wk =   0.0027435

     Dense  grid:   493091 G-vectors     FFT dimensions: ( 100, 100, 100)

     Smooth grid:   264699 G-vectors     FFT dimensions: (  80,  80,  80)

     Estimated max dynamical RAM per process >     892.74 MB

     Estimated total dynamical RAM >      17.44 GB

     Check: negative/imaginary core charge=   -0.000002    0.000000

     Initial potential from superposition of free atoms

     starting charge  575.98776, renormalised to  576.00000
     Starting wfcs are  320 randomized atomic wfcs +   26 random wfcs
     Checking if some PAW data can be deallocated... 

     total cpu time spent up to now is       45.1 secs

     Self-consistent Calculation

     iteration #  1     ecut=    71.00 Ry     beta= 0.10
     Davidson diagonalization with overlap
     ethr =  1.00E-02,  avg # of iterations =  3.1

     Threshold (ethr) on eigenvalues was too large:
     Diagonalizing with lowered threshold

     Davidson diagonalization with overlap
     ethr =  8.45E-05,  avg # of iterations =  3.0

     total cpu time spent up to now is      490.8 secs

     total energy              =  -16385.02177549 Ry
     Harris-Foulkes estimate   =  -16385.09033039 Ry
     estimated scf accuracy    <       0.48065579 Ry

     iteration #  2     ecut=    71.00 Ry     beta= 0.10
     Davidson diagonalization with overlap
     ethr =  8.34E-05,  avg # of iterations =  1.0

     total cpu time spent up to now is      626.7 secs

     total energy              =  -16384.92962074 Ry
     Harris-Foulkes estimate   =  -16385.02964040 Ry
     estimated scf accuracy    <       0.26133521 Ry

     iteration #  3     ecut=    71.00 Ry     beta= 0.10
     Davidson diagonalization with overlap
     ethr =  4.54E-05,  avg # of iterations =  2.1

     total cpu time spent up to now is      814.7 secs

     total energy              =  -16384.96227562 Ry
     Harris-Foulkes estimate   =  -16384.96775135 Ry
     estimated scf accuracy    <       0.07224358 Ry

     iteration #  4     ecut=    71.00 Ry     beta= 0.10
     Davidson diagonalization with overlap
     ethr =  1.25E-05,  avg # of iterations =  1.7

     total cpu time spent up to now is      970.1 secs

     total energy              =  -16384.96283652 Ry
     Harris-Foulkes estimate   =  -16384.96498729 Ry
     estimated scf accuracy    <       0.02203655 Ry

     iteration #  5     ecut=    71.00 Ry     beta= 0.10
     Davidson diagonalization with overlap
     ethr =  3.83E-06,  avg # of iterations =  1.3

     total cpu time spent up to now is     1113.3 secs

     total energy              =  -16384.95779137 Ry
     Harris-Foulkes estimate   =  -16384.96302922 Ry
     estimated scf accuracy    <       0.01502389 Ry

     iteration #  6     ecut=    71.00 Ry     beta= 0.10
     Davidson diagonalization with overlap
     ethr =  2.61E-06,  avg # of iterations =  1.0

     total cpu time spent up to now is     1249.2 secs

     total energy              =  -16384.95879940 Ry
     Harris-Foulkes estimate   =  -16384.95880556 Ry
     estimated scf accuracy    <       0.00020643 Ry

     iteration #  7     ecut=    71.00 Ry     beta= 0.10
     Davidson diagonalization with overlap
     ethr =  3.58E-08,  avg # of iterations =  3.0

     total cpu time spent up to now is     1495.7 secs

     total energy              =  -16384.95887967 Ry
     Harris-Foulkes estimate   =  -16384.95889470 Ry
     estimated scf accuracy    <       0.00024470 Ry

     iteration #  8     ecut=    71.00 Ry     beta= 0.10
     Davidson diagonalization with overlap
     ethr =  3.58E-08,  avg # of iterations =  1.0

     total cpu time spent up to now is     1631.3 secs

     total energy              =  -16384.95888295 Ry
     Harris-Foulkes estimate   =  -16384.95888730 Ry
     estimated scf accuracy    <       0.00005336 Ry

     iteration #  9     ecut=    71.00 Ry     beta= 0.10
     Davidson diagonalization with overlap
     ethr =  9.26E-09,  avg # of iterations =  1.0

     total cpu time spent up to now is     1766.3 secs

     total energy              =  -16384.95888279 Ry
     Harris-Foulkes estimate   =  -16384.95888397 Ry
     estimated scf accuracy    <       0.00003708 Ry

     iteration # 10     ecut=    71.00 Ry     beta= 0.10
     Davidson diagonalization with overlap
     ethr =  6.44E-09,  avg # of iterations =  2.0

     total cpu time spent up to now is     1950.3 secs

     total energy              =  -16384.95889000 Ry
     Harris-Foulkes estimate   =  -16384.95888690 Ry
     estimated scf accuracy    <       0.00000395 Ry

     iteration # 11     ecut=    71.00 Ry     beta= 0.10
     Davidson diagonalization with overlap
     ethr =  6.86E-10,  avg # of iterations =  1.0

     total cpu time spent up to now is     2086.5 secs

     End of self-consistent calculation

          k = 0.0556 0.0556 0.0554 ( 33063 PWs)   bands (ev):

   -64.9274 -64.8988 -64.8986 -64.8985 -64.8933 -64.8930 -64.8929 -64.8830
   -64.8829 -64.8828 -64.8806 -64.8803 -64.8800 -64.8800 -64.8798 -64.8798
   -64.8798 -64.8797 -64.8796 -64.8791 -64.8774 -64.8773 -64.8772 -64.8649
   -64.8647 -64.8644 -64.8643 -64.8642 -64.8642 -64.8641 -64.8639 -64.8633
   -30.8103 -30.8103 -30.8102 -30.8084 -30.7902 -30.7902 -30.7893 -30.7139
   -30.7122 -30.7122 -30.7096 -30.7096 -30.7079 -30.7079 -30.7078 -30.7077
   -30.7019 -30.7001 -30.7000 -30.6963 -30.6963 -30.6951 -30.6951 -30.6948
   -30.6947 -30.6780 -30.6780 -30.6765 -30.6765 -30.6763 -30.6762 -30.6364
   -30.6364 -30.6358 -30.6122 -30.6122 -30.6115 -30.6062 -30.6062 -30.6056
   -30.5970 -30.5970 -30.5968 -30.5968 -30.5962 -30.5961 -30.5820 -30.5820
   -30.5817 -30.5816 -30.5813 -30.5813 -30.5813 -30.5810 -30.5810 -30.5804
   -30.5801 -30.5793 -30.5786 -30.5784 -30.5777 -30.5167 -30.5167 -30.5154
   -30.5153 -30.5153 -30.5151 -30.5043 -30.5043 -30.5032 -30.5031 -30.5031
   -30.5030 -30.5004 -30.5003 -30.4994 -30.4962 -30.4957 -30.4956 -30.4953
   -30.4953 -30.4952 -30.4952 -30.4950 -30.4945 -30.4942 -30.4942 -30.4938
   -30.4936 -30.4928 -30.4882 -30.4882 -30.4873 -30.4427 -30.4404 -30.4402
    12.2481  14.0063  14.0064  14.0065  14.0735  14.0871  14.0872  14.0872
    14.2689  14.2774  14.2775  14.2805  14.2806  14.2806  14.4644  14.4726
    14.4727  15.0106  15.0107  15.0191  15.0192  15.0192  15.0194  15.1638
    15.1722  15.1723  15.3173  15.3178  15.3178  15.3485  15.3587  15.3588
    15.3993  15.3993  15.4006  15.4006  15.4008  15.4009  15.4009  15.4032
    15.4033  15.7397  15.7397  15.7448  15.7448  15.7466  15.7467  15.8451
    15.8533  15.8534  15.8665  15.8665  15.8750  15.8751  15.8761  15.8762
    15.9229  15.9325  15.9325  16.0936  16.0936  16.0995  16.0995  16.1019
    16.1019  16.2020  16.2021  16.2068  16.2069  16.2070  16.2071  16.2073
    16.2107  16.2107  16.3150  16.3151  16.3163  16.3688  16.3813  16.3813
    16.3896  16.4090  16.4090  16.4110  16.4215  16.4228  16.4466  16.4554
    17.2339  17.2465  17.2465  17.3011  17.3011  17.3065  17.3734  17.3735
    17.3741  17.3742  17.3785  17.3785  17.3800  17.3801  17.3841  17.4201
    17.4339  17.4340  17.5290  17.5290  17.5382  17.6495  17.6496  17.6521
    17.7722  17.7723  17.7807  17.8299  17.8300  17.8373  17.9041  17.9041
    17.9063  17.9064  17.9066  17.9067  17.9243  17.9244  17.9253  17.9602
    17.9774  17.9774  17.9778  17.9779  17.9838  17.9842  17.9842  18.0864
    18.0865  18.0929  18.4709  18.4710  18.4813  18.5728  18.5728  18.5817
    18.9555  18.9555  18.9624  19.0806  19.0806  19.0818  19.1030  19.1126
    19.1230  19.1305  19.1305  19.3558  19.3570  19.3570  19.4067  19.4067
    19.4073  19.4073  19.4134  19.4157  19.4158  19.4197  19.4198  20.0849
    20.3897  20.3898  20.3899  20.9026  20.9026  20.9167  21.4105  21.4105
    21.4113  21.4114  21.4279  21.4279  21.9385  21.9385  21.9579  22.5001
    22.5472  22.5472  26.2692  26.2692  26.2696  26.4261  27.4021  27.4022
    27.4238  27.4238  27.4455  27.4456  28.0938  28.0939  28.1142  28.1142
    28.1374  28.1376  29.5092  29.5092  29.5182  29.5182  29.5394  29.5394
    29.6395  29.7054  29.7054  30.6197  30.6729  30.6730  30.6805  30.6806
    30.6966  30.6967

          k = 0.0556 0.0556 0.1663 ( 33069 PWs)   bands (ev):

   -64.9264 -64.9042 -64.8980 -64.8979 -64.8926 -64.8925 -64.8879 -64.8859
   -64.8858 -64.8829 -64.8823 -64.8822 -64.8807 -64.8806 -64.8799 -64.8797
   -64.8793 -64.8791 -64.8773 -64.8770 -64.8769 -64.8749 -64.8748 -64.8656
   -64.8649 -64.8649 -64.8647 -64.8647 -64.8646 -64.8641 -64.8639 -64.8633
   -30.8075 -30.8058 -30.8058 -30.8027 -30.7870 -30.7870 -30.7843 -30.7251
   -30.7200 -30.7199 -30.7141 -30.7141 -30.7140 -30.7140 -30.7129 -30.7129
   -30.7121 -30.7012 -30.7012 -30.6985 -30.6984 -30.6939 -30.6939 -30.6900
   -30.6900 -30.6791 -30.6791 -30.6731 -30.6731 -30.6653 -30.6602 -30.6602
   -30.6411 -30.6411 -30.6272 -30.6272 -30.6121 -30.6121 -30.6114 -30.6114
   -30.5998 -30.5858 -30.5858 -30.5854 -30.5854 -30.5820 -30.5820 -30.5802
   -30.5799 -30.5781 -30.5779 -30.5771 -30.5758 -30.5758 -30.5756 -30.5756
   -30.5754 -30.5754 -30.5718 -30.5674 -30.5674 -30.5274 -30.5269 -30.5195
   -30.5195 -30.5126 -30.5126 -30.5080 -30.5079 -30.5070 -30.5070 -30.5046
   -30.5046 -30.5026 -30.4999 -30.4999 -30.4999 -30.4998 -30.4992 -30.4961
   -30.4950 -30.4950 -30.4944 -30.4942 -30.4936 -30.4925 -30.4925 -30.4918
   -30.4912 -30.4909 -30.4874 -30.4837 -30.4837 -30.4490 -30.4423 -30.4416
    12.3212  13.9705  14.0403  14.0524  14.0524  14.1012  14.1285  14.1286
    14.1419  14.3080  14.3227  14.3227  14.3283  14.3284  14.5242  14.5243
    14.5348  14.9256  14.9257  14.9872  15.0535  15.0536  15.0604  15.0605
    15.0858  15.1663  15.1663  15.1983  15.1984  15.2054  15.2123  15.2123
    15.3587  15.3588  15.3806  15.3806  15.3906  15.3906  15.4275  15.4275
    15.4731  15.4731  15.5360  15.7269  15.7269  15.7494  15.7495  15.7952
    15.7952  15.8046  15.8046  15.8625  15.8625  15.9503  15.9504  15.9586
    16.0036  16.0036  16.0499  16.0609  16.0611  16.0634  16.0634  16.1064
    16.1065  16.1482  16.1482  16.1791  16.1792  16.3288  16.3522  16.3522
    16.3602  16.3603  16.3801  16.3805  16.3805  16.3903  16.4264  16.4339
    16.4358  16.4520  16.4520  16.4650  16.4828  16.4866  16.4866  16.4875
    17.0577  17.0578  17.1646  17.1681  17.1931  17.1932  17.2471  17.2472
    17.2644  17.3121  17.3246  17.3247  17.4440  17.4554  17.4555  17.4683
    17.4684  17.5062  17.5062  17.5120  17.5120  17.7268  17.7269  17.7411
    17.7516  17.7517  17.8218  17.8219  17.9024  17.9024  17.9095  17.9095
    17.9112  17.9113  17.9198  17.9933  17.9998  17.9999  18.0000  18.0336
    18.1193  18.1193  18.1301  18.1301  18.1617  18.1617  18.2209  18.2338
    18.2338  18.2647  18.3843  18.5173  18.5174  18.6461  18.6462  18.6492
    18.6828  18.6977  18.6977  18.9130  19.0186  19.0186  19.0367  19.0588
    19.0959  19.0992  19.0992  19.1229  19.1229  19.2865  19.3357  19.3358
    19.3372  19.3372  19.3523  19.4178  19.4180  19.4196  19.4199  20.0772
    20.4406  20.4406  20.5608  20.5608  20.7907  20.8878  20.9231  20.9231
    21.4049  21.4049  21.9386  21.9759  21.9759  22.1395  22.5161  22.5161
    22.8353  22.8353  26.2674  26.4268  26.4268  26.6927  26.6927  26.7094
    26.7094  26.7215  27.2858  27.2858  27.5766  27.5767  28.2612  28.2613
    28.7527  28.7527  29.5868  29.5868  29.6640  29.6914  29.6914  29.8424
    29.8424  29.9130  29.9130  30.0923  30.1325  30.1325  30.2078  30.2078
    30.6808  30.6810

          k = 0.0556 0.0556 0.2771 ( 33082 PWs)   bands (ev):

   -64.9245 -64.9093 -64.8970 -64.8969 -64.8917 -64.8916 -64.8887 -64.8886
   -64.8847 -64.8846 -64.8827 -64.8827 -64.8811 -64.8806 -64.8799 -64.8797
   -64.8791 -64.8789 -64.8774 -64.8742 -64.8741 -64.8725 -64.8725 -64.8675
   -64.8659 -64.8658 -64.8656 -64.8655 -64.8648 -64.8641 -64.8639 -64.8633
   -30.8006 -30.7976 -30.7976 -30.7931 -30.7808 -30.7808 -30.7746 -30.7417
   -30.7362 -30.7362 -30.7310 -30.7310 -30.7282 -30.7155 -30.7154 -30.7135
   -30.7135 -30.7037 -30.7036 -30.6946 -30.6945 -30.6933 -30.6926 -30.6925
   -30.6801 -30.6800 -30.6781 -30.6781 -30.6673 -30.6673 -30.6494 -30.6494
   -30.6431 -30.6431 -30.6415 -30.6414 -30.6252 -30.6252 -30.6227 -30.6227
   -30.5921 -30.5921 -30.5819 -30.5799 -30.5796 -30.5780 -30.5778 -30.5730
   -30.5716 -30.5696 -30.5696 -30.5676 -30.5676 -30.5665 -30.5665 -30.5655
   -30.5655 -30.5569 -30.5534 -30.5534 -30.5467 -30.5390 -30.5383 -30.5248
   -30.5248 -30.5173 -30.5173 -30.5156 -30.5156 -30.5127 -30.5121 -30.5121
   -30.5081 -30.5081 -30.5078 -30.5078 -30.5023 -30.4988 -30.4959 -30.4950
   -30.4947 -30.4946 -30.4943 -30.4941 -30.4935 -30.4921 -30.4921 -30.4909
   -30.4878 -30.4817 -30.4816 -30.4799 -30.4793 -30.4600 -30.4465 -30.4455
    12.4655  13.6217  14.1058  14.1419  14.1420  14.1704  14.2107  14.2107
    14.2367  14.3626  14.4067  14.4067  14.4267  14.4268  14.5044  14.6239
    14.6240  14.7795  14.7796  14.8233  14.8392  14.9165  14.9165  14.9678
    15.0749  15.0749  15.1178  15.1179  15.1410  15.1411  15.1469  15.1469
    15.2500  15.2501  15.2585  15.2586  15.3724  15.3725  15.4233  15.4233
    15.5366  15.5366  15.6797  15.6798  15.7086  15.7086  15.7206  15.7321
    15.7322  15.7514  15.7514  15.7771  15.7771  15.8888  15.8889  15.9614
    15.9615  16.0058  16.0127  16.0127  16.0806  16.0806  16.1134  16.1134
    16.1185  16.1185  16.1749  16.2019  16.2020  16.2728  16.3032  16.3119
    16.3119  16.3723  16.3831  16.3832  16.4895  16.5214  16.5214  16.5405
    16.5483  16.5513  16.6940  16.6940  16.7122  16.7611  16.8539  16.8539
    16.9044  16.9044  16.9274  16.9275  16.9983  17.0747  17.0831  17.0831
    17.0999  17.1068  17.3868  17.4099  17.4099  17.5045  17.5045  17.5753
    17.5754  17.5913  17.5914  17.6488  17.6489  17.6800  17.6801  17.7416
    17.7417  17.8419  17.8876  17.8876  17.8886  17.8887  17.9125  17.9125
    17.9168  17.9169  18.0313  18.1125  18.1665  18.1665  18.1821  18.1821
    18.1966  18.2820  18.2889  18.2932  18.3261  18.3262  18.3281  18.3281
    18.3708  18.3709  18.4005  18.4131  18.4132  18.4905  18.6632  18.6632
    18.7227  18.7231  18.7231  18.7826  18.8754  18.8755  18.9249  18.9249
    18.9275  19.0091  19.0125  19.0125  19.0233  19.1528  19.2036  19.2036
    19.2053  19.2053  19.2397  19.4180  19.4184  19.4194  19.4198  20.0145
    20.0145  20.2509  20.4638  20.4638  20.7855  20.7856  20.8283  21.1620
    21.3560  21.3560  21.5323  21.8938  22.6086  22.6087  23.1546  23.1546
    23.3194  23.3194  25.8127  25.8127  25.9875  25.9875  26.3721  26.3721
    26.4357  26.7394  26.7395  27.1437  27.8239  27.8239  28.4982  28.4983
    28.7753  29.2540  29.2540  29.3213  29.3213  29.6041  29.6041  29.6637
    29.6637  29.7434  29.7434  29.8808  30.0132  30.0132  30.1761  30.1761
    30.1844  30.1845

          k = 0.0556 0.0556 0.3879 ( 33075 PWs)   bands (ev):

   -64.9218 -64.9140 -64.8955 -64.8954 -64.8912 -64.8911 -64.8905 -64.8904
   -64.8869 -64.8868 -64.8825 -64.8815 -64.8806 -64.8799 -64.8797 -64.8791
   -64.8786 -64.8780 -64.8776 -64.8716 -64.8715 -64.8704 -64.8703 -64.8702
   -64.8674 -64.8673 -64.8668 -64.8667 -64.8649 -64.8641 -64.8639 -64.8633
   -30.7900 -30.7858 -30.7858 -30.7800 -30.7719 -30.7718 -30.7601 -30.7595
   -30.7540 -30.7540 -30.7466 -30.7466 -30.7463 -30.7188 -30.7155 -30.7154
   -30.7106 -30.7105 -30.7090 -30.7090 -30.6996 -30.6995 -30.6824 -30.6823
   -30.6749 -30.6749 -30.6645 -30.6645 -30.6598 -30.6598 -30.6594 -30.6594
   -30.6545 -30.6545 -30.6382 -30.6382 -30.6359 -30.6359 -30.6273 -30.6273
   -30.6014 -30.6014 -30.5796 -30.5792 -30.5783 -30.5780 -30.5669 -30.5655
   -30.5623 -30.5546 -30.5546 -30.5543 -30.5543 -30.5534 -30.5534 -30.5519
   -30.5518 -30.5496 -30.5486 -30.5406 -30.5405 -30.5405 -30.5325 -30.5325
   -30.5284 -30.5284 -30.5282 -30.5281 -30.5266 -30.5200 -30.5199 -30.5199
   -30.5196 -30.5196 -30.5121 -30.5024 -30.5023 -30.4983 -30.4968 -30.4950
   -30.4943 -30.4941 -30.4939 -30.4938 -30.4935 -30.4900 -30.4893 -30.4892
   -30.4882 -30.4820 -30.4820 -30.4758 -30.4695 -30.4687 -30.4525 -30.4515
    12.6772  13.2707  14.1974  14.2700  14.2701  14.2805  14.3327  14.3327
    14.3700  14.4161  14.4432  14.5322  14.5322  14.5653  14.5654  14.6047
    14.6048  14.6177  14.6759  14.6890  14.6890  14.7407  14.7646  14.7646
    14.9036  14.9036  14.9090  14.9091  15.1074  15.1075  15.2014  15.2015
    15.2570  15.2571  15.3266  15.3266  15.3418  15.3419  15.4846  15.4847
    15.5356  15.5357  15.5477  15.5477  15.6466  15.6466  15.6841  15.6841
    15.6991  15.6991  15.7431  15.7431  15.7887  15.7887  15.8961  15.9314
    15.9314  15.9605  15.9606  16.0656  16.1194  16.1194  16.1201  16.1201
    16.1417  16.1417  16.1936  16.2057  16.2421  16.2605  16.2605  16.3050
    16.3051  16.3391  16.4344  16.4344  16.5768  16.6196  16.6196  16.6445
    16.6459  16.6464  16.6744  16.6744  16.6819  16.6820  16.8360  16.8785
    16.8786  16.9197  16.9258  16.9322  17.1067  17.1111  17.1111  17.1243
    17.3480  17.3480  17.4743  17.4744  17.4752  17.4983  17.4983  17.6701
    17.6703  17.7079  17.7080  17.7153  17.7154  17.7302  17.7304  17.7330
    17.7688  17.7689  17.8567  17.8567  17.8956  17.8971  17.8971  17.8976
    17.8977  17.9183  17.9183  17.9286  17.9286  18.0180  18.0778  18.1277
    18.1277  18.2104  18.2766  18.2766  18.3693  18.3693  18.4057  18.4444
    18.5281  18.5282  18.5358  18.5875  18.5934  18.5934  18.6143  18.6143
    18.7676  18.7677  18.7809  18.8804  18.8821  18.8821  18.9096  18.9178
    18.9225  18.9226  18.9631  19.0262  19.0262  19.0267  19.0267  19.1018
    19.2192  19.2192  19.3331  19.4181  19.4186  19.4192  19.4197  19.6180
    19.6180  20.0268  20.0269  20.4423  20.7357  20.8048  20.9919  20.9919
    21.2754  21.2754  21.4596  21.8111  23.3138  23.3138  23.8610  23.8610
    23.9154  23.9154  24.9296  24.9296  25.2716  25.2716  25.4784  25.4784
    26.7840  27.2005  27.2005  27.6824  27.9794  28.1731  28.1731  28.5106
    28.5106  28.8314  28.8316  29.0645  29.0865  29.0865  29.4762  29.4762
    29.6223  29.6223  29.6980  29.6981  30.1312  30.1312  30.1573  30.1574
    30.3810  30.3810

          k = 0.0556 0.0556-0.4988 ( 33088 PWs)   bands (ev):

   -64.9187 -64.9179 -64.8940 -64.8939 -64.8932 -64.8931 -64.8892 -64.8891
   -64.8884 -64.8883 -64.8824 -64.8817 -64.8806 -64.8799 -64.8797 -64.8791
   -64.8784 -64.8777 -64.8741 -64.8734 -64.8697 -64.8696 -64.8689 -64.8688
   -64.8688 -64.8687 -64.8681 -64.8680 -64.8649 -64.8641 -64.8639 -64.8633
   -30.7761 -30.7758 -30.7715 -30.7711 -30.7707 -30.7704 -30.7642 -30.7638
   -30.7607 -30.7607 -30.7599 -30.7599 -30.7417 -30.7409 -30.7134 -30.7134
   -30.7131 -30.7130 -30.7058 -30.7058 -30.7056 -30.7055 -30.6714 -30.6714
   -30.6710 -30.6710 -30.6662 -30.6662 -30.6655 -30.6655 -30.6504 -30.6504
   -30.6501 -30.6501 -30.6500 -30.6500 -30.6493 -30.6493 -30.6137 -30.6137
   -30.6130 -30.6129 -30.5795 -30.5789 -30.5786 -30.5781 -30.5594 -30.5586
   -30.5582 -30.5574 -30.5435 -30.5432 -30.5429 -30.5429 -30.5421 -30.5421
   -30.5416 -30.5416 -30.5412 -30.5412 -30.5407 -30.5407 -30.5404 -30.5404
   -30.5353 -30.5349 -30.5345 -30.5342 -30.5296 -30.5295 -30.5288 -30.5288
   -30.5254 -30.5250 -30.4979 -30.4978 -30.4977 -30.4974 -30.4973 -30.4971
   -30.4963 -30.4957 -30.4950 -30.4943 -30.4941 -30.4935 -30.4895 -30.4887
   -30.4849 -30.4849 -30.4846 -30.4846 -30.4606 -30.4599 -30.4597 -30.4590
    12.9489  12.9499  14.3054  14.3063  14.4279  14.4283  14.4287  14.4293
    14.4302  14.4303  14.4925  14.4925  14.4934  14.4935  14.5392  14.5393
    14.5479  14.5487  14.6978  14.6978  14.6987  14.6987  14.7316  14.7317
    14.7324  14.7325  14.9325  14.9326  14.9332  14.9333  15.2838  15.2839
    15.2842  15.2843  15.3994  15.3995  15.4002  15.4003  15.4262  15.4263
    15.4269  15.4270  15.5606  15.5607  15.5613  15.5613  15.7124  15.7124
    15.7126  15.7126  15.7195  15.7196  15.7197  15.7197  15.9309  15.9309
    15.9310  15.9310  16.0555  16.0562  16.1219  16.1220  16.1226  16.1226
    16.1341  16.1347  16.2016  16.2021  16.2022  16.2028  16.2945  16.2950
    16.4705  16.4706  16.4706  16.4707  16.5319  16.5320  16.5321  16.5321
    16.6934  16.6936  16.7435  16.7437  16.7443  16.7445  16.7695  16.7703
    16.7713  16.7721  16.7780  16.7783  17.4920  17.4920  17.4926  17.4926
    17.5023  17.5023  17.5026  17.5026  17.5060  17.5063  17.5493  17.5496
    17.6040  17.6047  17.7120  17.7121  17.7126  17.7127  17.7976  17.7977
    17.7983  17.7983  17.8096  17.8096  17.8100  17.8100  17.8115  17.8116
    17.8121  17.8122  17.8516  17.8517  17.8523  17.8523  18.0263  18.0263
    18.0270  18.0270  18.1376  18.1384  18.5769  18.5774  18.5776  18.5780
    18.6039  18.6041  18.7170  18.7172  18.7177  18.7178  18.7254  18.7261
    18.7559  18.7561  18.7612  18.7615  18.8164  18.8164  18.8169  18.8169
    18.8239  18.8239  18.8244  18.8244  18.9808  18.9812  19.2506  19.2507
    19.2508  19.2508  19.4181  19.4188  19.4190  19.4197  19.6102  19.6102
    19.6103  19.6104  20.0487  20.0493  20.6067  20.6074  21.1556  21.1556
    21.1563  21.1563  21.6723  21.6730  24.0901  24.0901  24.0905  24.0905
    24.5748  24.5748  24.5754  24.5754  24.6370  24.6370  24.6373  24.6373
    27.3058  27.3059  27.7964  27.7966  27.7971  27.7973  28.3268  28.3269
    28.6013  28.6013  28.6021  28.6021  29.2389  29.2390  29.2397  29.2398
    29.5647  29.5651  29.5653  29.5657  30.3293  30.3294  30.3302  30.3302
    30.6111  30.6118

          k = 0.0556 0.1667 0.0554 ( 33065 PWs)   bands (ev):

   -64.9264 -64.9040 -64.8982 -64.8980 -64.8928 -64.8925 -64.8875 -64.8859
   -64.8858 -64.8828 -64.8824 -64.8824 -64.8807 -64.8799 -64.8799 -64.8798
   -64.8796 -64.8793 -64.8774 -64.8768 -64.8768 -64.8748 -64.8748 -64.8655
   -64.8648 -64.8648 -64.8646 -64.8646 -64.8644 -64.8643 -64.8642 -64.8637
   -30.8076 -30.8058 -30.8058 -30.8026 -30.7869 -30.7861 -30.7850 -30.7237
   -30.7186 -30.7184 -30.7157 -30.7147 -30.7142 -30.7132 -30.7130 -30.7126
   -30.7105 -30.7029 -30.7010 -30.6998 -30.6989 -30.6951 -30.6936 -30.6918
   -30.6899 -30.6806 -30.6794 -30.6746 -30.6729 -30.6660 -30.6585 -30.6584
   -30.6413 -30.6405 -30.6274 -30.6266 -30.6123 -30.6119 -30.6117 -30.6109
   -30.6002 -30.5863 -30.5861 -30.5841 -30.5830 -30.5815 -30.5813 -30.5810
   -30.5806 -30.5793 -30.5793 -30.5772 -30.5766 -30.5761 -30.5759 -30.5751
   -30.5749 -30.5744 -30.5722 -30.5671 -30.5666 -30.5290 -30.5273 -30.5181
   -30.5180 -30.5137 -30.5124 -30.5079 -30.5068 -30.5058 -30.5057 -30.5045
   -30.5037 -30.5016 -30.5008 -30.5002 -30.4998 -30.4996 -30.4988 -30.4959
   -30.4955 -30.4953 -30.4953 -30.4952 -30.4946 -30.4926 -30.4926 -30.4921
   -30.4916 -30.4911 -30.4884 -30.4837 -30.4829 -30.4491 -30.4424 -30.4417
    12.3215  13.9783  14.0408  14.0527  14.0528  14.1013  14.1286  14.1287
    14.1420  14.3083  14.3204  14.3225  14.3227  14.3286  14.5165  14.5246
    14.5421  14.9331  14.9335  14.9940  15.0459  15.0524  15.0538  15.0606
    15.0869  15.1679  15.1680  15.1901  15.1980  15.2075  15.2126  15.2132
    15.3594  15.3597  15.3707  15.3802  15.3881  15.3911  15.4233  15.4289
    15.4711  15.4732  15.5481  15.7308  15.7331  15.7426  15.7479  15.7878
    15.7935  15.7973  15.8033  15.8555  15.8645  15.9445  15.9505  15.9664
    16.0113  16.0137  16.0589  16.0599  16.0643  16.0682  16.0706  16.0982
    16.1044  16.1465  16.1498  16.1752  16.1776  16.3433  16.3505  16.3569
    16.3572  16.3673  16.3764  16.3778  16.3978  16.4009  16.4230  16.4231
    16.4329  16.4365  16.4502  16.4535  16.4661  16.4801  16.4860  16.4898
    17.0458  17.0526  17.1603  17.1709  17.1811  17.1892  17.2401  17.2402
    17.2580  17.3024  17.3263  17.3314  17.4461  17.4560  17.4606  17.4702
    17.4729  17.5087  17.5116  17.5180  17.5239  17.7280  17.7346  17.7527
    17.7553  17.7617  17.8225  17.8227  17.9007  17.9028  17.9099  17.9108
    17.9123  17.9160  17.9353  17.9844  17.9886  18.0023  18.0030  18.0261
    18.1189  18.1204  18.1258  18.1263  18.1617  18.1668  18.2168  18.2341
    18.2395  18.2699  18.3725  18.5166  18.5255  18.6436  18.6461  18.6524
    18.6755  18.6928  18.6993  18.9080  19.0199  19.0203  19.0434  19.0572
    19.0980  19.1029  19.1057  19.1237  19.1337  19.2876  19.3365  19.3367
    19.3476  19.3485  19.3541  19.4045  19.4060  19.4078  19.4098  20.0739
    20.4402  20.4517  20.5582  20.5583  20.7886  20.8740  20.9218  20.9369
    21.3881  21.3890  21.9200  21.9783  21.9967  22.1845  22.5176  22.5386
    22.7922  22.8378  26.2683  26.4281  26.4291  26.6860  26.7146  26.7233
    26.7290  26.7348  27.3064  27.3271  27.5348  27.5568  28.2178  28.2391
    28.7328  28.7743  29.5505  29.5742  29.6263  29.6912  29.6961  29.8007
    29.8473  29.8857  29.9232  30.0943  30.1303  30.1601  30.2376  30.2397
    30.6414  30.7522

          k = 0.0556 0.1667 0.1663 ( 33081 PWs)   bands (ev):

   -64.9255 -64.9035 -64.9034 -64.8975 -64.8921 -64.8893 -64.8875 -64.8872
   -64.8857 -64.8856 -64.8823 -64.8822 -64.8817 -64.8802 -64.8791 -64.8789
   -64.8788 -64.8787 -64.8770 -64.8769 -64.8750 -64.8750 -64.8728 -64.8656
   -64.8655 -64.8653 -64.8651 -64.8649 -64.8646 -64.8645 -64.8644 -64.8637
   -30.8048 -30.8048 -30.8002 -30.7955 -30.7839 -30.7823 -30.7815 -30.7276
   -30.7264 -30.7252 -30.7238 -30.7157 -30.7144 -30.7131 -30.7125 -30.7116
   -30.7112 -30.7106 -30.7100 -30.7096 -30.7023 -30.7021 -30.7016 -30.7000
   -30.6766 -30.6705 -30.6703 -30.6692 -30.6685 -30.6652 -30.6637 -30.6573
   -30.6556 -30.6463 -30.6427 -30.6187 -30.6138 -30.6136 -30.6000 -30.5997
   -30.5964 -30.5957 -30.5906 -30.5833 -30.5832 -30.5830 -30.5808 -30.5763
   -30.5760 -30.5760 -30.5752 -30.5751 -30.5749 -30.5738 -30.5727 -30.5720
   -30.5709 -30.5707 -30.5586 -30.5581 -30.5530 -30.5318 -30.5301 -30.5250
   -30.5248 -30.5165 -30.5147 -30.5133 -30.5076 -30.5075 -30.5072 -30.5064
   -30.5044 -30.5034 -30.5034 -30.5033 -30.5032 -30.5021 -30.4985 -30.4975
   -30.4972 -30.4967 -30.4947 -30.4938 -30.4937 -30.4927 -30.4919 -30.4918
   -30.4875 -30.4874 -30.4841 -30.4833 -30.4772 -30.4569 -30.4443 -30.4415
    12.3937  14.0232  14.0305  14.0869  14.0870  14.0941  14.1140  14.1551
    14.1949  14.1950  14.3498  14.3500  14.3677  14.3688  14.5624  14.5873
    14.5940  14.9485  14.9547  14.9682  14.9756  14.9991  14.9993  15.0173
    15.0239  15.0421  15.0942  15.0944  15.1119  15.1126  15.2357  15.2376
    15.2397  15.2463  15.2483  15.2998  15.4120  15.4393  15.4405  15.4418
    15.4447  15.4735  15.4746  15.5539  15.5655  15.7026  15.7077  15.7897
    15.7906  15.8011  15.8908  15.8951  15.9058  15.9092  15.9676  15.9710
    15.9798  16.0352  16.0447  16.0454  16.0535  16.1002  16.1064  16.2032
    16.2492  16.2515  16.2867  16.2931  16.3025  16.3031  16.3535  16.3688
    16.4083  16.4091  16.4120  16.4131  16.4136  16.4258  16.4313  16.4453
    16.4753  16.4807  16.4812  16.4836  16.4894  16.5051  16.5118  16.5160
    16.9558  17.0066  17.0162  17.0649  17.1632  17.1729  17.2723  17.2889
    17.2925  17.3007  17.3024  17.3516  17.3579  17.3747  17.3813  17.4288
    17.4324  17.4428  17.5181  17.5887  17.6000  17.6015  17.6186  17.6201
    17.6405  17.8978  17.8982  17.9129  17.9132  17.9176  17.9852  17.9875
    17.9899  18.0027  18.0063  18.0106  18.0137  18.0149  18.0949  18.0982
    18.1224  18.1230  18.3011  18.3049  18.3415  18.3532  18.3570  18.3587
    18.3993  18.4016  18.4019  18.4114  18.4611  18.4635  18.4929  18.5327
    18.6558  18.7633  18.8156  18.8181  18.9482  18.9511  18.9525  18.9686
    19.0678  19.0945  19.0953  19.1096  19.1129  19.1269  19.2783  19.2789
    19.3346  19.3387  19.3469  19.3495  19.3509  19.3580  19.3747  19.7954
    20.0107  20.4092  20.4200  20.4589  20.8995  20.9128  21.0842  21.0850
    21.4674  21.4703  21.9634  21.9835  22.4305  22.4712  22.5042  22.5258
    23.0971  23.0996  26.0678  26.0908  26.2654  26.2665  26.7278  26.7820
    26.8208  26.8457  26.8639  27.1282  27.4148  27.4540  27.8521  27.8722
    28.8802  28.9024  29.1444  29.1783  29.5702  29.6724  29.6834  29.7173
    29.8060  29.8083  30.0144  30.0336  30.0832  30.1500  30.4946  30.5118
    30.7802  30.8203

          k = 0.0556 0.1667 0.2771 ( 33071 PWs)   bands (ev):

   -64.9236 -64.9086 -64.9022 -64.8965 -64.8925 -64.8913 -64.8884 -64.8865
   -64.8854 -64.8845 -64.8826 -64.8824 -64.8822 -64.8808 -64.8806 -64.8785
   -64.8780 -64.8770 -64.8757 -64.8753 -64.8743 -64.8727 -64.8709 -64.8674
   -64.8662 -64.8661 -64.8660 -64.8655 -64.8652 -64.8646 -64.8644 -64.8637
   -30.7994 -30.7981 -30.7908 -30.7846 -30.7777 -30.7767 -30.7723 -30.7446
   -30.7412 -30.7311 -30.7283 -30.7279 -30.7265 -30.7263 -30.7174 -30.7169
   -30.7155 -30.7105 -30.7099 -30.7080 -30.7062 -30.7049 -30.7017 -30.6951
   -30.6876 -30.6751 -30.6717 -30.6654 -30.6615 -30.6604 -30.6571 -30.6552
   -30.6502 -30.6494 -30.6404 -30.6298 -30.6267 -30.6135 -30.6092 -30.5988
   -30.5958 -30.5942 -30.5898 -30.5827 -30.5815 -30.5765 -30.5761 -30.5754
   -30.5740 -30.5732 -30.5710 -30.5674 -30.5647 -30.5627 -30.5622 -30.5596
   -30.5577 -30.5552 -30.5457 -30.5448 -30.5417 -30.5395 -30.5373 -30.5365
   -30.5213 -30.5210 -30.5207 -30.5192 -30.5166 -30.5164 -30.5158 -30.5151
   -30.5098 -30.5079 -30.5056 -30.5045 -30.5042 -30.5030 -30.4996 -30.4994
   -30.4990 -30.4977 -30.4967 -30.4956 -30.4926 -30.4922 -30.4899 -30.4840
   -30.4823 -30.4822 -30.4822 -30.4757 -30.4734 -30.4692 -30.4485 -30.4438
    12.5362  13.6777  14.1318  14.1529  14.1670  14.1750  14.1770  14.2215
    14.2867  14.2990  14.4035  14.4331  14.4449  14.4572  14.5560  14.6334
    14.6949  14.7685  14.7908  14.8204  14.8517  14.8566  14.8676  14.9001
    14.9933  15.0023  15.0251  15.0367  15.0584  15.0837  15.1564  15.1638
    15.1737  15.1893  15.2197  15.2700  15.3122  15.3314  15.3598  15.4629
    15.4758  15.4835  15.5274  15.5985  15.6333  15.6473  15.6579  15.7341
    15.7514  15.7618  15.7804  15.7941  15.8406  15.9044  15.9103  15.9548
    15.9627  15.9752  16.0638  16.1080  16.1489  16.1584  16.2104  16.2131
    16.2304  16.2388  16.2412  16.2782  16.2988  16.3261  16.3285  16.3666
    16.3958  16.4042  16.4698  16.5002  16.5213  16.5428  16.5432  16.5498
    16.5750  16.5895  16.5995  16.6051  16.6183  16.7210  16.8064  16.8319
    16.8615  16.8679  16.8876  16.9773  17.0033  17.1009  17.1098  17.1257
    17.1956  17.2129  17.2130  17.2844  17.2924  17.3672  17.3731  17.4804
    17.4919  17.5158  17.5228  17.5722  17.6204  17.7029  17.7525  17.7601
    17.7756  17.8440  17.8657  17.8805  17.9101  17.9606  17.9909  18.0147
    18.0276  18.0764  18.0782  18.1172  18.1243  18.1355  18.1384  18.1457
    18.1577  18.1852  18.2633  18.3071  18.3212  18.3519  18.3848  18.4469
    18.4561  18.4832  18.4909  18.4911  18.4966  18.5166  18.5240  18.6078
    18.6177  18.6393  18.7337  18.8160  18.8439  18.8670  18.9443  18.9588
    19.0305  19.0680  19.0705  19.0743  19.1521  19.1705  19.1718  19.1794
    19.2033  19.2080  19.2456  19.3464  19.3505  19.3563  19.3580  19.6226
    19.8304  19.9825  20.3563  20.4408  20.4885  20.8642  20.9838  21.3753
    21.5719  21.8275  21.9516  22.0864  22.4893  22.6095  22.9447  23.1521
    23.5463  23.7358  25.2372  25.4458  25.8817  26.1341  26.2670  26.3929
    26.4360  26.9061  27.1295  27.1460  27.1544  27.6315  27.6645  28.2611
    28.4007  28.6840  28.7923  29.0062  29.1337  29.2216  29.4384  29.6285
    29.8074  29.9007  29.9070  30.1283  30.1805  30.4039  30.4712  30.5212
    30.7450  30.8433

          k = 0.0556 0.1667 0.3879 ( 33092 PWs)   bands (ev):

   -64.9209 -64.9133 -64.9005 -64.8955 -64.8951 -64.8909 -64.8901 -64.8866
   -64.8855 -64.8849 -64.8833 -64.8825 -64.8820 -64.8810 -64.8781 -64.8777
   -64.8772 -64.8771 -64.8757 -64.8728 -64.8718 -64.8707 -64.8701 -64.8692
   -64.8679 -64.8676 -64.8672 -64.8662 -64.8655 -64.8647 -64.8644 -64.8637
   -30.7902 -30.7877 -30.7782 -30.7705 -30.7688 -30.7685 -30.7618 -30.7585
   -30.7582 -30.7455 -30.7454 -30.7437 -30.7356 -30.7261 -30.7244 -30.7194
   -30.7193 -30.7189 -30.7178 -30.7143 -30.7051 -30.7012 -30.6982 -30.6906
   -30.6826 -30.6785 -30.6735 -30.6696 -30.6664 -30.6584 -30.6498 -30.6451
   -30.6436 -30.6425 -30.6387 -30.6345 -30.6263 -30.6248 -30.6217 -30.6113
   -30.6090 -30.5991 -30.5761 -30.5754 -30.5733 -30.5732 -30.5728 -30.5702
   -30.5678 -30.5649 -30.5638 -30.5560 -30.5530 -30.5525 -30.5519 -30.5511
   -30.5475 -30.5474 -30.5454 -30.5420 -30.5347 -30.5339 -30.5304 -30.5302
   -30.5296 -30.5293 -30.5292 -30.5280 -30.5274 -30.5271 -30.5270 -30.5160
   -30.5146 -30.5142 -30.5069 -30.5068 -30.5056 -30.5045 -30.5039 -30.5024
   -30.5013 -30.5003 -30.4946 -30.4945 -30.4928 -30.4908 -30.4881 -30.4856
   -30.4850 -30.4829 -30.4770 -30.4721 -30.4717 -30.4651 -30.4545 -30.4487
    12.7451  13.3309  14.2453  14.2602  14.2760  14.2923  14.3059  14.3271
    14.4157  14.4384  14.4664  14.4828  14.5483  14.5573  14.5634  14.5888
    14.6121  14.6434  14.6507  14.6522  14.7118  14.7284  14.7771  14.7877
    14.8087  14.8380  14.9242  14.9417  14.9604  15.0415  15.1525  15.1737
    15.1784  15.1938  15.2324  15.2880  15.2937  15.4179  15.4289  15.4508
    15.4790  15.4946  15.5546  15.5716  15.5881  15.5948  15.5969  15.6038
    15.6432  15.6836  15.7425  15.7716  15.7811  15.8406  15.9051  15.9386
    15.9667  16.0156  16.1252  16.1264  16.1595  16.1899  16.1939  16.2013
    16.2041  16.2134  16.2629  16.2902  16.3147  16.3166  16.3167  16.3509
    16.3873  16.4364  16.4455  16.5795  16.5830  16.6363  16.6440  16.6546
    16.6588  16.6614  16.7006  16.7153  16.7344  16.7961  16.8041  16.8062
    16.8879  16.8972  16.9225  16.9899  17.0204  17.0472  17.0851  17.1073
    17.2616  17.2629  17.2845  17.3049  17.3176  17.3359  17.4329  17.5216
    17.5270  17.5467  17.6106  17.6588  17.7069  17.7274  17.7346  17.7388
    17.7421  17.7643  17.8089  17.8400  17.8790  17.9016  17.9102  17.9183
    17.9684  17.9746  18.0227  18.0651  18.0782  18.1294  18.1579  18.1695
    18.2010  18.2037  18.2134  18.3402  18.3596  18.3633  18.3898  18.3961
    18.5097  18.5459  18.5868  18.6208  18.6537  18.6786  18.6803  18.6869
    18.6905  18.6964  18.7207  18.7816  18.7863  18.8864  18.8899  18.9146
    18.9375  18.9798  18.9828  19.0275  19.0283  19.0289  19.0318  19.1220
    19.1958  19.2700  19.3465  19.3506  19.3517  19.3544  19.5862  19.6055
    19.7096  19.9805  20.0053  20.2601  20.5122  20.5851  20.7907  21.1147
    21.6131  21.8899  21.9676  22.4061  22.7820  23.3303  23.5181  23.8695
    24.1132  24.3774  24.4347  24.7917  24.9803  25.4308  25.5072  26.0309
    26.4652  26.7887  27.4153  27.4911  27.4993  27.6967  27.9640  27.9934
    28.2175  28.2250  28.4581  28.7574  28.8914  29.0830  29.4543  29.5316
    29.6542  29.8316  29.8551  30.0031  30.0895  30.2807  30.2952  30.3392
    30.4129  30.6872

          k = 0.0556 0.1667-0.4988 ( 33092 PWs)   bands (ev):

   -64.9178 -64.9171 -64.8986 -64.8978 -64.8935 -64.8928 -64.8889 -64.8881
   -64.8846 -64.8845 -64.8838 -64.8837 -64.8819 -64.8811 -64.8780 -64.8772
   -64.8768 -64.8760 -64.8740 -64.8732 -64.8705 -64.8699 -64.8697 -64.8692
   -64.8691 -64.8684 -64.8680 -64.8672 -64.8655 -64.8647 -64.8644 -64.8637
   -30.7776 -30.7773 -30.7744 -30.7740 -30.7629 -30.7625 -30.7583 -30.7578
   -30.7576 -30.7570 -30.7539 -30.7536 -30.7411 -30.7404 -30.7232 -30.7230
   -30.7203 -30.7200 -30.7200 -30.7199 -30.7006 -30.7004 -30.6908 -30.6903
   -30.6788 -30.6786 -30.6784 -30.6782 -30.6588 -30.6584 -30.6496 -30.6491
   -30.6387 -30.6382 -30.6333 -30.6325 -30.6283 -30.6281 -30.6211 -30.6207
   -30.6112 -30.6105 -30.5761 -30.5754 -30.5728 -30.5724 -30.5625 -30.5617
   -30.5573 -30.5566 -30.5560 -30.5553 -30.5531 -30.5528 -30.5458 -30.5456
   -30.5432 -30.5427 -30.5414 -30.5411 -30.5400 -30.5395 -30.5393 -30.5390
   -30.5372 -30.5365 -30.5271 -30.5268 -30.5238 -30.5230 -30.5168 -30.5165
   -30.5164 -30.5157 -30.5112 -30.5108 -30.5060 -30.5056 -30.5034 -30.5027
   -30.5018 -30.5011 -30.4987 -30.4984 -30.4940 -30.4933 -30.4867 -30.4861
   -30.4860 -30.4858 -30.4736 -30.4734 -30.4627 -30.4619 -30.4562 -30.4557
    13.0133  13.0143  14.3544  14.3552  14.3928  14.3929  14.4404  14.4411
    14.4531  14.4539  14.4651  14.4660  14.4712  14.4712  14.5801  14.5801
    14.5858  14.5867  14.6100  14.6100  14.6666  14.6672  14.7211  14.7219
    14.7581  14.7588  14.8351  14.8356  15.0108  15.0115  15.0944  15.0946
    15.2881  15.2882  15.2950  15.2956  15.3280  15.3288  15.4308  15.4316
    15.5058  15.5060  15.5341  15.5349  15.5845  15.5849  15.6080  15.6083
    15.6567  15.6567  15.6935  15.6941  15.6964  15.6969  16.0420  16.0426
    16.0602  16.0608  16.0685  16.0691  16.0855  16.0861  16.1525  16.1526
    16.2474  16.2480  16.2661  16.2665  16.3582  16.3588  16.4066  16.4072
    16.4692  16.4693  16.5115  16.5115  16.5265  16.5267  16.6417  16.6419
    16.6860  16.6862  16.7496  16.7499  16.7668  16.7676  16.7717  16.7725
    16.8314  16.8317  16.8548  16.8551  17.2922  17.2927  17.3018  17.3023
    17.3605  17.3607  17.3726  17.3728  17.3982  17.3985  17.4465  17.4467
    17.4838  17.4843  17.6246  17.6252  17.6371  17.6376  17.7118  17.7121
    17.7230  17.7236  17.7612  17.7615  17.7666  17.7671  17.8343  17.8350
    17.9444  17.9451  17.9836  17.9842  18.0545  18.0552  18.1317  18.1325
    18.2501  18.2508  18.2999  18.3006  18.3722  18.3726  18.5394  18.5401
    18.5803  18.5804  18.5972  18.5978  18.7344  18.7347  18.7560  18.7561
    18.8164  18.8170  18.8417  18.8421  18.8471  18.8472  18.8526  18.8528
    18.8611  18.8615  18.8635  18.8639  18.9538  18.9540  19.0052  19.0054
    19.2187  19.2189  19.3473  19.3480  19.3525  19.3532  19.5894  19.5895
    20.0523  20.0525  20.1323  20.1330  20.3858  20.3864  20.6942  20.6950
    21.7821  21.7828  22.2426  22.2433  23.5499  23.5503  24.1234  24.1237
    24.1427  24.1433  24.6568  24.6570  24.7506  24.7512  25.2002  25.2005
    26.8787  26.8788  27.3156  27.3157  27.7887  27.7895  27.9479  27.9486
    28.3334  28.3342  28.3436  28.3437  28.9019  28.9020  29.2987  29.2989
    29.8436  29.8444  30.0014  30.0021  30.0133  30.0138  30.1267  30.1276
    30.7777  30.9839

          k = 0.0556 0.2778 0.0554 ( 33061 PWs)   bands (ev):

   -64.9245 -64.9092 -64.8972 -64.8970 -64.8919 -64.8917 -64.8887 -64.8886
   -64.8848 -64.8847 -64.8826 -64.8823 -64.8812 -64.8799 -64.8799 -64.8798
   -64.8796 -64.8789 -64.8775 -64.8740 -64.8740 -64.8725 -64.8724 -64.8671
   -64.8658 -64.8656 -64.8655 -64.8653 -64.8646 -64.8644 -64.8642 -64.8639
   -30.8005 -30.7975 -30.7974 -30.7929 -30.7807 -30.7799 -30.7752 -30.7408
   -30.7352 -30.7350 -30.7302 -30.7297 -30.7270 -30.7171 -30.7159 -30.7149
   -30.7138 -30.7049 -30.7044 -30.6956 -30.6946 -30.6941 -30.6940 -30.6922
   -30.6813 -30.6802 -30.6797 -30.6778 -30.6687 -30.6671 -30.6498 -30.6487
   -30.6420 -30.6412 -30.6412 -30.6409 -30.6260 -30.6248 -30.6233 -30.6222
   -30.5903 -30.5897 -30.5819 -30.5811 -30.5800 -30.5798 -30.5775 -30.5751
   -30.5724 -30.5697 -30.5695 -30.5669 -30.5665 -30.5664 -30.5658 -30.5649
   -30.5647 -30.5569 -30.5530 -30.5526 -30.5472 -30.5407 -30.5388 -30.5235
   -30.5234 -30.5172 -30.5162 -30.5155 -30.5148 -30.5118 -30.5110 -30.5109
   -30.5086 -30.5077 -30.5074 -30.5071 -30.5014 -30.4998 -30.4970 -30.4954
   -30.4953 -30.4952 -30.4951 -30.4949 -30.4946 -30.4921 -30.4918 -30.4914
   -30.4889 -30.4816 -30.4809 -30.4805 -30.4796 -30.4602 -30.4465 -30.4456
    12.4666  13.6282  14.1069  14.1429  14.1430  14.1706  14.2109  14.2110
    14.2370  14.3634  14.4061  14.4068  14.4200  14.4276  14.5103  14.6175
    14.6250  14.7855  14.7860  14.8284  14.8403  14.9179  14.9180  14.9695
    15.0749  15.0771  15.1120  15.1185  15.1341  15.1416  15.1436  15.1480
    15.2424  15.2490  15.2593  15.2610  15.3706  15.3739  15.4141  15.4221
    15.5350  15.5380  15.6746  15.6771  15.7102  15.7136  15.7261  15.7291
    15.7347  15.7450  15.7505  15.7756  15.7769  15.8860  15.8900  15.9585
    15.9593  16.0136  16.0155  16.0177  16.0872  16.0907  16.1051  16.1118
    16.1127  16.1172  16.1854  16.1942  16.1958  16.2864  16.3160  16.3224
    16.3278  16.3758  16.3762  16.3861  16.4752  16.5047  16.5169  16.5260
    16.5295  16.5497  16.6904  16.6938  16.7092  16.7590  16.8422  16.8463
    16.8977  16.9086  16.9162  16.9215  16.9883  17.0674  17.0738  17.0739
    17.0912  17.0980  17.4002  17.4144  17.4182  17.5119  17.5160  17.5783
    17.5815  17.5946  17.5962  17.6527  17.6545  17.6828  17.6875  17.7464
    17.7513  17.8589  17.8883  17.8898  17.8901  17.8932  17.9129  17.9149
    17.9206  17.9208  18.0149  18.1180  18.1690  18.1699  18.1847  18.1849
    18.1944  18.2776  18.2801  18.2825  18.3233  18.3238  18.3253  18.3278
    18.3719  18.3745  18.3991  18.4144  18.4178  18.4874  18.6621  18.6673
    18.7214  18.7333  18.7387  18.7769  18.8766  18.8771  18.9262  18.9263
    18.9330  19.0068  19.0137  19.0195  19.0295  19.1535  19.2046  19.2052
    19.2135  19.2149  19.2402  19.4034  19.4053  19.4082  19.4092  20.0140
    20.0227  20.2445  20.4624  20.4749  20.7797  20.7802  20.8154  21.1573
    21.3403  21.3413  21.5738  21.8768  22.6134  22.6331  23.1583  23.1804
    23.2811  23.3250  25.8320  25.8520  25.9620  26.0046  26.3902  26.4118
    26.4398  26.7436  26.7451  27.1485  27.7819  27.8060  28.4554  28.4784
    28.8015  29.2360  29.2516  29.3453  29.3474  29.5656  29.5992  29.6003
    29.6628  29.7240  29.7359  29.9044  29.9594  30.0121  30.1280  30.1444
    30.1744  30.1777

          k = 0.0556 0.2778 0.1663 ( 33064 PWs)   bands (ev):

   -64.9236 -64.9085 -64.9023 -64.8965 -64.8926 -64.8913 -64.8884 -64.8868
   -64.8853 -64.8846 -64.8826 -64.8821 -64.8820 -64.8810 -64.8807 -64.8784
   -64.8780 -64.8772 -64.8755 -64.8753 -64.8742 -64.8727 -64.8709 -64.8671
   -64.8662 -64.8661 -64.8658 -64.8655 -64.8651 -64.8651 -64.8644 -64.8639
   -30.7994 -30.7980 -30.7907 -30.7845 -30.7776 -30.7758 -30.7728 -30.7437
   -30.7401 -30.7299 -30.7276 -30.7275 -30.7275 -30.7270 -30.7181 -30.7163
   -30.7161 -30.7110 -30.7100 -30.7078 -30.7071 -30.7043 -30.7030 -30.6959
   -30.6890 -30.6744 -30.6728 -30.6655 -30.6614 -30.6603 -30.6573 -30.6555
   -30.6518 -30.6480 -30.6386 -30.6301 -30.6266 -30.6134 -30.6101 -30.5983
   -30.5955 -30.5941 -30.5874 -30.5826 -30.5806 -30.5788 -30.5759 -30.5752
   -30.5747 -30.5745 -30.5717 -30.5668 -30.5639 -30.5627 -30.5617 -30.5589
   -30.5579 -30.5556 -30.5451 -30.5448 -30.5437 -30.5393 -30.5368 -30.5357
   -30.5210 -30.5207 -30.5200 -30.5187 -30.5163 -30.5157 -30.5155 -30.5143
   -30.5104 -30.5070 -30.5067 -30.5042 -30.5038 -30.5036 -30.5001 -30.4993
   -30.4988 -30.4972 -30.4968 -30.4965 -30.4931 -30.4919 -30.4909 -30.4848
   -30.4830 -30.4821 -30.4815 -30.4758 -30.4733 -30.4693 -30.4486 -30.4438
    12.5369  13.6837  14.1256  14.1537  14.1671  14.1756  14.1777  14.2217
    14.2868  14.2992  14.4042  14.4330  14.4454  14.4568  14.5614  14.6340
    14.6893  14.7690  14.7953  14.8265  14.8514  14.8616  14.8685  14.9007
    14.9893  15.0039  15.0268  15.0369  15.0518  15.0775  15.1569  15.1647
    15.1739  15.1875  15.2204  15.2683  15.3116  15.3295  15.3605  15.4621
    15.4751  15.4839  15.5264  15.5878  15.6327  15.6505  15.6544  15.7473
    15.7504  15.7616  15.7784  15.7926  15.8435  15.9022  15.9152  15.9576
    15.9597  15.9697  16.0564  16.1110  16.1528  16.1597  16.2065  16.2183
    16.2292  16.2356  16.2541  16.2780  16.3107  16.3324  16.3350  16.3630
    16.3893  16.4179  16.4674  16.4862  16.5188  16.5339  16.5376  16.5378
    16.5746  16.5906  16.5909  16.6021  16.6211  16.7221  16.8016  16.8262
    16.8509  16.8640  16.8915  16.9816  16.9915  17.0859  17.1002  17.1150
    17.1871  17.2047  17.2238  17.2961  17.2973  17.3760  17.3777  17.4864
    17.4993  17.5180  17.5289  17.5755  17.6219  17.7054  17.7594  17.7606
    17.7789  17.8559  17.8665  17.8822  17.9147  17.9594  17.9983  18.0031
    18.0282  18.0739  18.0790  18.1183  18.1269  18.1365  18.1385  18.1485
    18.1555  18.1864  18.2580  18.2958  18.3208  18.3526  18.3824  18.4481
    18.4574  18.4842  18.4885  18.4941  18.5025  18.5200  18.5223  18.6075
    18.6235  18.6383  18.7338  18.8125  18.8450  18.8674  18.9440  18.9642
    19.0326  19.0715  19.0733  19.0745  19.1599  19.1714  19.1716  19.1775
    19.2135  19.2171  19.2502  19.3338  19.3402  19.3481  19.3497  19.6225
    19.8252  19.9905  20.3460  20.4516  20.4848  20.8518  20.9807  21.3707
    21.5696  21.8642  21.9331  22.0917  22.4698  22.6330  22.9088  23.1767
    23.5496  23.7380  25.2576  25.4213  25.9191  26.1497  26.2691  26.4233
    26.4410  26.9197  27.0976  27.1336  27.1570  27.6246  27.6343  28.2892
    28.3822  28.6487  28.8205  29.0035  29.1131  29.1860  29.4539  29.6277
    29.8062  29.9065  29.9217  30.0643  30.1544  30.4024  30.4918  30.5201
    30.7365  30.7923

          k = 0.0556 0.2778 0.2771 ( 33081 PWs)   bands (ev):

   -64.9218 -64.9073 -64.9071 -64.8962 -64.8956 -64.8905 -64.8879 -64.8879
   -64.8843 -64.8842 -64.8839 -64.8819 -64.8815 -64.8815 -64.8773 -64.8772
   -64.8771 -64.8769 -64.8746 -64.8745 -64.8732 -64.8732 -64.8694 -64.8673
   -64.8671 -64.8670 -64.8669 -64.8664 -64.8660 -64.8650 -64.8649 -64.8640
   -30.7944 -30.7943 -30.7805 -30.7725 -30.7717 -30.7683 -30.7676 -30.7445
   -30.7438 -30.7430 -30.7420 -30.7309 -30.7297 -30.7230 -30.7223 -30.7200
   -30.7196 -30.7175 -30.7166 -30.7147 -30.7140 -30.7052 -30.7042 -30.7032
   -30.6993 -30.6985 -30.6710 -30.6654 -30.6592 -30.6580 -30.6509 -30.6508
   -30.6434 -30.6420 -30.6352 -30.6333 -30.6082 -30.6064 -30.6062 -30.5959
   -30.5957 -30.5949 -30.5937 -30.5853 -30.5829 -30.5712 -30.5707 -30.5703
   -30.5696 -30.5693 -30.5683 -30.5679 -30.5645 -30.5637 -30.5558 -30.5555
   -30.5493 -30.5475 -30.5468 -30.5465 -30.5336 -30.5335 -30.5334 -30.5333
   -30.5288 -30.5285 -30.5265 -30.5262 -30.5176 -30.5176 -30.5158 -30.5152
   -30.5144 -30.5140 -30.5132 -30.5127 -30.5038 -30.5035 -30.5023 -30.5017
   -30.5001 -30.4996 -30.4945 -30.4934 -30.4927 -30.4921 -30.4877 -30.4871
   -30.4834 -30.4831 -30.4827 -30.4706 -30.4705 -30.4676 -30.4528 -30.4439
    12.6757  13.7872  13.7923  14.2011  14.2416  14.2447  14.2448  14.2692
    14.3964  14.3965  14.4790  14.4850  14.4856  14.5549  14.6111  14.6533
    14.6564  14.6609  14.7022  14.7023  14.8149  14.8174  14.8186  14.8189
    14.8998  14.9052  14.9234  14.9282  15.0912  15.0924  15.0926  15.0975
    15.0990  15.1973  15.1978  15.2306  15.2309  15.2711  15.2713  15.3514
    15.3515  15.4320  15.5471  15.5477  15.5528  15.5544  15.5798  15.7580
    15.7697  15.7923  15.7948  15.8047  15.8049  15.8123  15.8173  16.0621
    16.0673  16.1316  16.1352  16.2222  16.2247  16.2251  16.2333  16.2666
    16.2673  16.2779  16.2983  16.2995  16.3228  16.4165  16.4420  16.4459
    16.4471  16.5342  16.5384  16.5446  16.5761  16.5991  16.6230  16.6396
    16.6427  16.6445  16.6890  16.6931  16.6995  16.7038  16.7180  16.7535
    16.8518  16.8549  16.8726  16.8799  17.0322  17.0449  17.0848  17.0986
    17.1685  17.1793  17.2248  17.2633  17.3170  17.3244  17.3483  17.3552
    17.3645  17.3716  17.4338  17.4369  17.5803  17.5817  17.7130  17.8023
    17.8033  17.8160  17.8164  17.8201  17.8504  17.9325  17.9343  18.0126
    18.0488  18.1024  18.1042  18.1585  18.1604  18.2045  18.2051  18.2442
    18.2490  18.3553  18.3554  18.3555  18.3629  18.3794  18.3796  18.3797
    18.3852  18.4298  18.4299  18.5850  18.6278  18.6536  18.6558  18.6628
    18.6629  18.6638  18.6656  18.7669  18.7690  18.8101  18.9285  18.9299
    19.0055  19.0781  19.0799  19.0992  19.1094  19.1099  19.2055  19.2114
    19.2156  19.2199  19.2363  19.2424  19.2764  19.2919  19.5980  19.6159
    19.6232  19.9192  19.9268  20.3060  20.3968  20.4068  21.5785  21.5842
    21.9580  21.9598  22.2973  22.3290  22.6013  22.6228  23.1286  23.1504
    23.9521  24.3642  24.6459  24.6675  25.9080  25.9298  26.2666  26.2687
    26.4108  26.4238  26.8600  26.8821  27.4818  27.4965  27.6668  27.7807
    27.8100  28.1944  28.2962  28.3261  28.4076  29.5066  29.6880  29.7073
    29.8473  29.8473  30.2499  30.2830  30.5163  30.5339  30.6901  30.6923
    30.8542  30.9169

          k = 0.0556 0.2778 0.3879 ( 33102 PWs)   bands (ev):

   -64.9192 -64.9118 -64.9052 -64.8996 -64.8942 -64.8902 -64.8894 -64.8872
   -64.8861 -64.8851 -64.8838 -64.8823 -64.8808 -64.8784 -64.8773 -64.8764
   -64.8759 -64.8749 -64.8739 -64.8738 -64.8722 -64.8713 -64.8699 -64.8684
   -64.8683 -64.8680 -64.8680 -64.8670 -64.8661 -64.8657 -64.8648 -64.8640
   -30.7866 -30.7857 -30.7672 -30.7628 -30.7616 -30.7611 -30.7590 -30.7576
   -30.7553 -30.7427 -30.7411 -30.7409 -30.7382 -30.7345 -30.7293 -30.7287
   -30.7285 -30.7222 -30.7212 -30.7204 -30.7151 -30.7118 -30.7045 -30.7036
   -30.7021 -30.6885 -30.6797 -30.6778 -30.6686 -30.6568 -30.6453 -30.6403
   -30.6366 -30.6260 -30.6246 -30.6197 -30.6196 -30.6180 -30.6092 -30.6058
   -30.5944 -30.5868 -30.5849 -30.5808 -30.5769 -30.5765 -30.5706 -30.5690
   -30.5670 -30.5640 -30.5639 -30.5584 -30.5577 -30.5576 -30.5535 -30.5468
   -30.5466 -30.5450 -30.5449 -30.5443 -30.5420 -30.5368 -30.5342 -30.5329
   -30.5316 -30.5293 -30.5254 -30.5251 -30.5233 -30.5208 -30.5207 -30.5205
   -30.5142 -30.5126 -30.5118 -30.5094 -30.5071 -30.5070 -30.5069 -30.5068
   -30.5006 -30.5000 -30.4978 -30.4961 -30.4947 -30.4940 -30.4939 -30.4894
   -30.4846 -30.4844 -30.4763 -30.4663 -30.4644 -30.4605 -30.4589 -30.4468
    12.8792  13.4492  13.9488  14.2726  14.3386  14.3416  14.3534  14.3706
    14.3752  14.5247  14.5256  14.5274  14.5372  14.5618  14.5642  14.6071
    14.6295  14.6353  14.6388  14.6835  14.6945  14.7182  14.7696  14.7837
    14.8024  14.8552  14.8814  14.8939  14.9652  14.9901  15.0170  15.0288
    15.0635  15.1625  15.1672  15.2023  15.2474  15.2734  15.2765  15.3276
    15.3411  15.3885  15.4182  15.4550  15.4934  15.6024  15.6447  15.6640
    15.6803  15.7321  15.7960  15.8252  15.8476  15.8722  15.9184  16.0296
    16.0450  16.0480  16.1329  16.1811  16.1923  16.2510  16.2983  16.3027
    16.3384  16.3427  16.3462  16.3752  16.4110  16.4388  16.4564  16.5387
    16.5490  16.5888  16.6118  16.6147  16.6222  16.6455  16.6563  16.6888
    16.6920  16.6992  16.7074  16.7951  16.7979  16.8134  16.8217  16.8304
    16.8452  16.9224  16.9231  16.9261  17.0022  17.0235  17.0775  17.0926
    17.1112  17.1541  17.1643  17.1841  17.1866  17.2221  17.2531  17.3441
    17.4579  17.4597  17.4855  17.4923  17.5049  17.5170  17.5706  17.5921
    17.6301  17.6586  17.7191  17.7352  17.7402  17.8292  17.9911  18.0353
    18.0473  18.0623  18.0701  18.0780  18.2016  18.2063  18.2212  18.2360
    18.2427  18.2817  18.3880  18.4088  18.4098  18.4195  18.4770  18.4911
    18.4919  18.5659  18.5928  18.6269  18.6316  18.6935  18.7169  18.7888
    18.8002  18.8005  18.8126  18.8134  18.8262  18.8263  18.8549  18.8762
    18.9695  19.0215  19.0250  19.0264  19.0307  19.0340  19.0368  19.0440
    19.0973  19.1671  19.2211  19.2235  19.2343  19.2540  19.5246  19.6092
    19.8341  19.9671  20.1027  20.1895  20.2527  20.3463  21.0848  21.5840
    22.2574  22.2717  22.4730  22.5811  22.8780  23.0606  23.3459  23.8174
    23.8547  24.0669  24.4762  25.0308  25.0467  25.4278  25.7310  26.2813
    26.4696  26.5715  26.7194  26.8547  27.0531  27.1179  27.3709  27.5174
    27.8324  27.8698  28.0513  28.2647  28.8247  29.1519  29.6981  29.8267
    29.9038  29.9385  30.0284  30.1104  30.1872  30.2811  30.8287  30.8422
    30.9974  31.0774

          k = 0.0556 0.2778-0.4988 ( 33106 PWs)   bands (ev):

   -64.9162 -64.9154 -64.9030 -64.9023 -64.8928 -64.8920 -64.8883 -64.8875
   -64.8866 -64.8859 -64.8835 -64.8827 -64.8801 -64.8793 -64.8760 -64.8752
   -64.8752 -64.8744 -64.8737 -64.8729 -64.8713 -64.8705 -64.8705 -64.8699
   -64.8697 -64.8691 -64.8672 -64.8670 -64.8664 -64.8662 -64.8648 -64.8640
   -30.7755 -30.7753 -30.7738 -30.7735 -30.7534 -30.7526 -30.7520 -30.7517
   -30.7513 -30.7512 -30.7407 -30.7403 -30.7398 -30.7391 -30.7366 -30.7366
   -30.7360 -30.7358 -30.7262 -30.7258 -30.7081 -30.7076 -30.7071 -30.7065
   -30.6915 -30.6911 -30.6776 -30.6776 -30.6729 -30.6726 -30.6321 -30.6318
   -30.6295 -30.6292 -30.6229 -30.6226 -30.6171 -30.6163 -30.6064 -30.6056
   -30.6056 -30.6054 -30.5701 -30.5695 -30.5686 -30.5685 -30.5678 -30.5678
   -30.5651 -30.5649 -30.5640 -30.5638 -30.5585 -30.5583 -30.5558 -30.5550
   -30.5454 -30.5449 -30.5433 -30.5432 -30.5367 -30.5363 -30.5362 -30.5359
   -30.5282 -30.5274 -30.5251 -30.5246 -30.5214 -30.5212 -30.5202 -30.5199
   -30.5147 -30.5140 -30.5105 -30.5100 -30.5097 -30.5093 -30.5093 -30.5089
   -30.5040 -30.5032 -30.5009 -30.5005 -30.4961 -30.4953 -30.4885 -30.4882
   -30.4871 -30.4863 -30.4673 -30.4665 -30.4642 -30.4640 -30.4526 -30.4523
    13.1401  13.1411  14.1448  14.1456  14.3812  14.3813  14.4497  14.4506
    14.4738  14.4738  14.4739  14.4743  14.5366  14.5375  14.5788  14.5792
    14.6617  14.6626  14.6899  14.6900  14.7051  14.7052  14.7232  14.7234
    14.7672  14.7681  14.8672  14.8677  14.9118  14.9119  14.9747  14.9753
    15.1495  15.1503  15.1655  15.1660  15.2422  15.2424  15.3075  15.3077
    15.3161  15.3169  15.4960  15.4967  15.5295  15.5296  15.5454  15.5461
    15.8124  15.8125  15.8173  15.8178  15.9230  15.9233  15.9312  15.9318
    15.9545  15.9552  16.0617  16.0622  16.2776  16.2782  16.3629  16.3635
    16.3764  16.3766  16.3989  16.3995  16.4469  16.4472  16.4682  16.4683
    16.5152  16.5154  16.6590  16.6591  16.7070  16.7076  16.7170  16.7172
    16.7406  16.7406  16.7701  16.7707  16.7763  16.7770  16.7839  16.7842
    16.9422  16.9425  16.9694  16.9698  17.1171  17.1175  17.1217  17.1218
    17.1258  17.1263  17.2010  17.2011  17.2167  17.2168  17.2297  17.2300
    17.2776  17.2781  17.5360  17.5366  17.5443  17.5446  17.5959  17.5964
    17.6247  17.6252  17.6430  17.6437  17.6583  17.6585  17.9413  17.9420
    17.9453  17.9458  18.1411  18.1418  18.1597  18.1603  18.1737  18.1744
    18.3344  18.3351  18.4625  18.4632  18.4652  18.4659  18.5878  18.5885
    18.6101  18.6107  18.6543  18.6543  18.7035  18.7037  18.7039  18.7041
    18.8227  18.8232  18.8506  18.8507  18.8741  18.8744  18.9215  18.9218
    18.9236  18.9239  18.9388  18.9390  18.9449  18.9450  18.9618  18.9619
    19.1575  19.1576  19.2277  19.2284  19.2324  19.2329  19.5575  19.5577
    19.7194  19.7201  20.2838  20.2845  20.5907  20.5910  20.8608  20.8613
    22.4750  22.4757  22.8479  22.8485  23.0096  23.0100  23.4651  23.4657
    24.1607  24.1610  24.6375  24.6377  25.0786  25.0793  25.7903  25.7905
    26.5373  26.5374  26.8937  26.8939  26.9887  26.9894  27.2991  27.2998
    27.4612  27.4620  28.6158  28.6158  28.9442  28.9444  29.5218  29.5219
    29.8451  29.8460  29.9875  29.9884  30.4117  30.4125  30.5889  30.5890
    31.2427  31.2434

          k = 0.0556 0.3889 0.0554 ( 33070 PWs)   bands (ev):

   -64.9218 -64.9140 -64.8957 -64.8955 -64.8914 -64.8912 -64.8907 -64.8904
   -64.8870 -64.8869 -64.8824 -64.8816 -64.8799 -64.8799 -64.8798 -64.8796
   -64.8785 -64.8778 -64.8776 -64.8715 -64.8714 -64.8703 -64.8702 -64.8698
   -64.8673 -64.8671 -64.8668 -64.8666 -64.8646 -64.8644 -64.8641 -64.8640
   -30.7897 -30.7856 -30.7855 -30.7796 -30.7716 -30.7708 -30.7609 -30.7588
   -30.7533 -30.7531 -30.7459 -30.7455 -30.7454 -30.7197 -30.7169 -30.7160
   -30.7118 -30.7111 -30.7100 -30.7099 -30.7005 -30.7002 -30.6837 -30.6819
   -30.6759 -30.6747 -30.6660 -30.6642 -30.6607 -30.6606 -30.6593 -30.6592
   -30.6552 -30.6541 -30.6391 -30.6378 -30.6368 -30.6355 -30.6253 -30.6252
   -30.5995 -30.5990 -30.5809 -30.5803 -30.5793 -30.5780 -30.5689 -30.5664
   -30.5619 -30.5542 -30.5541 -30.5534 -30.5532 -30.5529 -30.5527 -30.5515
   -30.5514 -30.5514 -30.5492 -30.5403 -30.5399 -30.5396 -30.5313 -30.5313
   -30.5281 -30.5279 -30.5274 -30.5273 -30.5258 -30.5204 -30.5192 -30.5191
   -30.5186 -30.5185 -30.5113 -30.5028 -30.5023 -30.4993 -30.4979 -30.4954
   -30.4953 -30.4952 -30.4950 -30.4939 -30.4936 -30.4908 -30.4895 -30.4893
   -30.4892 -30.4820 -30.4816 -30.4760 -30.4699 -30.4689 -30.4526 -30.4516
    12.6793  13.2757  14.1994  14.2720  14.2722  14.2809  14.3332  14.3333
    14.3706  14.4206  14.4447  14.5311  14.5325  14.5603  14.5670  14.6092
    14.6096  14.6186  14.6796  14.6900  14.6901  14.7420  14.7599  14.7666
    14.9012  14.9044  14.9079  14.9117  15.1068  15.1106  15.1984  15.2023
    15.2519  15.2582  15.3196  15.3245  15.3412  15.3437  15.4765  15.4824
    15.5363  15.5377  15.5434  15.5436  15.6417  15.6418  15.6807  15.6828
    15.6977  15.7029  15.7381  15.7428  15.7835  15.7917  15.9119  15.9276
    15.9295  15.9611  15.9624  16.0746  16.1111  16.1115  16.1185  16.1192
    16.1483  16.1528  16.2122  16.2179  16.2530  16.2667  16.2751  16.2953
    16.2970  16.3522  16.4244  16.4253  16.5627  16.6037  16.6125  16.6255
    16.6323  16.6447  16.6628  16.6654  16.6711  16.6746  16.8242  16.8666
    16.8738  16.9047  16.9210  16.9215  17.1044  17.1064  17.1080  17.1223
    17.3414  17.3534  17.4813  17.4835  17.4917  17.5066  17.5087  17.6757
    17.6768  17.7114  17.7126  17.7199  17.7221  17.7358  17.7391  17.7503
    17.7731  17.7744  17.8581  17.8594  17.8921  17.8993  17.9008  17.9032
    17.9035  17.9143  17.9172  17.9315  17.9331  18.0155  18.0617  18.1310
    18.1317  18.1961  18.2723  18.2851  18.3719  18.3726  18.4059  18.4453
    18.5275  18.5299  18.5306  18.5884  18.5958  18.5961  18.6173  18.6179
    18.7696  18.7697  18.7849  18.8761  18.8836  18.8880  18.9143  18.9144
    18.9229  18.9237  18.9635  19.0266  19.0283  19.0334  19.0343  19.1007
    19.2187  19.2227  19.3588  19.4035  19.4046  19.4084  19.4089  19.6176
    19.6233  20.0254  20.0354  20.4338  20.7239  20.8420  20.9829  20.9838
    21.2615  21.2625  21.4515  21.7965  23.3217  23.3421  23.8678  23.8812
    23.8903  23.9242  24.9452  24.9655  25.2435  25.2861  25.4927  25.5148
    26.7927  27.2086  27.2105  27.6911  27.9998  28.1320  28.1582  28.5289
    28.5310  28.7895  28.8148  29.0473  29.0784  29.0826  29.4361  29.4665
    29.5624  29.6202  29.6576  29.6882  30.1009  30.1200  30.1441  30.1547
    30.3279  30.3759

          k = 0.0556 0.3889 0.1663 ( 33088 PWs)   bands (ev):

   -64.9209 -64.9132 -64.9006 -64.8956 -64.8950 -64.8909 -64.8901 -64.8867
   -64.8857 -64.8848 -64.8834 -64.8828 -64.8818 -64.8811 -64.8780 -64.8774
   -64.8774 -64.8771 -64.8758 -64.8725 -64.8717 -64.8706 -64.8697 -64.8691
   -64.8676 -64.8676 -64.8673 -64.8662 -64.8654 -64.8652 -64.8643 -64.8641
   -30.7901 -30.7875 -30.7779 -30.7702 -30.7686 -30.7675 -30.7613 -30.7593
   -30.7575 -30.7449 -30.7441 -30.7432 -30.7349 -30.7271 -30.7251 -30.7204
   -30.7201 -30.7196 -30.7184 -30.7145 -30.7054 -30.7019 -30.6976 -30.6917
   -30.6819 -30.6794 -30.6747 -30.6701 -30.6671 -30.6585 -30.6498 -30.6449
   -30.6443 -30.6440 -30.6387 -30.6331 -30.6262 -30.6229 -30.6227 -30.6110
   -30.6080 -30.5967 -30.5758 -30.5754 -30.5741 -30.5740 -30.5729 -30.5724
   -30.5667 -30.5655 -30.5635 -30.5556 -30.5546 -30.5524 -30.5517 -30.5504
   -30.5478 -30.5466 -30.5438 -30.5419 -30.5341 -30.5333 -30.5302 -30.5300
   -30.5296 -30.5293 -30.5291 -30.5270 -30.5266 -30.5264 -30.5263 -30.5158
   -30.5139 -30.5134 -30.5070 -30.5061 -30.5056 -30.5048 -30.5043 -30.5031
   -30.5022 -30.5009 -30.4954 -30.4942 -30.4938 -30.4910 -30.4890 -30.4859
   -30.4858 -30.4825 -30.4769 -30.4722 -30.4721 -30.4651 -30.4548 -30.4487
    12.7469  13.3355  14.2469  14.2605  14.2713  14.2936  14.3077  14.3276
    14.4161  14.4389  14.4704  14.4843  14.5494  14.5573  14.5639  14.5881
    14.6153  14.6479  14.6492  14.6530  14.7154  14.7295  14.7782  14.7890
    14.8099  14.8341  14.9248  14.9428  14.9591  15.0401  15.1535  15.1681
    15.1729  15.1933  15.2331  15.2888  15.2930  15.4162  15.4276  15.4480
    15.4766  15.4943  15.5523  15.5700  15.5857  15.5958  15.5974  15.6054
    15.6342  15.6837  15.7379  15.7701  15.7772  15.8372  15.9197  15.9395
    15.9726  16.0183  16.1250  16.1343  16.1608  16.1863  16.2066  16.2079
    16.2090  16.2124  16.2546  16.3020  16.3061  16.3115  16.3303  16.3505
    16.4029  16.4272  16.4438  16.5631  16.5743  16.6238  16.6280  16.6468
    16.6524  16.6606  16.6989  16.7061  16.7234  16.7869  16.7914  16.8003
    16.8878  16.9030  16.9065  16.9895  17.0165  17.0386  17.0763  17.0964
    17.2561  17.2735  17.2957  17.3114  17.3224  17.3434  17.4412  17.5324
    17.5341  17.5519  17.6157  17.6642  17.7128  17.7270  17.7365  17.7366
    17.7565  17.7615  17.8111  17.8431  17.8821  17.9055  17.9104  17.9158
    17.9729  17.9812  18.0251  18.0515  18.0809  18.1336  18.1591  18.1664
    18.2008  18.2032  18.2103  18.3430  18.3612  18.3639  18.3911  18.3977
    18.5072  18.5479  18.5891  18.6181  18.6564  18.6774  18.6825  18.6893
    18.6932  18.6966  18.7221  18.7866  18.7868  18.8858  18.8901  18.9168
    18.9424  18.9826  18.9828  19.0286  19.0288  19.0357  19.0394  19.1239
    19.1992  19.2700  19.3338  19.3394  19.3418  19.3456  19.5915  19.6025
    19.7271  19.9731  20.0135  20.2506  20.5090  20.5783  20.7797  21.1462
    21.6043  21.8737  21.9609  22.3900  22.7907  23.3574  23.4862  23.8973
    24.1200  24.3939  24.4399  24.7653  25.0146  25.4437  25.5406  26.0436
    26.4729  26.7990  27.3780  27.4868  27.5126  27.7030  27.9248  28.0157
    28.1811  28.2314  28.4523  28.7204  28.8762  29.0987  29.4365  29.5284
    29.6696  29.8182  29.8535  30.0017  30.0315  30.2695  30.2936  30.3336
    30.4027  30.6790

          k = 0.0556 0.3889 0.2771 ( 33100 PWs)   bands (ev):

   -64.9192 -64.9117 -64.9053 -64.8997 -64.8942 -64.8903 -64.8894 -64.8872
   -64.8862 -64.8851 -64.8837 -64.8824 -64.8810 -64.8787 -64.8770 -64.8763
   -64.8759 -64.8750 -64.8739 -64.8736 -64.8721 -64.8713 -64.8696 -64.8683
   -64.8681 -64.8680 -64.8680 -64.8671 -64.8667 -64.8657 -64.8647 -64.8642
   -30.7866 -30.7855 -30.7671 -30.7627 -30.7607 -30.7607 -30.7584 -30.7575
   -30.7562 -30.7417 -30.7416 -30.7415 -30.7377 -30.7339 -30.7297 -30.7297
   -30.7286 -30.7221 -30.7215 -30.7211 -30.7156 -30.7111 -30.7052 -30.7027
   -30.7023 -30.6893 -30.6799 -30.6782 -30.6694 -30.6571 -30.6443 -30.6405
   -30.6366 -30.6277 -30.6245 -30.6192 -30.6182 -30.6177 -30.6093 -30.6072
   -30.5921 -30.5865 -30.5845 -30.5794 -30.5787 -30.5767 -30.5703 -30.5690
   -30.5674 -30.5646 -30.5644 -30.5605 -30.5574 -30.5558 -30.5531 -30.5468
   -30.5461 -30.5453 -30.5445 -30.5445 -30.5419 -30.5363 -30.5341 -30.5328
   -30.5314 -30.5292 -30.5246 -30.5245 -30.5230 -30.5208 -30.5205 -30.5199
   -30.5140 -30.5135 -30.5124 -30.5088 -30.5077 -30.5072 -30.5072 -30.5065
   -30.5006 -30.4992 -30.4985 -30.4957 -30.4947 -30.4941 -30.4940 -30.4902
   -30.4852 -30.4842 -30.4768 -30.4662 -30.4644 -30.4605 -30.4591 -30.4468
    12.8802  13.4529  13.9449  14.2728  14.3395  14.3422  14.3536  14.3696
    14.3763  14.5251  14.5259  14.5276  14.5375  14.5632  14.5673  14.6067
    14.6299  14.6370  14.6392  14.6839  14.6943  14.7221  14.7698  14.7871
    14.7993  14.8544  14.8824  14.8948  14.9654  14.9905  15.0127  15.0246
    15.0636  15.1619  15.1665  15.2009  15.2473  15.2723  15.2773  15.3271
    15.3395  15.3868  15.4181  15.4547  15.4934  15.6020  15.6457  15.6629
    15.6786  15.7314  15.7867  15.8222  15.8510  15.8725  15.9306  16.0340
    16.0438  16.0484  16.1305  16.1893  16.1955  16.2592  16.2981  16.3082
    16.3330  16.3356  16.3402  16.3885  16.4193  16.4297  16.4525  16.5419
    16.5452  16.5884  16.6078  16.6099  16.6137  16.6472  16.6478  16.6831
    16.6918  16.6941  16.7041  16.7896  16.7929  16.8152  16.8163  16.8373
    16.8482  16.9091  16.9143  16.9265  16.9952  17.0114  17.0890  17.1038
    17.1070  17.1443  17.1682  17.1776  17.1889  17.2315  17.2568  17.3479
    17.4633  17.4633  17.4841  17.4975  17.5044  17.5160  17.5770  17.5957
    17.6289  17.6628  17.7204  17.7371  17.7477  17.8298  17.9889  18.0346
    18.0504  18.0551  18.0732  18.0784  18.2038  18.2066  18.2251  18.2340
    18.2381  18.2836  18.3878  18.4083  18.4104  18.4217  18.4770  18.4893
    18.4953  18.5656  18.5947  18.6289  18.6323  18.6930  18.7187  18.7878
    18.8019  18.8021  18.8119  18.8124  18.8264  18.8272  18.8567  18.8798
    18.9697  19.0244  19.0257  19.0267  19.0325  19.0358  19.0403  19.0511
    19.1010  19.1701  19.2115  19.2155  19.2273  19.2485  19.5297  19.6041
    19.8269  19.9748  20.0958  20.2032  20.2485  20.3374  21.0787  21.6104
    22.2642  22.2667  22.4699  22.5629  22.8500  23.0436  23.3704  23.8351
    23.8785  24.0437  24.4798  25.0497  25.0593  25.4448  25.7412  26.2851
    26.4782  26.5790  26.7005  26.8480  27.0747  27.0867  27.3412  27.5408
    27.8293  27.8386  28.0394  28.2683  28.8282  29.1483  29.7106  29.8264
    29.9033  29.9376  30.0103  30.1098  30.2001  30.2933  30.7847  30.8291
    30.9827  31.0659

          k = 0.0556 0.3889 0.3879 ( 33119 PWs)   bands (ev):

   -64.9167 -64.9096 -64.9096 -64.9034 -64.8929 -64.8894 -64.8893 -64.8884
   -64.8867 -64.8856 -64.8854 -64.8835 -64.8767 -64.8764 -64.8750 -64.8748
   -64.8747 -64.8745 -64.8729 -64.8728 -64.8722 -64.8721 -64.8697 -64.8695
   -64.8693 -64.8692 -64.8688 -64.8683 -64.8670 -64.8654 -64.8652 -64.8644
   -30.7795 -30.7794 -30.7570 -30.7568 -30.7563 -30.7558 -30.7540 -30.7534
   -30.7516 -30.7507 -30.7421 -30.7407 -30.7405 -30.7383 -30.7373 -30.7301
   -30.7297 -30.7230 -30.7221 -30.7221 -30.7213 -30.7213 -30.7209 -30.7089
   -30.7068 -30.7063 -30.6920 -30.6774 -30.6730 -30.6569 -30.6564 -30.6313
   -30.6228 -30.6228 -30.6126 -30.6106 -30.6037 -30.5969 -30.5967 -30.5927
   -30.5911 -30.5909 -30.5908 -30.5877 -30.5855 -30.5690 -30.5670 -30.5630
   -30.5629 -30.5627 -30.5624 -30.5619 -30.5595 -30.5594 -30.5578 -30.5575
   -30.5551 -30.5548 -30.5421 -30.5418 -30.5399 -30.5396 -30.5394 -30.5346
   -30.5346 -30.5248 -30.5247 -30.5225 -30.5221 -30.5217 -30.5217 -30.5190
   -30.5136 -30.5131 -30.5129 -30.5121 -30.5121 -30.5099 -30.5065 -30.5029
   -30.5024 -30.4998 -30.4983 -30.4978 -30.4975 -30.4959 -30.4933 -30.4872
   -30.4867 -30.4835 -30.4832 -30.4654 -30.4595 -30.4575 -30.4575 -30.4476
    13.0754  13.6211  13.6237  14.0940  14.3179  14.4114  14.4224  14.4722
    14.4724  14.5039  14.5040  14.5057  14.6207  14.6208  14.6476  14.6651
    14.6651  14.6799  14.6810  14.6816  14.6822  14.7038  14.7058  14.8234
    14.8263  14.8395  14.8576  14.8921  14.8950  14.9967  14.9972  14.9996
    15.0005  15.0264  15.0266  15.0687  15.0689  15.2011  15.2019  15.2172
    15.2182  15.2445  15.2455  15.4815  15.4825  15.5287  15.7181  15.7199
    15.7231  15.7240  15.8213  15.8858  15.9242  15.9264  15.9269  15.9354
    15.9488  16.1365  16.2485  16.2497  16.3045  16.4253  16.4307  16.4390
    16.4685  16.4689  16.4721  16.4746  16.4767  16.4794  16.5108  16.5150
    16.5447  16.5581  16.6911  16.7032  16.7205  16.7250  16.7353  16.7598
    16.7706  16.7865  16.7890  16.8101  16.8110  16.8142  16.9192  16.9226
    16.9238  16.9272  16.9350  16.9371  16.9526  16.9566  17.0425  17.0520
    17.0530  17.0687  17.1490  17.1508  17.1514  17.2070  17.2503  17.2550
    17.2593  17.2693  17.2705  17.2852  17.2905  17.3101  17.3152  17.4676
    17.5745  17.5751  17.5977  17.5979  17.7000  17.7661  17.7684  17.8048
[...]
    23.9024  23.9025  23.9025  23.9025  26.0173  26.0177  26.0177  26.0179
    26.3712  26.3712  26.3713  26.3713  26.3713  26.3713  26.3713  26.3714
    27.1592  27.1595  27.1596  27.1596  29.7832  29.7834  29.7834  29.7836
    30.3213  30.3215  30.3215  30.3215  30.9118  30.9119  30.9119  30.9119
    31.4730  31.4732

          k =-0.5000-0.5000 0.1663 ( 33128 PWs)   bands (ev):

   -64.9099 -64.9097 -64.9096 -64.9095 -64.8940 -64.8938 -64.8938 -64.8936
   -64.8824 -64.8823 -64.8822 -64.8821 -64.8729 -64.8727 -64.8727 -64.8726
   -64.8723 -64.8720 -64.8720 -64.8719 -64.8719 -64.8718 -64.8717 -64.8716
   -64.8714 -64.8712 -64.8712 -64.8711 -64.8666 -64.8665 -64.8664 -64.8663
   -30.7602 -30.7602 -30.7602 -30.7602 -30.7601 -30.7601 -30.7601 -30.7601
   -30.7377 -30.7377 -30.7375 -30.7375 -30.7375 -30.7375 -30.7374 -30.7374
   -30.7361 -30.7359 -30.7358 -30.7357 -30.7336 -30.7335 -30.7335 -30.7334
   -30.6895 -30.6894 -30.6894 -30.6893 -30.6467 -30.6467 -30.6466 -30.6466
   -30.5908 -30.5908 -30.5908 -30.5908 -30.5908 -30.5908 -30.5907 -30.5906
   -30.5890 -30.5890 -30.5889 -30.5889 -30.5889 -30.5887 -30.5887 -30.5887
   -30.5712 -30.5712 -30.5711 -30.5711 -30.5498 -30.5497 -30.5497 -30.5496
   -30.5496 -30.5495 -30.5495 -30.5495 -30.5485 -30.5485 -30.5485 -30.5485
   -30.5288 -30.5287 -30.5287 -30.5286 -30.5271 -30.5271 -30.5271 -30.5270
   -30.5270 -30.5269 -30.5269 -30.5269 -30.5139 -30.5139 -30.5138 -30.5138
   -30.4885 -30.4885 -30.4885 -30.4885 -30.4837 -30.4836 -30.4836 -30.4835
   -30.4778 -30.4777 -30.4776 -30.4775 -30.4539 -30.4539 -30.4539 -30.4538
    13.5993  13.5998  13.5998  13.6002  14.2990  14.2992  14.2992  14.2993
    14.6411  14.6411  14.6411  14.6411  14.6464  14.6465  14.6465  14.6465
    14.7195  14.7195  14.7196  14.7196  14.7199  14.7199  14.7200  14.7200
    14.9187  14.9187  14.9187  14.9188  14.9189  14.9189  14.9189  14.9190
    15.0240  15.0241  15.0242  15.0242  15.0245  15.0245  15.0246  15.0246
    15.2152  15.2152  15.2153  15.2153  15.7151  15.7152  15.7155  15.7155
    15.7156  15.7156  15.7158  15.7158  16.0339  16.0342  16.0342  16.0344
    16.0517  16.0519  16.0519  16.0520  16.5304  16.5305  16.5305  16.5305
    16.6024  16.6024  16.6024  16.6024  16.6038  16.6040  16.6041  16.6041
    16.7695  16.7697  16.7697  16.7699  16.7731  16.7731  16.7731  16.7731
    16.7731  16.7731  16.7733  16.7733  16.8065  16.8065  16.8066  16.8066
    16.8418  16.8419  16.8419  16.8421  17.0920  17.0921  17.0921  17.0922
    17.0922  17.0923  17.0923  17.0924  17.1243  17.1244  17.1244  17.1245
    17.2127  17.2129  17.2129  17.2132  17.3293  17.3294  17.3294  17.3295
    17.3295  17.3295  17.3296  17.3297  17.6610  17.6611  17.6611  17.6612
    18.1371  18.1372  18.1373  18.1374  18.2770  18.2770  18.2771  18.2771
    18.2772  18.2772  18.2773  18.2773  18.2833  18.2834  18.2835  18.2836
    18.6086  18.6086  18.6087  18.6088  18.6717  18.6718  18.6718  18.6719
    19.0230  19.0230  19.0231  19.0231  19.0232  19.0232  19.0232  19.0233
    19.0468  19.0468  19.0468  19.0468  19.0468  19.0468  19.0469  19.0469
    19.0573  19.0575  19.0575  19.0576  19.0817  19.0818  19.0818  19.0819
    20.3286  20.3288  20.3289  20.3290  22.0450  22.0450  22.0451  22.0451
    22.0453  22.0453  22.0454  22.0454  23.7293  23.7293  23.7294  23.7294
    23.7295  23.7295  23.7296  23.7296  25.4237  25.4240  25.4241  25.4243
    26.6093  26.6093  26.6095  26.6095  26.6095  26.6095  26.6096  26.6096
    27.2903  27.2906  27.2907  27.2907  29.7497  29.7499  29.7499  29.7499
    30.4182  30.4183  30.4183  30.4185  30.5837  30.5837  30.5839  30.5840
    30.5840  30.5840

          k =-0.5000-0.5000 0.2771 ( 33064 PWs)   bands (ev):

   -64.9085 -64.9084 -64.9083 -64.9082 -64.8976 -64.8975 -64.8974 -64.8973
   -64.8788 -64.8786 -64.8785 -64.8784 -64.8729 -64.8727 -64.8727 -64.8726
   -64.8723 -64.8720 -64.8720 -64.8719 -64.8719 -64.8718 -64.8717 -64.8716
   -64.8714 -64.8712 -64.8712 -64.8711 -64.8679 -64.8678 -64.8677 -64.8676
   -30.7575 -30.7575 -30.7574 -30.7574 -30.7574 -30.7574 -30.7573 -30.7573
   -30.7421 -30.7420 -30.7420 -30.7419 -30.7417 -30.7416 -30.7416 -30.7415
   -30.7408 -30.7407 -30.7406 -30.7406 -30.7406 -30.7406 -30.7405 -30.7405
   -30.6700 -30.6699 -30.6699 -30.6698 -30.6308 -30.6308 -30.6308 -30.6308
   -30.5908 -30.5908 -30.5907 -30.5907 -30.5907 -30.5907 -30.5906 -30.5906
   -30.5896 -30.5896 -30.5895 -30.5894 -30.5894 -30.5894 -30.5893 -30.5893
   -30.5869 -30.5869 -30.5868 -30.5868 -30.5484 -30.5483 -30.5483 -30.5483
   -30.5462 -30.5462 -30.5461 -30.5461 -30.5460 -30.5460 -30.5460 -30.5459
   -30.5456 -30.5456 -30.5455 -30.5455 -30.5295 -30.5295 -30.5295 -30.5294
   -30.5294 -30.5293 -30.5293 -30.5293 -30.5218 -30.5218 -30.5218 -30.5218
   -30.4805 -30.4805 -30.4805 -30.4805 -30.4748 -30.4747 -30.4746 -30.4746
   -30.4725 -30.4724 -30.4723 -30.4722 -30.4567 -30.4567 -30.4567 -30.4567
    13.6666  13.6671  13.6671  13.6675  14.1565  14.1568  14.1568  14.1570
    14.6760  14.6760  14.6760  14.6760  14.6968  14.6968  14.6968  14.6968
    14.6971  14.6971  14.6972  14.6972  14.7012  14.7012  14.7013  14.7013
    14.8498  14.8498  14.8499  14.8499  14.8501  14.8501  14.8501  14.8501
    15.1625  15.1625  15.1625  15.1625  15.1629  15.1629  15.1629  15.1629
    15.2712  15.2713  15.2713  15.2713  15.7038  15.7039  15.7042  15.7042
    15.7043  15.7043  15.7045  15.7045  15.8303  15.8306  15.8306  15.8308
    16.1441  16.1443  16.1443  16.1444  16.5431  16.5433  16.5433  16.5434
    16.6761  16.6761  16.6761  16.6761  16.6801  16.6803  16.6803  16.6804
    16.7528  16.7529  16.7529  16.7531  16.7537  16.7537  16.7537  16.7538
    16.7570  16.7570  16.7571  16.7571  16.7571  16.7571  16.7572  16.7573
    16.7945  16.7945  16.7945  16.7948  17.0595  17.0595  17.0596  17.0597
    17.0597  17.0597  17.0598  17.0599  17.1294  17.1296  17.1296  17.1298
    17.2766  17.2767  17.2767  17.2768  17.4046  17.4046  17.4046  17.4047
    17.4047  17.4047  17.4048  17.4049  17.7894  17.7895  17.7896  17.7897
    17.9873  17.9874  17.9874  17.9875  18.0206  18.0206  18.0206  18.0207
    18.0207  18.0208  18.0208  18.0209  18.2310  18.2311  18.2312  18.2312
    18.2911  18.2911  18.2912  18.2913  18.4961  18.4962  18.4962  18.4963
    19.1092  19.1092  19.1092  19.1092  19.1093  19.1093  19.1093  19.1093
    19.1253  19.1254  19.1254  19.1255  19.1482  19.1482  19.1482  19.1482
    19.1483  19.1483  19.1483  19.1484  19.1604  19.1604  19.1605  19.1605
    21.0808  21.0811  21.0811  21.0813  22.2272  22.2272  22.2274  22.2274
    22.2275  22.2275  22.2276  22.2276  23.4483  23.4483  23.4483  23.4483
    23.4485  23.4485  23.4485  23.4486  24.5813  24.5816  24.5816  24.5818
    27.0262  27.0262  27.0264  27.0264  27.0265  27.0265  27.0266  27.0266
    27.5192  27.5194  27.5195  27.5195  29.2040  29.2042  29.2042  29.2042
    29.7304  29.7304  29.7304  29.7304  29.7306  29.7307  29.7307  29.7307
    31.3668  31.3669

          k =-0.5000-0.5000 0.3879 ( 33108 PWs)   bands (ev):

   -64.9066 -64.9064 -64.9063 -64.9062 -64.9010 -64.9009 -64.9008 -64.9007
   -64.8754 -64.8753 -64.8752 -64.8751 -64.8729 -64.8727 -64.8727 -64.8726
   -64.8723 -64.8720 -64.8720 -64.8719 -64.8719 -64.8718 -64.8717 -64.8716
   -64.8714 -64.8712 -64.8712 -64.8711 -64.8698 -64.8697 -64.8696 -64.8695
   -30.7537 -30.7537 -30.7537 -30.7536 -30.7536 -30.7536 -30.7536 -30.7535
   -30.7471 -30.7469 -30.7469 -30.7468 -30.7465 -30.7464 -30.7463 -30.7462
   -30.7448 -30.7448 -30.7447 -30.7447 -30.7447 -30.7446 -30.7446 -30.7446
   -30.6490 -30.6489 -30.6489 -30.6489 -30.6116 -30.6116 -30.6115 -30.6115
   -30.6063 -30.6063 -30.6063 -30.6062 -30.5908 -30.5908 -30.5907 -30.5907
   -30.5907 -30.5907 -30.5906 -30.5905 -30.5901 -30.5900 -30.5900 -30.5900
   -30.5899 -30.5899 -30.5899 -30.5898 -30.5693 -30.5693 -30.5693 -30.5692
   -30.5419 -30.5419 -30.5418 -30.5418 -30.5417 -30.5417 -30.5417 -30.5417
   -30.5413 -30.5413 -30.5413 -30.5413 -30.5330 -30.5330 -30.5329 -30.5329
   -30.5328 -30.5328 -30.5327 -30.5327 -30.5292 -30.5292 -30.5292 -30.5292
   -30.4731 -30.4731 -30.4731 -30.4730 -30.4693 -30.4692 -30.4692 -30.4691
   -30.4686 -30.4685 -30.4685 -30.4684 -30.4611 -30.4611 -30.4610 -30.4610
    13.7623  13.7627  13.7627  13.7630  14.0144  14.0147  14.0147  14.0149
    14.7003  14.7003  14.7004  14.7004  14.7007  14.7007  14.7007  14.7007
    14.7074  14.7074  14.7075  14.7075  14.7292  14.7292  14.7292  14.7293
    14.7823  14.7823  14.7824  14.7824  14.7826  14.7826  14.7826  14.7827
    15.3211  15.3211  15.3212  15.3212  15.3216  15.3216  15.3216  15.3216
    15.3603  15.3604  15.3605  15.3605  15.6221  15.6221  15.6224  15.6224
    15.6226  15.6226  15.6227  15.6228  15.6439  15.6442  15.6442  15.6443
    16.2720  16.2722  16.2722  16.2722  16.5142  16.5143  16.5144  16.5144
    16.6981  16.6981  16.6981  16.6982  16.7283  16.7283  16.7284  16.7285
    16.7307  16.7308  16.7308  16.7310  16.7531  16.7532  16.7532  16.7534
    16.7774  16.7775  16.7775  16.7776  16.8104  16.8105  16.8105  16.8105
    16.8105  16.8106  16.8107  16.8107  16.9990  16.9990  16.9991  16.9991
    16.9991  16.9992  16.9992  16.9994  17.0190  17.0192  17.0192  17.0194
    17.4460  17.4461  17.4461  17.4462  17.4947  17.4947  17.4947  17.4948
    17.4949  17.4949  17.4949  17.4950  17.7923  17.7923  17.7923  17.7924
    17.7924  17.7925  17.7925  17.7926  17.8109  17.8110  17.8111  17.8112
    17.9497  17.9497  17.9498  17.9499  18.1397  18.1397  18.1399  18.1399
    18.1678  18.1679  18.1680  18.1680  18.3122  18.3123  18.3123  18.3124
    19.1726  19.1727  19.1727  19.1727  19.1727  19.1727  19.1728  19.1728
    19.1811  19.1812  19.1812  19.1813  19.2033  19.2034  19.2034  19.2034
    19.2100  19.2100  19.2100  19.2100  19.2101  19.2101  19.2101  19.2101
    21.8984  21.8987  21.8988  21.8989  22.4825  22.4825  22.4827  22.4827
    22.4828  22.4828  22.4829  22.4829  23.1211  23.1211  23.1212  23.1212
    23.1214  23.1214  23.1215  23.1215  23.6730  23.6733  23.6733  23.6735
    27.5695  27.5695  27.5696  27.5697  27.5697  27.5698  27.5699  27.5699
    27.8375  27.8378  27.8378  27.8378  28.6944  28.6946  28.6947  28.6947
    28.9352  28.9352  28.9353  28.9353  28.9355  28.9355  28.9356  28.9356
    32.4342  32.4344

          k =-0.5000-0.5000-0.4988 ( 33064 PWs)   bands (ev):

   -64.9044 -64.9043 -64.9042 -64.9041 -64.9036 -64.9035 -64.9034 -64.9033
   -64.8729 -64.8728 -64.8728 -64.8727 -64.8726 -64.8726 -64.8725 -64.8725
   -64.8722 -64.8721 -64.8720 -64.8720 -64.8719 -64.8719 -64.8718 -64.8718
   -64.8718 -64.8717 -64.8717 -64.8715 -64.8714 -64.8712 -64.8712 -64.8710
   -30.7498 -30.7498 -30.7498 -30.7498 -30.7494 -30.7493 -30.7493 -30.7492
   -30.7491 -30.7491 -30.7491 -30.7490 -30.7487 -30.7487 -30.7486 -30.7486
   -30.7484 -30.7483 -30.7482 -30.7482 -30.7481 -30.7480 -30.7480 -30.7479
   -30.6275 -30.6275 -30.6275 -30.6274 -30.6273 -30.6272 -30.6272 -30.6272
   -30.5908 -30.5908 -30.5908 -30.5908 -30.5907 -30.5907 -30.5907 -30.5906
   -30.5906 -30.5905 -30.5905 -30.5905 -30.5905 -30.5904 -30.5904 -30.5904
   -30.5904 -30.5903 -30.5903 -30.5903 -30.5902 -30.5902 -30.5902 -30.5901
   -30.5374 -30.5374 -30.5373 -30.5373 -30.5373 -30.5373 -30.5372 -30.5372
   -30.5370 -30.5370 -30.5369 -30.5369 -30.5369 -30.5368 -30.5368 -30.5368
   -30.5362 -30.5362 -30.5362 -30.5362 -30.5354 -30.5354 -30.5354 -30.5354
   -30.4675 -30.4674 -30.4673 -30.4672 -30.4672 -30.4672 -30.4671 -30.4670
   -30.4669 -30.4669 -30.4669 -30.4669 -30.4662 -30.4661 -30.4661 -30.4661
    13.8801  13.8805  13.8805  13.8808  13.8808  13.8812  13.8812  13.8815
    14.7284  14.7284  14.7284  14.7285  14.7291  14.7291  14.7291  14.7292
    14.7299  14.7299  14.7300  14.7301  14.7301  14.7301  14.7302  14.7302
    14.7303  14.7303  14.7303  14.7303  14.7305  14.7305  14.7305  14.7305
    15.4828  15.4829  15.4831  15.4831  15.4832  15.4833  15.4833  15.4833
    15.4834  15.4834  15.4834  15.4836  15.4837  15.4838  15.4838  15.4839
    15.4846  15.4849  15.4849  15.4850  15.4855  15.4857  15.4857  15.4858
    16.4115  16.4118  16.4118  16.4118  16.4118  16.4118  16.4119  16.4119
    16.7090  16.7091  16.7091  16.7092  16.7094  16.7095  16.7095  16.7096
    16.7289  16.7290  16.7290  16.7291  16.7292  16.7293  16.7293  16.7295
    16.8963  16.8964  16.8964  16.8965  16.8968  16.8969  16.8969  16.8971
    16.9076  16.9076  16.9077  16.9078  16.9078  16.9078  16.9079  16.9079
    16.9079  16.9079  16.9080  16.9080  16.9080  16.9081  16.9081  16.9082
    17.6166  17.6166  17.6167  17.6168  17.6169  17.6170  17.6170  17.6171
    17.6171  17.6171  17.6172  17.6172  17.6174  17.6174  17.6175  17.6176
    17.6266  17.6266  17.6267  17.6267  17.6268  17.6269  17.6269  17.6270
    18.1204  18.1205  18.1206  18.1207  18.1210  18.1211  18.1212  18.1212
    18.1271  18.1272  18.1273  18.1274  18.1275  18.1276  18.1276  18.1277
    19.2094  19.2095  19.2095  19.2096  19.2096  19.2097  19.2097  19.2098
    19.2129  19.2129  19.2129  19.2130  19.2131  19.2131  19.2131  19.2132
    19.2133  19.2133  19.2133  19.2134  19.2135  19.2136  19.2136  19.2136
    22.7682  22.7686  22.7686  22.7686  22.7688  22.7689  22.7690  22.7691
    22.7887  22.7889  22.7889  22.7890  22.7890  22.7892  22.7892  22.7893
    22.7894  22.7895  22.7895  22.7897  22.7897  22.7899  22.7899  22.7899
    28.2107  28.2107  28.2109  28.2109  28.2109  28.2110  28.2110  28.2111
    28.2113  28.2114  28.2114  28.2114  28.2114  28.2116  28.2116  28.2116
    28.2337  28.2340  28.2340  28.2340  28.2345  28.2347  28.2348  28.2348
    33.5315  33.5322

     the Fermi energy is    19.2335 ev

!    total energy              =  -16384.95890136 Ry
     Harris-Foulkes estimate   =  -16384.95889029 Ry
     estimated scf accuracy    <       0.00000049 Ry

     total all-electron energy =   -322945.812609 Ry

     The total energy is the sum of the following terms:

     one-electron contribution =   -2492.80552035 Ry
     hartree contribution      =    1663.07479351 Ry
     xc contribution           =    -986.46925168 Ry
     ewald contribution        =   -6401.36857235 Ry
     one-center paw contrib.   =   -8167.42405087 Ry
     smearing contrib. (-TS)   =       0.03370038 Ry

     convergence has been achieved in  11 iterations

     Forces acting on atoms (cartesian axes, Ry/au):

     atom    1 type  1   force =     0.00000000    0.00000000    0.00000000
     atom    2 type  1   force =     0.00009411    0.00009411    0.00000000
     atom    3 type  1   force =     0.00005448    0.00000000   -0.00001216
     atom    4 type  1   force =     0.00000000    0.00005448   -0.00001216
     atom    5 type  1   force =     0.00000000    0.00000000    0.00000000
     atom    6 type  1   force =     0.00012855    0.00012855    0.00000000
     atom    7 type  1   force =     0.00005448    0.00000000    0.00001216
     atom    8 type  1   force =     0.00000000    0.00005448    0.00001216
     atom    9 type  1   force =     0.00000000    0.00000000    0.00000000
     atom   10 type  1   force =     0.00009411   -0.00009411    0.00000000
     atom   11 type  1   force =     0.00016273    0.00000000   -0.00001256
     atom   12 type  1   force =     0.00000000   -0.00005448   -0.00001216
     atom   13 type  1   force =     0.00000000    0.00000000    0.00000000
     atom   14 type  1   force =     0.00012855   -0.00012855    0.00000000
     atom   15 type  1   force =     0.00016273   -0.00000000    0.00001256
     atom   16 type  1   force =     0.00000000   -0.00005448    0.00001216
     atom   17 type  1   force =     0.00000000    0.00000000    0.00000000
     atom   18 type  1   force =    -0.00009411    0.00009411    0.00000000
     atom   19 type  1   force =    -0.00005448    0.00000000   -0.00001216
     atom   20 type  1   force =     0.00000000    0.00016273   -0.00001256
     atom   21 type  1   force =     0.00000000    0.00000000    0.00000000
     atom   22 type  1   force =    -0.00012855    0.00012855    0.00000000
     atom   23 type  1   force =    -0.00005448    0.00000000    0.00001216
     atom   24 type  1   force =     0.00000000    0.00016273    0.00001256
     atom   25 type  1   force =     0.00000000    0.00000000    0.00000000
     atom   26 type  1   force =    -0.00009411   -0.00009411    0.00000000
     atom   27 type  1   force =    -0.00016273   -0.00000000   -0.00001256
     atom   28 type  1   force =     0.00000000   -0.00016273   -0.00001256
     atom   29 type  1   force =     0.00000000    0.00000000    0.00000000
     atom   30 type  1   force =    -0.00012855   -0.00012855    0.00000000
     atom   31 type  1   force =    -0.00016273    0.00000000    0.00001256
     atom   32 type  1   force =     0.00000000   -0.00016273    0.00001256

     Total force =     0.000664     Total SCF correction =     0.005425
     SCF correction compared to forces is large: reduce conv_thr to get better values


     Computing stress (Cartesian axis) and pressure

          total   stress  (Ry/bohr**3)                   (kbar)     P=   -2.97
  -0.00001597   0.00000000   0.00000000         -2.35      0.00      0.00
   0.00000000  -0.00001597   0.00000000          0.00     -2.35      0.00
   0.00000000   0.00000000  -0.00002872          0.00      0.00     -4.23


     Writing output data file TvHSLpbNVLVwQieK.save/
 
     init_run     :     40.92s CPU     44.42s WALL (       1 calls)
     electrons    :   1936.14s CPU   2041.52s WALL (       1 calls)
     forces       :     18.72s CPU     19.42s WALL (       1 calls)
     stress       :    185.30s CPU    185.99s WALL (       1 calls)

     Called by init_run:
     wfcinit      :     40.10s CPU     43.53s WALL (       1 calls)
     potinit      :      0.38s CPU      0.39s WALL (       1 calls)
     hinit0       :      0.21s CPU      0.22s WALL (       1 calls)

     Called by electrons:
     c_bands      :   1758.85s CPU   1844.79s WALL (      12 calls)
     sum_band     :    173.15s CPU    192.23s WALL (      12 calls)
     v_of_rho     :      0.35s CPU      0.37s WALL (      12 calls)
     newd         :      0.87s CPU      1.11s WALL (      12 calls)
     PAW_pot      :      3.05s CPU      3.10s WALL (      12 calls)
     mix_rho      :      0.09s CPU      0.10s WALL (      12 calls)

     Called by c_bands:
     init_us_2    :     11.03s CPU     11.07s WALL (    2025 calls)
     cegterg      :   1698.79s CPU   1784.44s WALL (     900 calls)

     Called by sum_band:
     sum_band:bec :      1.39s CPU      1.40s WALL (     900 calls)
     addusdens    :      0.88s CPU      1.17s WALL (      12 calls)

     Called by *egterg:
     h_psi        :    694.54s CPU    772.06s WALL (    2564 calls)
     s_psi        :     86.32s CPU     86.56s WALL (    2564 calls)
     g_psi        :      2.50s CPU      2.51s WALL (    1589 calls)
     cdiaghg      :    642.18s CPU    644.00s WALL (    2414 calls)

     Called by h_psi:
     h_psi:pot    :    687.90s CPU    765.13s WALL (    2564 calls)
     h_psi:calbec :     88.44s CPU     92.66s WALL (    2564 calls)
     vloc_psi     :    514.05s CPU    586.63s WALL (    2564 calls)
     add_vuspsi   :     85.39s CPU     85.83s WALL (    2564 calls)

     General routines
     calbec       :    147.41s CPU    154.39s WALL (    3839 calls)
     fft          :      0.34s CPU      0.38s WALL (     181 calls)
     ffts         :      0.03s CPU      0.03s WALL (      24 calls)
     fftw         :    597.06s CPU    681.47s WALL ( 1703750 calls)
     interpolate  :      0.04s CPU      0.05s WALL (      12 calls)
 
     Parallel routines
     fft_scatt_xy :     48.77s CPU     54.72s WALL ( 1703955 calls)
     fft_scatt_yz :    392.94s CPU    453.06s WALL ( 1703955 calls)
 
     PWSCF        : 36m28.01s CPU    39m50.26s WALL

 
   This run was terminated on:  20: 1:27  11Nov2020            

=------------------------------------------------------------------------------=
   JOB DONE.
=------------------------------------------------------------------------------=
