--------------------------------------------------------------------------
WARNING: No preset parameters were found for the device that Open MPI
detected:

  Local host:            bear-pg0206u14b
  Device name:           mlx5_0
  Device vendor ID:      0x02c9
  Device vendor part ID: 4123

Default device parameters will be used, which may result in lower
performance.  You can edit any of the files specified by the
btl_openib_device_param_files MCA parameter to set values for your
device.

NOTE: You can turn off this warning by setting the MCA parameter
      btl_openib_warn_no_device_params_found to 0.
--------------------------------------------------------------------------
--------------------------------------------------------------------------
WARNING: There was an error initializing an OpenFabrics device.

  Local host:   bear-pg0206u14b
  Local device: mlx5_0
--------------------------------------------------------------------------

     Program PWSCF v.6.3 starts on 11Nov2020 at 18:41:32 

     This program is part of the open-source Quantum ESPRESSO suite
     for quantum simulation of materials; please cite
         "P. Giannozzi et al., J. Phys.:Condens. Matter 21 395502 (2009);
         "P. Giannozzi et al., J. Phys.:Condens. Matter 29 465901 (2017);
          URL http://www.quantum-espresso.org", 
     in publications or presentations arising from this work. More details at
     http://www.quantum-espresso.org/quote

     Parallel version (MPI & OpenMP), running on      20 processor cores
     Number of MPI processes:                20
     Threads/MPI process:                     1

     MPI processes distributed on     1 nodes
     R & G space division:  proc/nbgrp/npool/nimage =      20
     Reading input from wd/ec/ec_3_003.in
Warning: card &IONS ignored
Warning: card ION_DYNAMICS = 'BFGS', ignored
Warning: card / ignored
Warning: card &CELL ignored
Warning: card CELL_DYNAMICS = 'BFGS', ignored
Warning: card CELL_FACTOR = 2.0, ignored
Warning: card PRESS = 0.0, ignored
Warning: card / ignored

     Current dimensions of program PWSCF are:
     Max number of different atomic species (ntypx) = 10
     Max number of k-points (npk) =  40000
     Max angular momentum in pseudopotentials (lmaxx) =  3
               file Pd.pbe-spn-kjpaw_psl.1.0.0.UPF: wavefunction(s)  4S 5S 4D renormalized

     Subspace diagonalization in iterative solution of the eigenvalue problem:
     a serial algorithm will be used

 
     Parallelization info
     --------------------
     sticks:   dense  smooth     PW     G-vecs:    dense   smooth      PW
     Min         376     247     67                24628    13213    1873
     Max         377     248     68                24634    13220    1878
     Sum        7521    4957   1353               492643   264363   37537
 


     bravais-lattice index     =            0
     lattice parameter (alat)  =      14.8394  a.u.
     unit-cell volume          =    3273.2109 (a.u.)^3
     number of atoms/cell      =           32
     number of atomic types    =            1
     number of electrons       =       576.00
     number of Kohn-Sham states=          346
     kinetic-energy cutoff     =      71.0000  Ry
     charge density cutoff     =     430.0000  Ry
     convergence threshold     =      1.0E-06
     mixing beta               =       0.1000
     number of iterations used =           10  plain     mixing
     Exchange-correlation      = SLA PW PBX PBC ( 1  4  3  4 0 0)

     celldm(1)=  14.839420  celldm(2)=   0.000000  celldm(3)=   0.000000
     celldm(4)=   0.000000  celldm(5)=   0.000000  celldm(6)=   0.000000

     crystal axes: (cart. coord. in units of alat)
               a(1) = (   1.000000   0.000000   0.000000 )  
               a(2) = (   0.000000   1.000000   0.000000 )  
               a(3) = (   0.000000   0.000000   1.001667 )  

     reciprocal axes: (cart. coord. in units 2 pi/alat)
               b(1) = (  1.000000  0.000000  0.000000 )  
               b(2) = (  0.000000  1.000000  0.000000 )  
               b(3) = (  0.000000  0.000000  0.998336 )  


     PseudoPot. # 1 for Pd read from file:
     /rds/homes/b/bxp912/pp/Pd.pbe-spn-kjpaw_psl.1.0.0.UPF
     MD5 check sum: 790f2ebce206edfd9790dcb9844eca51
     Pseudo is Projector augmented-wave + core cor, Zval = 18.0
     Generated using "atomic" code by A. Dal Corso v.6.3
     Shape of augmentation charge: PSQ
     Using radial grid of 1235 points,  6 beta functions with: 
                l(1) =   0
                l(2) =   0
                l(3) =   1
                l(4) =   1
                l(5) =   2
                l(6) =   2
     Q(r) pseudized with 0 coefficients 


     atomic species   valence    mass     pseudopotential
        Pd            18.00   106.42000     Pd( 1.00)

     16 Sym. Ops., with inversion, found



   Cartesian axes

     site n.     atom                  positions (alat units)
         1           Pd  tau(   1) = (   0.0000000   0.0000000   0.0000000  )
         2           Pd  tau(   2) = (   0.2500045   0.2500045   0.0000000  )
         3           Pd  tau(   3) = (   0.2500045   0.0000000   0.2504206  )
         4           Pd  tau(   4) = (   0.0000000   0.2500045   0.2504206  )
         5           Pd  tau(   5) = (   0.0000000   0.0000000   0.5008323  )
         6           Pd  tau(   6) = (   0.2500116   0.2500116   0.5008323  )
         7           Pd  tau(   7) = (   0.2500045   0.0000000   0.7512450  )
         8           Pd  tau(   8) = (   0.0000000   0.2500045   0.7512450  )
         9           Pd  tau(   9) = (   0.0000000   0.4999998   0.0000000  )
        10           Pd  tau(  10) = (   0.2500045   0.7499952   0.0000000  )
        11           Pd  tau(  11) = (   0.2500116   0.4999998   0.2504276  )
        12           Pd  tau(  12) = (   0.0000000   0.7499952   0.2504206  )
        13           Pd  tau(  13) = (   0.0000000   0.4999998   0.5008323  )
        14           Pd  tau(  14) = (   0.2500116   0.7499881   0.5008323  )
        15           Pd  tau(  15) = (   0.2500116   0.4999998   0.7512381  )
        16           Pd  tau(  16) = (   0.0000000   0.7499952   0.7512450  )
        17           Pd  tau(  17) = (   0.4999998   0.0000000   0.0000000  )
        18           Pd  tau(  18) = (   0.7499952   0.2500045   0.0000000  )
        19           Pd  tau(  19) = (   0.7499952   0.0000000   0.2504206  )
        20           Pd  tau(  20) = (   0.4999998   0.2500116   0.2504276  )
        21           Pd  tau(  21) = (   0.4999998   0.0000000   0.5008323  )
        22           Pd  tau(  22) = (   0.7499881   0.2500116   0.5008323  )
        23           Pd  tau(  23) = (   0.7499952   0.0000000   0.7512450  )
        24           Pd  tau(  24) = (   0.4999998   0.2500116   0.7512381  )
        25           Pd  tau(  25) = (   0.4999998   0.4999998   0.0000000  )
        26           Pd  tau(  26) = (   0.7499952   0.7499952   0.0000000  )
        27           Pd  tau(  27) = (   0.7499881   0.4999998   0.2504276  )
        28           Pd  tau(  28) = (   0.4999998   0.7499881   0.2504276  )
        29           Pd  tau(  29) = (   0.4999998   0.4999998   0.5008323  )
        30           Pd  tau(  30) = (   0.7499881   0.7499881   0.5008323  )
        31           Pd  tau(  31) = (   0.7499881   0.4999998   0.7512381  )
        32           Pd  tau(  32) = (   0.4999998   0.7499881   0.7512381  )

     number of k points=    75  Marzari-Vanderbilt smearing, width (Ry)=  0.0400
                       cart. coord. in units 2pi/alat
        k(    1) = (   0.0555556   0.0555556   0.0554631), wk =   0.0219479
        k(    2) = (   0.0555556   0.0555556   0.1663894), wk =   0.0219479
        k(    3) = (   0.0555556   0.0555556   0.2773156), wk =   0.0219479
        k(    4) = (   0.0555556   0.0555556   0.3882418), wk =   0.0219479
        k(    5) = (   0.0555556   0.0555556  -0.4991681), wk =   0.0109739
        k(    6) = (   0.0555556   0.1666667   0.0554631), wk =   0.0438957
        k(    7) = (   0.0555556   0.1666667   0.1663894), wk =   0.0438957
        k(    8) = (   0.0555556   0.1666667   0.2773156), wk =   0.0438957
        k(    9) = (   0.0555556   0.1666667   0.3882418), wk =   0.0438957
        k(   10) = (   0.0555556   0.1666667  -0.4991681), wk =   0.0219479
        k(   11) = (   0.0555556   0.2777778   0.0554631), wk =   0.0438957
        k(   12) = (   0.0555556   0.2777778   0.1663894), wk =   0.0438957
        k(   13) = (   0.0555556   0.2777778   0.2773156), wk =   0.0438957
        k(   14) = (   0.0555556   0.2777778   0.3882418), wk =   0.0438957
        k(   15) = (   0.0555556   0.2777778  -0.4991681), wk =   0.0219479
        k(   16) = (   0.0555556   0.3888889   0.0554631), wk =   0.0438957
        k(   17) = (   0.0555556   0.3888889   0.1663894), wk =   0.0438957
        k(   18) = (   0.0555556   0.3888889   0.2773156), wk =   0.0438957
        k(   19) = (   0.0555556   0.3888889   0.3882418), wk =   0.0438957
        k(   20) = (   0.0555556   0.3888889  -0.4991681), wk =   0.0219479
        k(   21) = (   0.0555556  -0.5000000   0.0554631), wk =   0.0219479
        k(   22) = (   0.0555556  -0.5000000   0.1663894), wk =   0.0219479
        k(   23) = (   0.0555556  -0.5000000   0.2773156), wk =   0.0219479
        k(   24) = (   0.0555556  -0.5000000   0.3882418), wk =   0.0219479
        k(   25) = (   0.0555556  -0.5000000  -0.4991681), wk =   0.0109739
        k(   26) = (   0.1666667   0.1666667   0.0554631), wk =   0.0219479
        k(   27) = (   0.1666667   0.1666667   0.1663894), wk =   0.0219479
        k(   28) = (   0.1666667   0.1666667   0.2773156), wk =   0.0219479
        k(   29) = (   0.1666667   0.1666667   0.3882418), wk =   0.0219479
        k(   30) = (   0.1666667   0.1666667  -0.4991681), wk =   0.0109739
        k(   31) = (   0.1666667   0.2777778   0.0554631), wk =   0.0438957
        k(   32) = (   0.1666667   0.2777778   0.1663894), wk =   0.0438957
        k(   33) = (   0.1666667   0.2777778   0.2773156), wk =   0.0438957
        k(   34) = (   0.1666667   0.2777778   0.3882418), wk =   0.0438957
        k(   35) = (   0.1666667   0.2777778  -0.4991681), wk =   0.0219479
        k(   36) = (   0.1666667   0.3888889   0.0554631), wk =   0.0438957
        k(   37) = (   0.1666667   0.3888889   0.1663894), wk =   0.0438957
        k(   38) = (   0.1666667   0.3888889   0.2773156), wk =   0.0438957
        k(   39) = (   0.1666667   0.3888889   0.3882418), wk =   0.0438957
        k(   40) = (   0.1666667   0.3888889  -0.4991681), wk =   0.0219479
        k(   41) = (   0.1666667  -0.5000000   0.0554631), wk =   0.0219479
        k(   42) = (   0.1666667  -0.5000000   0.1663894), wk =   0.0219479
        k(   43) = (   0.1666667  -0.5000000   0.2773156), wk =   0.0219479
        k(   44) = (   0.1666667  -0.5000000   0.3882418), wk =   0.0219479
        k(   45) = (   0.1666667  -0.5000000  -0.4991681), wk =   0.0109739
        k(   46) = (   0.2777778   0.2777778   0.0554631), wk =   0.0219479
        k(   47) = (   0.2777778   0.2777778   0.1663894), wk =   0.0219479
        k(   48) = (   0.2777778   0.2777778   0.2773156), wk =   0.0219479
        k(   49) = (   0.2777778   0.2777778   0.3882418), wk =   0.0219479
        k(   50) = (   0.2777778   0.2777778  -0.4991681), wk =   0.0109739
        k(   51) = (   0.2777778   0.3888889   0.0554631), wk =   0.0438957
        k(   52) = (   0.2777778   0.3888889   0.1663894), wk =   0.0438957
        k(   53) = (   0.2777778   0.3888889   0.2773156), wk =   0.0438957
        k(   54) = (   0.2777778   0.3888889   0.3882418), wk =   0.0438957
        k(   55) = (   0.2777778   0.3888889  -0.4991681), wk =   0.0219479
        k(   56) = (   0.2777778  -0.5000000   0.0554631), wk =   0.0219479
        k(   57) = (   0.2777778  -0.5000000   0.1663894), wk =   0.0219479
        k(   58) = (   0.2777778  -0.5000000   0.2773156), wk =   0.0219479
        k(   59) = (   0.2777778  -0.5000000   0.3882418), wk =   0.0219479
        k(   60) = (   0.2777778  -0.5000000  -0.4991681), wk =   0.0109739
        k(   61) = (   0.3888889   0.3888889   0.0554631), wk =   0.0219479
        k(   62) = (   0.3888889   0.3888889   0.1663894), wk =   0.0219479
        k(   63) = (   0.3888889   0.3888889   0.2773156), wk =   0.0219479
        k(   64) = (   0.3888889   0.3888889   0.3882418), wk =   0.0219479
        k(   65) = (   0.3888889   0.3888889  -0.4991681), wk =   0.0109739
        k(   66) = (   0.3888889  -0.5000000   0.0554631), wk =   0.0219479
        k(   67) = (   0.3888889  -0.5000000   0.1663894), wk =   0.0219479
        k(   68) = (   0.3888889  -0.5000000   0.2773156), wk =   0.0219479
        k(   69) = (   0.3888889  -0.5000000   0.3882418), wk =   0.0219479
        k(   70) = (   0.3888889  -0.5000000  -0.4991681), wk =   0.0109739
        k(   71) = (  -0.5000000  -0.5000000   0.0554631), wk =   0.0054870
        k(   72) = (  -0.5000000  -0.5000000   0.1663894), wk =   0.0054870
        k(   73) = (  -0.5000000  -0.5000000   0.2773156), wk =   0.0054870
        k(   74) = (  -0.5000000  -0.5000000   0.3882418), wk =   0.0054870
        k(   75) = (  -0.5000000  -0.5000000  -0.4991681), wk =   0.0027435

     Dense  grid:   492643 G-vectors     FFT dimensions: ( 100, 100, 100)

     Smooth grid:   264363 G-vectors     FFT dimensions: (  80,  80,  80)

     Estimated max dynamical RAM per process >     892.25 MB

     Estimated total dynamical RAM >      17.43 GB

     Check: negative/imaginary core charge=   -0.000002    0.000000

     Initial potential from superposition of free atoms

     starting charge  575.98776, renormalised to  576.00000
     Starting wfcs are  320 randomized atomic wfcs +   26 random wfcs
     Checking if some PAW data can be deallocated... 

     total cpu time spent up to now is       45.5 secs

     Self-consistent Calculation

     iteration #  1     ecut=    71.00 Ry     beta= 0.10
     Davidson diagonalization with overlap
     ethr =  1.00E-02,  avg # of iterations =  3.1

     Threshold (ethr) on eigenvalues was too large:
     Diagonalizing with lowered threshold

     Davidson diagonalization with overlap
     ethr =  8.40E-05,  avg # of iterations =  3.0

     total cpu time spent up to now is      490.1 secs

     total energy              =  -16385.02126436 Ry
     Harris-Foulkes estimate   =  -16385.08941374 Ry
     estimated scf accuracy    <       0.47803322 Ry

     iteration #  2     ecut=    71.00 Ry     beta= 0.10
     Davidson diagonalization with overlap
     ethr =  8.30E-05,  avg # of iterations =  1.1

     total cpu time spent up to now is      627.7 secs

     total energy              =  -16384.92961079 Ry
     Harris-Foulkes estimate   =  -16385.02908624 Ry
     estimated scf accuracy    <       0.26003931 Ry

     iteration #  3     ecut=    71.00 Ry     beta= 0.10
     Davidson diagonalization with overlap
     ethr =  4.51E-05,  avg # of iterations =  2.2

     total cpu time spent up to now is      817.2 secs

     total energy              =  -16384.96204864 Ry
     Harris-Foulkes estimate   =  -16384.96750887 Ry
     estimated scf accuracy    <       0.07197320 Ry

     iteration #  4     ecut=    71.00 Ry     beta= 0.10
     Davidson diagonalization with overlap
     ethr =  1.25E-05,  avg # of iterations =  1.6

     total cpu time spent up to now is      967.7 secs

     total energy              =  -16384.96260540 Ry
     Harris-Foulkes estimate   =  -16384.96475175 Ry
     estimated scf accuracy    <       0.02198263 Ry

     iteration #  5     ecut=    71.00 Ry     beta= 0.10
     Davidson diagonalization with overlap
     ethr =  3.82E-06,  avg # of iterations =  1.1

     total cpu time spent up to now is     1107.1 secs

     total energy              =  -16384.95758280 Ry
     Harris-Foulkes estimate   =  -16384.96279782 Ry
     estimated scf accuracy    <       0.01497662 Ry

     iteration #  6     ecut=    71.00 Ry     beta= 0.10
     Davidson diagonalization with overlap
     ethr =  2.60E-06,  avg # of iterations =  1.2

     total cpu time spent up to now is     1247.3 secs

     total energy              =  -16384.95858566 Ry
     Harris-Foulkes estimate   =  -16384.95859088 Ry
     estimated scf accuracy    <       0.00020167 Ry

     iteration #  7     ecut=    71.00 Ry     beta= 0.10
     Davidson diagonalization with overlap
     ethr =  3.50E-08,  avg # of iterations =  3.2

     total cpu time spent up to now is     1502.2 secs

     total energy              =  -16384.95866550 Ry
     Harris-Foulkes estimate   =  -16384.95868002 Ry
     estimated scf accuracy    <       0.00023973 Ry

     iteration #  8     ecut=    71.00 Ry     beta= 0.10
     Davidson diagonalization with overlap
     ethr =  3.50E-08,  avg # of iterations =  1.2

     total cpu time spent up to now is     1644.4 secs

     total energy              =  -16384.95866865 Ry
     Harris-Foulkes estimate   =  -16384.95867295 Ry
     estimated scf accuracy    <       0.00005318 Ry

     iteration #  9     ecut=    71.00 Ry     beta= 0.10
     Davidson diagonalization with overlap
     ethr =  9.23E-09,  avg # of iterations =  1.0

     total cpu time spent up to now is     1779.0 secs

     total energy              =  -16384.95866861 Ry
     Harris-Foulkes estimate   =  -16384.95866966 Ry
     estimated scf accuracy    <       0.00003681 Ry

     iteration # 10     ecut=    71.00 Ry     beta= 0.10
     Davidson diagonalization with overlap
     ethr =  6.39E-09,  avg # of iterations =  2.0

     total cpu time spent up to now is     1963.1 secs

     total energy              =  -16384.95867578 Ry
     Harris-Foulkes estimate   =  -16384.95867267 Ry
     estimated scf accuracy    <       0.00000380 Ry

     iteration # 11     ecut=    71.00 Ry     beta= 0.10
     Davidson diagonalization with overlap
     ethr =  6.60E-10,  avg # of iterations =  1.0

     total cpu time spent up to now is     2099.9 secs

     End of self-consistent calculation

          k = 0.0556 0.0556 0.0555 ( 33044 PWs)   bands (ev):

   -64.9083 -64.8795 -64.8794 -64.8793 -64.8740 -64.8738 -64.8737 -64.8637
   -64.8636 -64.8635 -64.8613 -64.8610 -64.8607 -64.8607 -64.8605 -64.8605
   -64.8605 -64.8604 -64.8603 -64.8598 -64.8580 -64.8580 -64.8579 -64.8456
   -64.8452 -64.8450 -64.8449 -64.8449 -64.8448 -64.8447 -64.8446 -64.8440
   -30.7916 -30.7916 -30.7916 -30.7898 -30.7715 -30.7715 -30.7709 -30.6946
   -30.6935 -30.6935 -30.6903 -30.6903 -30.6892 -30.6892 -30.6891 -30.6891
   -30.6826 -30.6814 -30.6814 -30.6771 -30.6771 -30.6763 -30.6763 -30.6761
   -30.6760 -30.6587 -30.6587 -30.6577 -30.6577 -30.6576 -30.6575 -30.6173
   -30.6173 -30.6168 -30.5930 -30.5929 -30.5925 -30.5869 -30.5869 -30.5865
   -30.5777 -30.5777 -30.5775 -30.5775 -30.5771 -30.5771 -30.5627 -30.5627
   -30.5622 -30.5620 -30.5619 -30.5619 -30.5618 -30.5617 -30.5617 -30.5612
   -30.5610 -30.5604 -30.5595 -30.5593 -30.5588 -30.4970 -30.4969 -30.4961
   -30.4960 -30.4960 -30.4958 -30.4845 -30.4845 -30.4838 -30.4838 -30.4837
   -30.4836 -30.4807 -30.4807 -30.4801 -30.4764 -30.4762 -30.4760 -30.4757
   -30.4756 -30.4756 -30.4756 -30.4755 -30.4751 -30.4749 -30.4745 -30.4744
   -30.4743 -30.4735 -30.4686 -30.4686 -30.4679 -30.4229 -30.4206 -30.4205
    12.2635  14.0212  14.0212  14.0213  14.0889  14.1026  14.1026  14.1026
    14.2872  14.2928  14.2929  14.2957  14.2958  14.2958  14.4825  14.4880
    14.4881  15.0285  15.0286  15.0341  15.0342  15.0343  15.0344  15.1819
    15.1876  15.1876  15.3344  15.3347  15.3347  15.3673  15.3741  15.3741
    15.4166  15.4166  15.4174  15.4175  15.4176  15.4176  15.4182  15.4198
    15.4199  15.7581  15.7581  15.7615  15.7615  15.7627  15.7628  15.8641
    15.8696  15.8697  15.8858  15.8858  15.8914  15.8915  15.8922  15.8922
    15.9423  15.9487  15.9487  16.1127  16.1127  16.1166  16.1166  16.1182
    16.1183  16.2201  16.2202  16.2237  16.2248  16.2249  16.2249  16.2250
    16.2274  16.2274  16.3328  16.3329  16.3337  16.3902  16.3994  16.3994
    16.4110  16.4253  16.4267  16.4267  16.4359  16.4439  16.4639  16.4710
    17.2558  17.2641  17.2642  17.3207  17.3207  17.3244  17.3932  17.3932
    17.3936  17.3937  17.3966  17.3966  17.3996  17.3997  17.4023  17.4424
    17.4516  17.4517  17.5494  17.5495  17.5556  17.6693  17.6694  17.6710
    17.7929  17.7930  17.7986  17.8506  17.8507  17.8555  17.9245  17.9245
    17.9259  17.9260  17.9262  17.9262  17.9443  17.9443  17.9450  17.9843
    17.9983  17.9983  17.9985  17.9986  18.0000  18.0028  18.0028  18.1074
    18.1074  18.1116  18.4929  18.4929  18.4998  18.5947  18.5947  18.6007
    18.9775  18.9775  18.9821  19.1024  19.1024  19.1032  19.1263  19.1327
    19.1464  19.1513  19.1513  19.3783  19.3793  19.3793  19.4304  19.4304
    19.4307  19.4308  19.4358  19.4370  19.4372  19.4390  19.4392  20.1048
    20.4101  20.4101  20.4102  20.9273  20.9273  20.9368  21.4360  21.4361
    21.4366  21.4366  21.4476  21.4476  21.9645  21.9645  21.9775  22.5323
    22.5637  22.5637  26.2973  26.2974  26.2976  26.4542  27.4355  27.4355
    27.4499  27.4499  27.4644  27.4645  28.1275  28.1275  28.1411  28.1411
    28.1566  28.1567  29.5424  29.5424  29.5484  29.5484  29.5624  29.5624
    29.6842  29.7282  29.7282  30.6571  30.7040  30.7040  30.7091  30.7091
    30.7200  30.7201

          k = 0.0556 0.0556 0.1664 ( 33041 PWs)   bands (ev):

   -64.9073 -64.8849 -64.8788 -64.8787 -64.8734 -64.8733 -64.8685 -64.8666
   -64.8665 -64.8636 -64.8631 -64.8630 -64.8614 -64.8613 -64.8606 -64.8604
   -64.8600 -64.8598 -64.8580 -64.8576 -64.8576 -64.8556 -64.8555 -64.8461
   -64.8456 -64.8455 -64.8454 -64.8453 -64.8452 -64.8448 -64.8446 -64.8440
   -30.7889 -30.7872 -30.7872 -30.7841 -30.7682 -30.7682 -30.7657 -30.7060
   -30.7008 -30.7008 -30.6954 -30.6954 -30.6949 -30.6949 -30.6943 -30.6943
   -30.6929 -30.6825 -30.6825 -30.6798 -30.6797 -30.6751 -30.6750 -30.6713
   -30.6713 -30.6604 -30.6603 -30.6543 -30.6543 -30.6465 -30.6408 -30.6408
   -30.6220 -30.6220 -30.6080 -30.6080 -30.5929 -30.5929 -30.5922 -30.5922
   -30.5807 -30.5667 -30.5666 -30.5657 -30.5656 -30.5626 -30.5625 -30.5611
   -30.5609 -30.5589 -30.5587 -30.5582 -30.5566 -30.5564 -30.5564 -30.5564
   -30.5560 -30.5560 -30.5526 -30.5480 -30.5480 -30.5082 -30.5077 -30.4997
   -30.4997 -30.4933 -30.4932 -30.4883 -30.4883 -30.4872 -30.4872 -30.4850
   -30.4850 -30.4827 -30.4805 -30.4804 -30.4802 -30.4802 -30.4799 -30.4764
   -30.4757 -30.4756 -30.4750 -30.4748 -30.4742 -30.4729 -30.4729 -30.4725
   -30.4718 -30.4715 -30.4681 -30.4640 -30.4640 -30.4293 -30.4227 -30.4219
    12.3367  13.9886  14.0554  14.0674  14.0674  14.1167  14.1440  14.1440
    14.1574  14.3233  14.3379  14.3379  14.3439  14.3440  14.5397  14.5398
    14.5524  14.9432  14.9432  15.0048  15.0687  15.0688  15.0756  15.0757
    15.1026  15.1833  15.1833  15.2137  15.2137  15.2225  15.2294  15.2294
    15.3759  15.3760  15.3960  15.3960  15.4071  15.4072  15.4439  15.4439
    15.4898  15.4899  15.5555  15.7451  15.7451  15.7656  15.7656  15.8114
    15.8114  15.8208  15.8208  15.8791  15.8792  15.9670  15.9671  15.9776
    16.0230  16.0230  16.0696  16.0784  16.0786  16.0822  16.0822  16.1228
    16.1229  16.1656  16.1657  16.1959  16.1960  16.3500  16.3718  16.3719
    16.3772  16.3773  16.3975  16.3975  16.4022  16.4116  16.4435  16.4483
    16.4530  16.4680  16.4681  16.4796  16.4990  16.5031  16.5042  16.5042
    17.0746  17.0747  17.1850  17.1852  17.2103  17.2103  17.2646  17.2646
    17.2820  17.3291  17.3446  17.3447  17.4637  17.4753  17.4754  17.4883
    17.4883  17.5263  17.5264  17.5334  17.5334  17.7475  17.7476  17.7633
    17.7728  17.7729  17.8417  17.8418  17.9220  17.9221  17.9303  17.9303
    17.9310  17.9311  17.9437  18.0123  18.0161  18.0205  18.0205  18.0520
    18.1394  18.1394  18.1495  18.1495  18.1825  18.1826  18.2404  18.2548
    18.2549  18.2860  18.4024  18.5390  18.5390  18.6678  18.6679  18.6686
    18.7023  18.7180  18.7180  18.9330  19.0405  19.0405  19.0597  19.0801
    19.1191  19.1214  19.1215  19.1459  19.1459  19.3088  19.3592  19.3592
    19.3604  19.3604  19.3746  19.4374  19.4377  19.4389  19.4393  20.0970
    20.4646  20.4647  20.5811  20.5812  20.8113  20.9079  20.9477  20.9477
    21.4247  21.4248  21.9582  22.0023  22.0024  22.1712  22.5429  22.5429
    22.8530  22.8530  26.2956  26.4552  26.4552  26.7258  26.7258  26.7347
    26.7347  26.7499  27.3190  27.3190  27.5961  27.5961  28.2806  28.2807
    28.7799  28.7799  29.6100  29.6100  29.6993  29.7142  29.7142  29.8670
    29.8670  29.9398  29.9398  30.1373  30.1563  30.1563  30.2430  30.2430
    30.7044  30.7047

          k = 0.0556 0.0556 0.2773 ( 33051 PWs)   bands (ev):

   -64.9054 -64.8901 -64.8778 -64.8777 -64.8725 -64.8724 -64.8694 -64.8693
   -64.8654 -64.8653 -64.8634 -64.8633 -64.8618 -64.8613 -64.8606 -64.8604
   -64.8598 -64.8596 -64.8581 -64.8548 -64.8547 -64.8532 -64.8531 -64.8480
   -64.8465 -64.8464 -64.8462 -64.8461 -64.8455 -64.8448 -64.8446 -64.8440
   -30.7820 -30.7790 -30.7790 -30.7744 -30.7620 -30.7620 -30.7560 -30.7228
   -30.7172 -30.7171 -30.7120 -30.7120 -30.7091 -30.6968 -30.6968 -30.6949
   -30.6948 -30.6851 -30.6850 -30.6758 -30.6758 -30.6745 -30.6738 -30.6738
   -30.6612 -30.6612 -30.6593 -30.6592 -30.6485 -30.6484 -30.6303 -30.6303
   -30.6236 -30.6236 -30.6224 -30.6224 -30.6061 -30.6061 -30.6036 -30.6036
   -30.5723 -30.5723 -30.5626 -30.5608 -30.5605 -30.5589 -30.5587 -30.5540
   -30.5525 -30.5503 -30.5503 -30.5481 -30.5481 -30.5471 -30.5471 -30.5460
   -30.5460 -30.5376 -30.5339 -30.5339 -30.5275 -30.5198 -30.5191 -30.5051
   -30.5051 -30.4977 -30.4977 -30.4960 -30.4960 -30.4930 -30.4924 -30.4924
   -30.4885 -30.4885 -30.4884 -30.4883 -30.4826 -30.4796 -30.4767 -30.4757
   -30.4752 -30.4752 -30.4750 -30.4748 -30.4742 -30.4725 -30.4725 -30.4715
   -30.4684 -30.4620 -30.4620 -30.4604 -30.4599 -30.4405 -30.4268 -30.4259
    12.4813  13.6394  14.1211  14.1572  14.1572  14.1860  14.2263  14.2263
    14.2524  14.3781  14.4220  14.4220  14.4426  14.4426  14.5215  14.6397
    14.6398  14.7966  14.7967  14.8403  14.8558  14.9332  14.9332  14.9846
    15.0921  15.0921  15.1333  15.1334  15.1565  15.1566  15.1630  15.1630
    15.2654  15.2655  15.2758  15.2759  15.3890  15.3891  15.4387  15.4388
    15.5535  15.5536  15.6959  15.6959  15.7264  15.7264  15.7408  15.7482
    15.7482  15.7677  15.7677  15.7939  15.7940  15.9058  15.9059  15.9781
    15.9782  16.0248  16.0310  16.0310  16.0999  16.0999  16.1298  16.1299
    16.1352  16.1352  16.1948  16.2179  16.2180  16.2936  16.3253  16.3320
    16.3320  16.3934  16.3993  16.3993  16.5041  16.5370  16.5370  16.5553
    16.5643  16.5670  16.7117  16.7117  16.7297  16.7789  16.8702  16.8703
    16.9227  16.9227  16.9441  16.9442  17.0148  17.0922  17.0998  17.0998
    17.1168  17.1234  17.4089  17.4305  17.4305  17.5260  17.5260  17.5957
    17.5958  17.6116  17.6117  17.6694  17.6694  17.7007  17.7008  17.7629
    17.7630  17.8657  17.9083  17.9083  17.9086  17.9086  17.9326  17.9327
    17.9375  17.9376  18.0478  18.1339  18.1874  18.1874  18.2029  18.2029
    18.2164  18.3011  18.3080  18.3109  18.3463  18.3463  18.3476  18.3476
    18.3919  18.3920  18.4208  18.4345  18.4345  18.5101  18.6845  18.6846
    18.7450  18.7450  18.7467  18.8025  18.8969  18.8970  18.9466  18.9466
    18.9501  19.0301  19.0349  19.0349  19.0463  19.1748  19.2266  19.2266
    19.2282  19.2282  19.2616  19.4374  19.4378  19.4387  19.4392  20.0378
    20.0378  20.2708  20.4877  20.4877  20.8059  20.8059  20.8484  21.1827
    21.3759  21.3759  21.5631  21.9136  22.6361  22.6361  23.1823  23.1823
    23.3386  23.3386  25.8449  25.8449  26.0119  26.0119  26.4044  26.4044
    26.4646  26.7685  26.7685  27.1728  27.8438  27.8439  28.5181  28.5183
    28.8091  29.2797  29.2797  29.3550  29.3550  29.6274  29.6274  29.6864
    29.6864  29.7683  29.7683  29.9144  30.0356  30.0356  30.1989  30.1989
    30.2074  30.2075

          k = 0.0556 0.0556 0.3882 ( 33051 PWs)   bands (ev):

   -64.9027 -64.8949 -64.8763 -64.8762 -64.8720 -64.8719 -64.8713 -64.8712
   -64.8676 -64.8675 -64.8632 -64.8622 -64.8613 -64.8606 -64.8604 -64.8598
   -64.8593 -64.8586 -64.8583 -64.8523 -64.8522 -64.8511 -64.8510 -64.8507
   -64.8480 -64.8479 -64.8474 -64.8473 -64.8455 -64.8448 -64.8446 -64.8440
   -30.7713 -30.7671 -30.7671 -30.7613 -30.7530 -30.7530 -30.7416 -30.7406
   -30.7351 -30.7351 -30.7276 -30.7276 -30.7274 -30.7002 -30.6969 -30.6968
   -30.6920 -30.6919 -30.6903 -30.6903 -30.6809 -30.6808 -30.6635 -30.6635
   -30.6560 -30.6560 -30.6456 -30.6456 -30.6408 -30.6408 -30.6405 -30.6405
   -30.6355 -30.6355 -30.6191 -30.6191 -30.6169 -30.6169 -30.6077 -30.6077
   -30.5817 -30.5817 -30.5605 -30.5601 -30.5592 -30.5589 -30.5479 -30.5466
   -30.5428 -30.5351 -30.5351 -30.5348 -30.5347 -30.5339 -30.5339 -30.5325
   -30.5324 -30.5305 -30.5295 -30.5211 -30.5210 -30.5210 -30.5128 -30.5128
   -30.5088 -30.5088 -30.5086 -30.5086 -30.5070 -30.5006 -30.5003 -30.5003
   -30.4999 -30.4999 -30.4924 -30.4830 -30.4829 -30.4790 -30.4775 -30.4757
   -30.4750 -30.4748 -30.4743 -30.4743 -30.4742 -30.4706 -30.4697 -30.4697
   -30.4689 -30.4624 -30.4624 -30.4563 -30.4500 -30.4492 -30.4329 -30.4319
    12.6933  13.2879  14.2130  14.2856  14.2857  14.2962  14.3485  14.3485
    14.3858  14.4327  14.4589  14.5476  14.5476  14.5816  14.5816  14.6213
    14.6213  14.6340  14.6924  14.7053  14.7053  14.7571  14.7808  14.7809
    14.9195  14.9195  14.9260  14.9261  15.1245  15.1246  15.2174  15.2175
    15.2728  15.2729  15.3420  15.3421  15.3585  15.3585  15.5002  15.5002
    15.5526  15.5527  15.5636  15.5636  15.6624  15.6625  15.7006  15.7006
    15.7164  15.7164  15.7596  15.7596  15.8055  15.8056  15.9169  15.9480
    15.9481  15.9782  15.9782  16.0850  16.1359  16.1359  16.1366  16.1366
    16.1612  16.1612  16.2154  16.2261  16.2622  16.2805  16.2806  16.3208
    16.3208  16.3599  16.4501  16.4502  16.5917  16.6351  16.6352  16.6606
    16.6611  16.6622  16.6903  16.6904  16.6982  16.6983  16.8518  16.8952
    16.8952  16.9363  16.9421  16.9484  17.1248  17.1288  17.1289  17.1425
    17.3670  17.3670  17.4954  17.4955  17.4982  17.5198  17.5198  17.6910
    17.6912  17.7284  17.7284  17.7361  17.7363  17.7515  17.7517  17.7567
    17.7896  17.7896  17.8769  17.8770  17.9144  17.9176  17.9176  17.9187
    17.9189  17.9372  17.9373  17.9493  17.9494  18.0371  18.0944  18.1486
    18.1487  18.2276  18.2973  18.2973  18.3905  18.3905  18.4264  18.4652
    18.5491  18.5491  18.5554  18.6086  18.6148  18.6149  18.6360  18.6360
    18.7892  18.7893  18.8030  18.9008  18.9042  18.9042  18.9320  18.9384
    18.9440  18.9440  18.9846  19.0486  19.0486  19.0493  19.0493  19.1232
    19.2411  19.2411  19.3596  19.4375  19.4380  19.4385  19.4391  19.6406
    19.6406  20.0500  20.0501  20.4624  20.7558  20.8344  21.0122  21.0122
    21.2955  21.2955  21.4801  21.8312  23.3424  23.3424  23.8898  23.8898
    23.9361  23.9361  24.9606  24.9606  25.2948  25.2948  25.5095  25.5095
    26.8138  27.2304  27.2304  27.7124  28.0118  28.1938  28.1938  28.5429
    28.5429  28.8522  28.8523  29.0967  29.1090  29.1090  29.4997  29.4997
    29.6451  29.6451  29.7204  29.7205  30.1585  30.1585  30.1791  30.1792
    30.4028  30.4028

          k = 0.0556 0.0556-0.4992 ( 33078 PWs)   bands (ev):

   -64.8995 -64.8987 -64.8747 -64.8746 -64.8740 -64.8739 -64.8700 -64.8699
   -64.8692 -64.8691 -64.8631 -64.8624 -64.8613 -64.8606 -64.8604 -64.8598
   -64.8591 -64.8584 -64.8547 -64.8539 -64.8503 -64.8502 -64.8496 -64.8495
   -64.8495 -64.8494 -64.8487 -64.8486 -64.8455 -64.8448 -64.8446 -64.8440
   -30.7573 -30.7570 -30.7527 -30.7524 -30.7519 -30.7516 -30.7454 -30.7450
   -30.7418 -30.7418 -30.7410 -30.7410 -30.7231 -30.7223 -30.6948 -30.6947
   -30.6945 -30.6944 -30.6871 -30.6871 -30.6869 -30.6869 -30.6525 -30.6525
   -30.6521 -30.6521 -30.6473 -30.6473 -30.6466 -30.6466 -30.6314 -30.6314
   -30.6311 -30.6311 -30.6310 -30.6310 -30.6303 -30.6303 -30.5940 -30.5940
   -30.5933 -30.5933 -30.5604 -30.5598 -30.5596 -30.5590 -30.5403 -30.5395
   -30.5391 -30.5383 -30.5240 -30.5237 -30.5233 -30.5232 -30.5225 -30.5225
   -30.5221 -30.5221 -30.5218 -30.5217 -30.5212 -30.5212 -30.5209 -30.5209
   -30.5157 -30.5154 -30.5150 -30.5147 -30.5099 -30.5099 -30.5092 -30.5091
   -30.5058 -30.5055 -30.4786 -30.4782 -30.4782 -30.4779 -30.4778 -30.4778
   -30.4769 -30.4763 -30.4757 -30.4750 -30.4748 -30.4742 -30.4702 -30.4694
   -30.4653 -30.4653 -30.4650 -30.4650 -30.4410 -30.4403 -30.4401 -30.4394
    12.9655  12.9665  14.3215  14.3223  14.4439  14.4443  14.4448  14.4453
    14.4462  14.4462  14.5086  14.5086  14.5094  14.5095  14.5553  14.5554
    14.5639  14.5648  14.7134  14.7134  14.7143  14.7143  14.7483  14.7483
    14.7491  14.7491  14.9492  14.9493  14.9500  14.9500  15.3003  15.3003
    15.3006  15.3007  15.4158  15.4159  15.4165  15.4166  15.4419  15.4419
    15.4426  15.4426  15.5763  15.5763  15.5770  15.5770  15.7291  15.7291
    15.7293  15.7293  15.7365  15.7365  15.7366  15.7367  15.9479  15.9479
    15.9480  15.9480  16.0769  16.0776  16.1384  16.1385  16.1391  16.1391
    16.1539  16.1545  16.2214  16.2219  16.2220  16.2226  16.3149  16.3155
    16.4864  16.4865  16.4865  16.4866  16.5476  16.5477  16.5478  16.5479
    16.7087  16.7089  16.7594  16.7596  16.7602  16.7604  16.7857  16.7866
    16.7873  16.7881  16.7937  16.7939  17.5133  17.5134  17.5139  17.5139
    17.5207  17.5208  17.5210  17.5211  17.5244  17.5248  17.5679  17.5682
    17.6274  17.6281  17.7332  17.7333  17.7338  17.7339  17.8180  17.8181
    17.8187  17.8188  17.8294  17.8294  17.8297  17.8297  17.8326  17.8327
    17.8332  17.8333  17.8723  17.8724  17.8730  17.8730  18.0472  18.0472
    18.0478  18.0479  18.1545  18.1553  18.5983  18.5988  18.5990  18.5995
    18.6254  18.6255  18.7386  18.7388  18.7393  18.7394  18.7464  18.7471
    18.7761  18.7764  18.7830  18.7833  18.8383  18.8383  18.8388  18.8389
    18.8460  18.8460  18.8465  18.8465  19.0017  19.0021  19.2726  19.2726
    19.2727  19.2728  19.4375  19.4381  19.4383  19.4390  19.6327  19.6328
    19.6328  19.6329  20.0769  20.0775  20.6268  20.6275  21.1757  21.1758
    21.1765  21.1765  21.6926  21.6933  24.1198  24.1199  24.1202  24.1202
    24.5968  24.5968  24.5974  24.5974  24.6669  24.6669  24.6672  24.6672
    27.3368  27.3369  27.8275  27.8276  27.8282  27.8283  28.3578  28.3579
    28.6229  28.6229  28.6236  28.6237  29.2604  29.2606  29.2612  29.2614
    29.5876  29.5880  29.5882  29.5887  30.3510  30.3510  30.3518  30.3519
    30.6328  30.6334

          k = 0.0556 0.1667 0.0555 ( 33037 PWs)   bands (ev):

   -64.9073 -64.8848 -64.8789 -64.8788 -64.8735 -64.8733 -64.8683 -64.8666
   -64.8665 -64.8635 -64.8631 -64.8631 -64.8614 -64.8606 -64.8606 -64.8605
   -64.8603 -64.8600 -64.8581 -64.8575 -64.8575 -64.8555 -64.8555 -64.8462
   -64.8454 -64.8454 -64.8453 -64.8452 -64.8451 -64.8449 -64.8448 -64.8444
   -30.7890 -30.7872 -30.7872 -30.7841 -30.7682 -30.7676 -30.7662 -30.7051
   -30.6999 -30.6998 -30.6965 -30.6955 -30.6954 -30.6945 -30.6942 -30.6940
   -30.6918 -30.6836 -30.6823 -30.6806 -30.6800 -30.6759 -30.6749 -30.6725
   -30.6712 -30.6614 -30.6606 -30.6553 -30.6541 -30.6470 -30.6397 -30.6396
   -30.6221 -30.6216 -30.6082 -30.6076 -30.5931 -30.5926 -30.5925 -30.5918
   -30.5809 -30.5670 -30.5669 -30.5648 -30.5641 -30.5622 -30.5619 -30.5618
   -30.5613 -30.5597 -30.5596 -30.5583 -30.5575 -30.5568 -30.5565 -30.5558
   -30.5558 -30.5553 -30.5528 -30.5478 -30.5474 -30.5092 -30.5081 -30.4988
   -30.4987 -30.4940 -30.4931 -30.4883 -30.4876 -30.4864 -30.4864 -30.4849
   -30.4844 -30.4822 -30.4811 -30.4806 -30.4804 -30.4800 -30.4795 -30.4763
   -30.4758 -30.4758 -30.4757 -30.4755 -30.4752 -30.4730 -30.4729 -30.4724
   -30.4723 -30.4716 -30.4687 -30.4640 -30.4634 -30.4294 -30.4227 -30.4220
    12.3369  13.9939  14.0556  14.0676  14.0676  14.1167  14.1440  14.1441
    14.1575  14.3235  14.3378  14.3379  14.3386  14.3441  14.5346  14.5400
    14.5573  14.9482  14.9484  15.0092  15.0636  15.0689  15.0703  15.0757
    15.1034  15.1844  15.1845  15.2082  15.2134  15.2239  15.2296  15.2300
    15.3763  15.3765  15.3894  15.3957  15.4055  15.4075  15.4410  15.4448
    15.4885  15.4899  15.5636  15.7477  15.7492  15.7610  15.7646  15.8064
    15.8102  15.8159  15.8199  15.8745  15.8805  15.9632  15.9671  15.9828
    16.0281  16.0297  16.0763  16.0771  16.0807  16.0854  16.0870  16.1173
    16.1214  16.1645  16.1667  16.1934  16.1950  16.3598  16.3707  16.3750
    16.3752  16.3818  16.3948  16.3957  16.4140  16.4199  16.4399  16.4413
    16.4511  16.4579  16.4691  16.4695  16.4883  16.4999  16.5017  16.5063
    17.0667  17.0712  17.1800  17.1892  17.2023  17.2077  17.2599  17.2599
    17.2777  17.3226  17.3457  17.3492  17.4651  17.4757  17.4788  17.4896
    17.4913  17.5281  17.5300  17.5374  17.5413  17.7483  17.7527  17.7710
    17.7754  17.7796  17.8422  17.8423  17.9209  17.9223  17.9302  17.9312
    17.9318  17.9347  17.9546  18.0053  18.0091  18.0221  18.0225  18.0470
    18.1392  18.1402  18.1465  18.1469  18.1825  18.1859  18.2376  18.2550
    18.2587  18.2895  18.3945  18.5385  18.5445  18.6648  18.6678  18.6720
    18.6974  18.7147  18.7191  18.9297  19.0414  19.0416  19.0642  19.0790
    19.1206  19.1238  19.1258  19.1463  19.1530  19.3097  19.3596  19.3601
    19.3671  19.3680  19.3756  19.4287  19.4299  19.4310  19.4323  20.0948
    20.4644  20.4720  20.5794  20.5795  20.8099  20.8987  20.9468  20.9569
    21.4135  21.4141  21.9458  22.0039  22.0163  22.2012  22.5439  22.5579
    22.8243  22.8546  26.2963  26.4561  26.4568  26.7191  26.7405  26.7478
    26.7511  26.7539  27.3327  27.3466  27.5682  27.5829  28.2517  28.2659
    28.7666  28.7943  29.5859  29.6018  29.6707  29.7140  29.7208  29.8391
    29.8702  29.9215  29.9464  30.1308  30.1548  30.1826  30.2629  30.2643
    30.6784  30.7018

          k = 0.0556 0.1667 0.1664 ( 33051 PWs)   bands (ev):

   -64.9063 -64.8843 -64.8842 -64.8783 -64.8729 -64.8700 -64.8682 -64.8679
   -64.8664 -64.8663 -64.8631 -64.8629 -64.8624 -64.8609 -64.8597 -64.8597
   -64.8595 -64.8594 -64.8577 -64.8575 -64.8557 -64.8556 -64.8535 -64.8462
   -64.8461 -64.8459 -64.8458 -64.8455 -64.8453 -64.8452 -64.8451 -64.8444
   -30.7862 -30.7862 -30.7816 -30.7769 -30.7651 -30.7635 -30.7630 -30.7085
   -30.7077 -30.7061 -30.7052 -30.6966 -30.6957 -30.6944 -30.6934 -30.6925
   -30.6924 -30.6918 -30.6912 -30.6909 -30.6834 -30.6833 -30.6823 -30.6813
   -30.6579 -30.6515 -30.6514 -30.6502 -30.6497 -30.6459 -30.6449 -30.6379
   -30.6368 -30.6271 -30.6235 -30.5995 -30.5947 -30.5945 -30.5808 -30.5806
   -30.5770 -30.5765 -30.5711 -30.5640 -30.5639 -30.5634 -30.5619 -30.5571
   -30.5567 -30.5566 -30.5562 -30.5560 -30.5554 -30.5546 -30.5533 -30.5528
   -30.5515 -30.5513 -30.5392 -30.5389 -30.5336 -30.5120 -30.5109 -30.5057
   -30.5056 -30.4969 -30.4952 -30.4937 -30.4879 -30.4879 -30.4876 -30.4871
   -30.4848 -30.4841 -30.4838 -30.4837 -30.4836 -30.4826 -30.4790 -30.4781
   -30.4778 -30.4771 -30.4749 -30.4742 -30.4741 -30.4731 -30.4725 -30.4725
   -30.4681 -30.4680 -30.4644 -30.4638 -30.4575 -30.4373 -30.4247 -30.4219
    12.4092  14.0413  14.0461  14.1019  14.1020  14.1090  14.1295  14.1706
    14.2105  14.2106  14.3651  14.3653  14.3830  14.3844  14.5780  14.6049
    14.6094  14.9659  14.9700  14.9858  14.9907  15.0157  15.0159  15.0348
    15.0392  15.0592  15.1095  15.1096  15.1287  15.1292  15.2512  15.2547
    15.2562  15.2634  15.2647  15.3161  15.4276  15.4556  15.4564  15.4594
    15.4613  15.4906  15.4914  15.5732  15.5810  15.7206  15.7240  15.8065
    15.8071  15.8176  15.9090  15.9119  15.9241  15.9264  15.9855  15.9878
    15.9974  16.0545  16.0613  16.0640  16.0699  16.1189  16.1231  16.2202
    16.2669  16.2684  16.3071  16.3114  16.3200  16.3204  16.3699  16.3882
    16.4260  16.4265  16.4297  16.4308  16.4312  16.4453  16.4490  16.4635
    16.4948  16.4982  16.4987  16.5002  16.5083  16.5226  16.5270  16.5317
    16.9734  17.0267  17.0331  17.0825  17.1834  17.1899  17.2921  17.3104
    17.3127  17.3182  17.3195  17.3715  17.3757  17.3946  17.3991  17.4493
    17.4537  17.4606  17.5378  17.6091  17.6199  17.6209  17.6388  17.6398
    17.6612  17.9175  17.9178  17.9333  17.9358  17.9365  18.0027  18.0080
    18.0096  18.0238  18.0261  18.0290  18.0341  18.0349  18.1154  18.1176
    18.1432  18.1436  18.3221  18.3247  18.3626  18.3742  18.3768  18.3787
    18.4194  18.4211  18.4233  18.4298  18.4821  18.4838  18.5139  18.5545
    18.6776  18.7848  18.8372  18.8389  18.9705  18.9725  18.9731  18.9902
    19.0887  19.1168  19.1174  19.1326  19.1347  19.1478  19.3016  19.3019
    19.3582  19.3617  19.3664  19.3689  19.3732  19.3779  19.3966  19.8157
    20.0340  20.4331  20.4404  20.4797  20.9240  20.9329  21.1057  21.1062
    21.4934  21.4953  21.9897  22.0031  22.4620  22.4891  22.5309  22.5452
    23.1149  23.1267  26.1006  26.1160  26.2936  26.2943  26.7562  26.8147
    26.8406  26.8709  26.8831  27.1565  27.4480  27.4741  27.8855  27.8989
    28.9073  28.9222  29.1797  29.2024  29.5943  29.6953  29.7186  29.7413
    29.8295  29.8309  30.0447  30.0573  30.1279  30.1725  30.5292  30.5407
    30.8172  30.8429

          k = 0.0556 0.1667 0.2773 ( 33034 PWs)   bands (ev):

   -64.9045 -64.8894 -64.8830 -64.8773 -64.8733 -64.8721 -64.8691 -64.8672
   -64.8661 -64.8652 -64.8633 -64.8630 -64.8629 -64.8615 -64.8613 -64.8592
   -64.8587 -64.8577 -64.8564 -64.8559 -64.8549 -64.8534 -64.8516 -64.8480
   -64.8469 -64.8467 -64.8466 -64.8462 -64.8459 -64.8453 -64.8451 -64.8444
   -30.7807 -30.7795 -30.7722 -30.7659 -30.7589 -30.7579 -30.7536 -30.7256
   -30.7222 -30.7121 -30.7092 -30.7089 -30.7078 -30.7077 -30.6983 -30.6983
   -30.6969 -30.6918 -30.6911 -30.6892 -30.6874 -30.6861 -30.6829 -30.6764
   -30.6688 -30.6561 -30.6528 -30.6465 -30.6427 -30.6415 -30.6380 -30.6361
   -30.6313 -30.6301 -30.6209 -30.6106 -30.6076 -30.5943 -30.5901 -30.5793
   -30.5766 -30.5750 -30.5701 -30.5634 -30.5620 -30.5575 -30.5569 -30.5562
   -30.5547 -30.5540 -30.5520 -30.5481 -30.5452 -30.5433 -30.5427 -30.5401
   -30.5384 -30.5360 -30.5262 -30.5253 -30.5226 -30.5200 -30.5176 -30.5174
   -30.5018 -30.5013 -30.5012 -30.4996 -30.4970 -30.4968 -30.4962 -30.4955
   -30.4903 -30.4882 -30.4863 -30.4849 -30.4847 -30.4837 -30.4801 -30.4799
   -30.4797 -30.4780 -30.4772 -30.4762 -30.4729 -30.4729 -30.4706 -30.4646
   -30.4627 -30.4626 -30.4626 -30.4562 -30.4537 -30.4497 -30.4288 -30.4241
    12.5519  13.6954  14.1477  14.1682  14.1826  14.1902  14.1923  14.2371
    14.3024  14.3147  14.4190  14.4485  14.4607  14.4726  14.5731  14.6492
    14.7106  14.7849  14.8076  14.8375  14.8688  14.8736  14.8841  14.9167
    15.0088  15.0190  15.0419  15.0533  15.0738  15.0991  15.1720  15.1799
    15.1892  15.2058  15.2360  15.2865  15.3278  15.3479  15.3769  15.4789
    15.4915  15.5009  15.5439  15.6140  15.6501  15.6648  15.6745  15.7540
    15.7684  15.7789  15.7967  15.8109  15.8580  15.9220  15.9288  15.9732
    15.9797  15.9917  16.0797  16.1262  16.1680  16.1753  16.2290  16.2306
    16.2494  16.2557  16.2613  16.2948  16.3197  16.3441  16.3475  16.3837
    16.4120  16.4236  16.4864  16.5167  16.5390  16.5594  16.5611  16.5670
    16.5908  16.6062  16.6149  16.6224  16.6364  16.7391  16.8230  16.8502
    16.8778  16.8846  16.9058  16.9957  17.0198  17.1177  17.1271  17.1426
    17.2127  17.2300  17.2338  17.3060  17.3130  17.3880  17.3943  17.5005
    17.5131  17.5363  17.5430  17.5934  17.6404  17.7233  17.7736  17.7803
    17.7962  17.8675  17.8856  17.9005  17.9307  17.9805  18.0120  18.0314
    18.0480  18.0953  18.0976  18.1379  18.1448  18.1562  18.1581  18.1665
    18.1777  18.2059  18.2824  18.3250  18.3414  18.3728  18.4049  18.4676
    18.4769  18.5046  18.5114  18.5124  18.5177  18.5380  18.5446  18.6296
    18.6385  18.6607  18.7545  18.8372  18.8654  18.8885  18.9658  18.9807
    19.0524  19.0908  19.0921  19.0965  19.1754  19.1934  19.1945  19.2011
    19.2265  19.2307  19.2675  19.3659  19.3699  19.3760  19.3785  19.6452
    19.8504  20.0057  20.3766  20.4646  20.5090  20.8843  21.0081  21.3963
    21.5934  21.8581  21.9714  22.1134  22.5090  22.6367  22.9641  23.1796
    23.5655  23.7637  25.2691  25.4702  25.9137  26.1583  26.2954  26.4238
    26.4648  26.9373  27.1511  27.1671  27.1834  27.6604  27.6850  28.2949
    28.4277  28.7073  28.8260  29.0295  29.1538  29.2449  29.4652  29.6516
    29.8301  29.9292  29.9341  30.1509  30.2048  30.4277  30.5045  30.5433
    30.7678  30.8663

          k = 0.0556 0.1667 0.3882 ( 33060 PWs)   bands (ev):

   -64.9018 -64.8941 -64.8813 -64.8763 -64.8758 -64.8716 -64.8709 -64.8673
   -64.8662 -64.8656 -64.8641 -64.8632 -64.8627 -64.8617 -64.8588 -64.8583
   -64.8579 -64.8578 -64.8564 -64.8534 -64.8524 -64.8513 -64.8507 -64.8498
   -64.8485 -64.8483 -64.8478 -64.8469 -64.8462 -64.8454 -64.8451 -64.8444
   -30.7716 -30.7691 -30.7594 -30.7517 -30.7500 -30.7497 -30.7430 -30.7399
   -30.7394 -30.7266 -30.7264 -30.7248 -30.7166 -30.7074 -30.7056 -30.7008
   -30.7007 -30.7003 -30.6991 -30.6955 -30.6863 -30.6823 -30.6793 -30.6718
   -30.6636 -30.6597 -30.6546 -30.6506 -30.6475 -30.6394 -30.6309 -30.6262
   -30.6246 -30.6236 -30.6197 -30.6150 -30.6073 -30.6052 -30.6027 -30.5922
   -30.5895 -30.5794 -30.5570 -30.5563 -30.5540 -30.5539 -30.5535 -30.5512
   -30.5482 -30.5459 -30.5445 -30.5366 -30.5334 -30.5334 -30.5325 -30.5316
   -30.5283 -30.5279 -30.5257 -30.5226 -30.5151 -30.5144 -30.5108 -30.5107
   -30.5100 -30.5099 -30.5097 -30.5083 -30.5078 -30.5076 -30.5075 -30.4966
   -30.4950 -30.4946 -30.4875 -30.4872 -30.4859 -30.4852 -30.4844 -30.4831
   -30.4820 -30.4810 -30.4752 -30.4750 -30.4734 -30.4713 -30.4688 -30.4661
   -30.4656 -30.4633 -30.4574 -30.4524 -30.4521 -30.4455 -30.4349 -30.4290
    12.7613  13.3481  14.2609  14.2759  14.2922  14.3077  14.3215  14.3429
    14.4316  14.4543  14.4829  14.4985  14.5644  14.5727  14.5795  14.6044
    14.6284  14.6600  14.6675  14.6684  14.7283  14.7444  14.7935  14.8043
    14.8251  14.8542  14.9400  14.9582  14.9766  15.0575  15.1688  15.1892
    15.1941  15.2107  15.2485  15.3039  15.3103  15.4346  15.4447  15.4670
    15.4955  15.5107  15.5717  15.5874  15.6048  15.6116  15.6135  15.6208
    15.6589  15.7002  15.7585  15.7883  15.7984  15.8570  15.9256  15.9561
    15.9855  16.0342  16.1428  16.1463  16.1785  16.2069  16.2150  16.2203
    16.2226  16.2304  16.2789  16.3090  16.3303  16.3337  16.3367  16.3674
    16.4073  16.4520  16.4621  16.5953  16.5990  16.6534  16.6606  16.6705
    16.6750  16.6774  16.7172  16.7309  16.7503  16.8130  16.8205  16.8244
    16.9050  16.9158  16.9391  17.0074  17.0380  17.0640  17.1024  17.1239
    17.2806  17.2842  17.3060  17.3260  17.3363  17.3574  17.4540  17.5440
    17.5483  17.5676  17.6309  17.6792  17.7280  17.7463  17.7548  17.7574
    17.7655  17.7835  17.8290  17.8602  17.8996  17.9224  17.9303  17.9375
    17.9891  17.9956  18.0434  18.0819  18.0991  18.1504  18.1785  18.1902
    18.2216  18.2239  18.2309  18.3613  18.3803  18.3838  18.4108  18.4170
    18.5295  18.5667  18.6080  18.6419  18.6755  18.6998  18.7020  18.7080
    18.7122  18.7178  18.7421  18.8034  18.8077  18.9074  18.9112  18.9358
    18.9593  19.0023  19.0049  19.0500  19.0506  19.0511  19.0545  19.1437
    19.2176  19.2919  19.3661  19.3705  19.3712  19.3739  19.6087  19.6278
    19.7353  20.0005  20.0284  20.2804  20.5358  20.6054  20.8108  21.1440
    21.6339  21.9099  21.9887  22.4263  22.8102  23.3587  23.5390  23.8981
    24.1338  24.4081  24.4636  24.8150  25.0111  25.4539  25.5379  26.0620
    26.4946  26.8185  27.4366  27.5200  27.5233  27.7265  27.9850  28.0257
    28.2402  28.2548  28.4806  28.7800  28.9184  29.1151  29.4750  29.5556
    29.6862  29.8568  29.8782  30.0249  30.1123  30.3030  30.3170  30.3669
    30.4387  30.7091

          k = 0.0556 0.1667-0.4992 ( 33066 PWs)   bands (ev):

   -64.8987 -64.8979 -64.8794 -64.8786 -64.8743 -64.8735 -64.8696 -64.8689
   -64.8653 -64.8652 -64.8645 -64.8645 -64.8626 -64.8619 -64.8587 -64.8579
   -64.8575 -64.8567 -64.8545 -64.8538 -64.8511 -64.8506 -64.8503 -64.8498
   -64.8498 -64.8490 -64.8486 -64.8478 -64.8462 -64.8454 -64.8451 -64.8444
   -30.7589 -30.7586 -30.7556 -30.7553 -30.7440 -30.7437 -30.7395 -30.7389
   -30.7387 -30.7381 -30.7351 -30.7347 -30.7225 -30.7218 -30.7045 -30.7044
   -30.7017 -30.7013 -30.7013 -30.7013 -30.6818 -30.6816 -30.6719 -30.6714
   -30.6599 -30.6598 -30.6595 -30.6593 -30.6398 -30.6395 -30.6306 -30.6302
   -30.6198 -30.6192 -30.6143 -30.6135 -30.6093 -30.6090 -30.6017 -30.6012
   -30.5916 -30.5909 -30.5570 -30.5564 -30.5536 -30.5532 -30.5435 -30.5427
   -30.5383 -30.5375 -30.5364 -30.5356 -30.5337 -30.5334 -30.5264 -30.5261
   -30.5238 -30.5233 -30.5218 -30.5216 -30.5205 -30.5201 -30.5198 -30.5194
   -30.5176 -30.5168 -30.5076 -30.5073 -30.5042 -30.5034 -30.4972 -30.4969
   -30.4968 -30.4961 -30.4918 -30.4914 -30.4866 -30.4862 -30.4841 -30.4834
   -30.4825 -30.4818 -30.4792 -30.4788 -30.4746 -30.4739 -30.4674 -30.4666
   -30.4665 -30.4662 -30.4539 -30.4537 -30.4431 -30.4424 -30.4365 -30.4361
    13.0299  13.0309  14.3704  14.3712  14.4087  14.4088  14.4562  14.4569
    14.4696  14.4704  14.4812  14.4820  14.4872  14.4872  14.5962  14.5962
    14.6019  14.6028  14.6261  14.6262  14.6830  14.6836  14.7367  14.7375
    14.7740  14.7747  14.8514  14.8519  15.0274  15.0281  15.1106  15.1107
    15.3046  15.3048  15.3107  15.3113  15.3441  15.3449  15.4472  15.4480
    15.5225  15.5226  15.5504  15.5512  15.6007  15.6011  15.6245  15.6248
    15.6738  15.6738  15.7093  15.7100  15.7125  15.7130  16.0613  16.0619
    16.0811  16.0818  16.0865  16.0871  16.1043  16.1049  16.1697  16.1698
    16.2664  16.2670  16.2831  16.2835  16.3784  16.3789  16.4231  16.4238
    16.4849  16.4851  16.5279  16.5280  16.5421  16.5423  16.6575  16.6577
    16.7018  16.7020  16.7666  16.7669  16.7835  16.7843  16.7879  16.7887
    16.8483  16.8486  16.8709  16.8712  17.3135  17.3140  17.3233  17.3238
    17.3788  17.3790  17.3908  17.3911  17.4166  17.4169  17.4651  17.4653
    17.5051  17.5056  17.6477  17.6483  17.6583  17.6589  17.7315  17.7318
    17.7433  17.7439  17.7806  17.7809  17.7870  17.7875  17.8545  17.8552
    17.9653  17.9660  18.0045  18.0052  18.0755  18.0761  18.1488  18.1496
    18.2708  18.2715  18.3207  18.3214  18.3931  18.3936  18.5607  18.5613
    18.6015  18.6016  18.6184  18.6191  18.7549  18.7552  18.7775  18.7775
    18.8382  18.8387  18.8639  18.8643  18.8688  18.8690  18.8746  18.8749
    18.8831  18.8835  18.8856  18.8860  18.9752  18.9753  19.0265  19.0267
    19.2406  19.2407  19.3671  19.3677  19.3719  19.3727  19.6118  19.6119
    20.0753  20.0755  20.1525  20.1532  20.4135  20.4140  20.7144  20.7151
    21.8025  21.8032  22.2633  22.2640  23.5793  23.5797  24.1530  24.1533
    24.1649  24.1655  24.6864  24.6866  24.7725  24.7731  25.2302  25.2305
    26.9094  26.9095  27.3465  27.3466  27.8107  27.8114  27.9695  27.9702
    28.3552  28.3559  28.3745  28.3746  28.9327  28.9329  29.3247  29.3249
    29.8652  29.8660  30.0263  30.0269  30.0369  30.0373  30.1485  30.1494
    30.8052  31.0055

          k = 0.0556 0.2778 0.0555 ( 33038 PWs)   bands (ev):

   -64.9054 -64.8900 -64.8779 -64.8778 -64.8726 -64.8725 -64.8694 -64.8694
   -64.8655 -64.8654 -64.8633 -64.8631 -64.8619 -64.8606 -64.8606 -64.8605
   -64.8603 -64.8596 -64.8582 -64.8547 -64.8547 -64.8531 -64.8531 -64.8479
   -64.8464 -64.8463 -64.8462 -64.8460 -64.8452 -64.8450 -64.8448 -64.8446
   -30.7820 -30.7789 -30.7789 -30.7743 -30.7619 -30.7614 -30.7565 -30.7222
   -30.7165 -30.7164 -30.7114 -30.7111 -30.7083 -30.6979 -30.6971 -30.6958
   -30.6950 -30.6858 -30.6854 -30.6765 -30.6758 -30.6751 -30.6748 -30.6736
   -30.6621 -30.6613 -30.6603 -30.6591 -30.6493 -30.6483 -30.6306 -30.6299
   -30.6227 -30.6223 -30.6223 -30.6220 -30.6066 -30.6059 -30.6039 -30.6033
   -30.5712 -30.5708 -30.5627 -30.5616 -30.5608 -30.5601 -30.5585 -30.5554
   -30.5532 -30.5504 -30.5503 -30.5476 -30.5474 -30.5470 -30.5466 -30.5456
   -30.5455 -30.5375 -30.5336 -30.5334 -30.5278 -30.5209 -30.5195 -30.5042
   -30.5041 -30.4977 -30.4970 -30.4959 -30.4955 -30.4924 -30.4916 -30.4916
   -30.4889 -30.4883 -30.4879 -30.4878 -30.4819 -30.4802 -30.4774 -30.4758
   -30.4757 -30.4756 -30.4755 -30.4753 -30.4751 -30.4725 -30.4721 -30.4720
   -30.4692 -30.4620 -30.4615 -30.4608 -30.4600 -30.4406 -30.4269 -30.4259
    12.4820  13.6438  14.1218  14.1578  14.1579  14.1861  14.2265  14.2265
    14.2526  14.3786  14.4216  14.4221  14.4381  14.4432  14.5255  14.6355
    14.6405  14.8007  14.8010  14.8437  14.8565  14.9341  14.9342  14.9857
    15.0921  15.0935  15.1295  15.1338  15.1519  15.1569  15.1608  15.1637
    15.2603  15.2647  15.2763  15.2775  15.3879  15.3900  15.4326  15.4380
    15.5524  15.5545  15.6924  15.6941  15.7275  15.7298  15.7441  15.7462
    15.7501  15.7634  15.7671  15.7930  15.7938  15.9040  15.9067  15.9762
    15.9768  16.0301  16.0329  16.0344  16.1043  16.1066  16.1243  16.1288
    16.1313  16.1344  16.2019  16.2128  16.2138  16.3027  16.3348  16.3382
    16.3426  16.3944  16.3947  16.4029  16.4943  16.5258  16.5339  16.5455
    16.5521  16.5657  16.7093  16.7116  16.7277  16.7775  16.8625  16.8652
    16.9182  16.9255  16.9366  16.9401  17.0081  17.0877  17.0936  17.0936
    17.1109  17.1172  17.4179  17.4335  17.4360  17.5310  17.5337  17.5977
    17.5999  17.6138  17.6149  17.6720  17.6732  17.7026  17.7058  17.7661
    17.7694  17.8772  17.9084  17.9095  17.9098  17.9121  17.9329  17.9342
    17.9401  17.9402  18.0367  18.1375  18.1890  18.1896  18.2046  18.2048
    18.2150  18.2981  18.3021  18.3037  18.3444  18.3448  18.3457  18.3474
    18.3927  18.3944  18.4198  18.4353  18.4376  18.5080  18.6838  18.6872
    18.7439  18.7518  18.7574  18.7987  18.8977  18.8981  18.9475  18.9475
    18.9538  19.0286  19.0358  19.0396  19.0504  19.1753  19.2273  19.2281
    19.2333  19.2346  19.2618  19.4279  19.4293  19.4312  19.4317  20.0375
    20.0432  20.2666  20.4867  20.4951  20.8020  20.8023  20.8398  21.1795
    21.3655  21.3661  21.5908  21.9023  22.6392  22.6524  23.1848  23.1995
    23.3130  23.3424  25.8578  25.8711  25.9948  26.0233  26.4165  26.4309
    26.4673  26.7712  26.7723  27.1760  27.8158  27.8319  28.4896  28.5050
    28.8266  29.2677  29.2785  29.3710  29.3724  29.6016  29.6241  29.6442
    29.6858  29.7550  29.7633  29.9302  29.9997  30.0348  30.1668  30.1808
    30.1978  30.2030

          k = 0.0556 0.2778 0.1664 ( 33038 PWs)   bands (ev):

   -64.9045 -64.8893 -64.8831 -64.8773 -64.8733 -64.8721 -64.8691 -64.8674
   -64.8660 -64.8653 -64.8633 -64.8628 -64.8628 -64.8616 -64.8614 -64.8591
   -64.8586 -64.8578 -64.8563 -64.8560 -64.8549 -64.8534 -64.8515 -64.8478
   -64.8468 -64.8467 -64.8465 -64.8460 -64.8458 -64.8456 -64.8451 -64.8446
   -30.7808 -30.7794 -30.7721 -30.7658 -30.7588 -30.7573 -30.7540 -30.7251
   -30.7215 -30.7112 -30.7087 -30.7086 -30.7085 -30.7083 -30.6991 -30.6975
   -30.6974 -30.6921 -30.6912 -30.6891 -30.6879 -30.6857 -30.6838 -30.6769
   -30.6697 -30.6556 -30.6536 -30.6466 -30.6426 -30.6415 -30.6382 -30.6363
   -30.6324 -30.6291 -30.6197 -30.6108 -30.6076 -30.5943 -30.5907 -30.5789
   -30.5764 -30.5749 -30.5685 -30.5633 -30.5614 -30.5590 -30.5567 -30.5563
   -30.5552 -30.5550 -30.5526 -30.5477 -30.5447 -30.5433 -30.5424 -30.5396
   -30.5385 -30.5362 -30.5258 -30.5254 -30.5239 -30.5198 -30.5176 -30.5165
   -30.5015 -30.5013 -30.5006 -30.4992 -30.4968 -30.4962 -30.4961 -30.4950
   -30.4908 -30.4876 -30.4871 -30.4847 -30.4843 -30.4842 -30.4806 -30.4798
   -30.4793 -30.4775 -30.4774 -30.4768 -30.4735 -30.4725 -30.4712 -30.4652
   -30.4632 -30.4626 -30.4621 -30.4562 -30.4537 -30.4497 -30.4289 -30.4241
    12.5524  13.6994  14.1435  14.1687  14.1827  14.1906  14.1928  14.2372
    14.3024  14.3149  14.4195  14.4484  14.4611  14.4724  14.5767  14.6496
    14.7069  14.7853  14.8106  14.8415  14.8685  14.8769  14.8847  14.9171
    15.0062  15.0201  15.0430  15.0534  15.0693  15.0949  15.1723  15.1805
    15.1893  15.2045  15.2365  15.2854  15.3274  15.3466  15.3773  15.4784
    15.4910  15.5011  15.5433  15.6069  15.6497  15.6669  15.6721  15.7628
    15.7678  15.7788  15.7953  15.8099  15.8599  15.9205  15.9321  15.9750
    15.9777  15.9881  16.0747  16.1282  16.1715  16.1752  16.2246  16.2359
    16.2485  16.2536  16.2699  16.2946  16.3277  16.3499  16.3501  16.3813
    16.4077  16.4325  16.4848  16.5076  16.5374  16.5549  16.5560  16.5588
    16.5906  16.6069  16.6090  16.6205  16.6384  16.7398  16.8198  16.8463
    16.8707  16.8821  16.9083  16.9986  17.0118  17.1077  17.1207  17.1354
    17.2070  17.2245  17.2410  17.3146  17.3154  17.3939  17.3974  17.5045
    17.5180  17.5378  17.5471  17.5956  17.6414  17.7250  17.7782  17.7806
    17.7984  17.8756  17.8861  17.9016  17.9337  17.9797  18.0169  18.0235
    18.0484  18.0936  18.0982  18.1387  18.1465  18.1568  18.1582  18.1683
    18.1762  18.2068  18.2788  18.3174  18.3411  18.3732  18.4033  18.4685
    18.4777  18.5053  18.5098  18.5145  18.5217  18.5402  18.5434  18.6294
    18.6424  18.6600  18.7546  18.8349  18.8661  18.8888  18.9656  18.9843
    19.0538  19.0932  19.0948  19.0958  19.1807  19.1939  19.1944  19.1998
    19.2333  19.2367  19.2706  19.3575  19.3631  19.3705  19.3730  19.6452
    19.8469  20.0110  20.3697  20.4718  20.5065  20.8760  21.0061  21.3932
    21.5918  21.8826  21.9590  22.1170  22.4960  22.6524  22.9402  23.1960
    23.5677  23.7652  25.2827  25.4538  25.9387  26.1687  26.2968  26.4440
    26.4681  26.9461  27.1298  27.1589  27.1851  27.6583  27.6623  28.3136
    28.4154  28.6838  28.8448  29.0277  29.1401  29.2211  29.4757  29.6511
    29.8292  29.9289  29.9482  30.1082  30.1875  30.4267  30.5183  30.5426
    30.7622  30.8323

          k = 0.0556 0.2778 0.2773 ( 33056 PWs)   bands (ev):

   -64.9027 -64.8880 -64.8880 -64.8770 -64.8763 -64.8713 -64.8687 -64.8686
   -64.8650 -64.8649 -64.8646 -64.8625 -64.8623 -64.8622 -64.8580 -64.8579
   -64.8578 -64.8576 -64.8553 -64.8551 -64.8539 -64.8538 -64.8501 -64.8479
   -64.8478 -64.8476 -64.8475 -64.8470 -64.8467 -64.8457 -64.8456 -64.8447
   -30.7757 -30.7757 -30.7618 -30.7538 -30.7529 -30.7495 -30.7490 -30.7256
   -30.7251 -30.7241 -30.7234 -30.7119 -30.7111 -30.7039 -30.7035 -30.7012
   -30.7009 -30.6984 -30.6978 -30.6959 -30.6954 -30.6864 -30.6851 -30.6844
   -30.6803 -30.6798 -30.6519 -30.6463 -30.6399 -30.6392 -30.6320 -30.6319
   -30.6245 -30.6228 -30.6156 -30.6144 -30.5889 -30.5872 -30.5871 -30.5767
   -30.5766 -30.5754 -30.5746 -30.5655 -30.5639 -30.5520 -30.5517 -30.5509
   -30.5503 -30.5501 -30.5490 -30.5487 -30.5449 -30.5444 -30.5364 -30.5362
   -30.5296 -30.5283 -30.5274 -30.5272 -30.5143 -30.5141 -30.5141 -30.5140
   -30.5092 -30.5090 -30.5069 -30.5068 -30.4982 -30.4981 -30.4963 -30.4956
   -30.4951 -30.4944 -30.4939 -30.4931 -30.4843 -30.4841 -30.4828 -30.4821
   -30.4806 -30.4800 -30.4749 -30.4738 -30.4733 -30.4727 -30.4680 -30.4676
   -30.4638 -30.4636 -30.4633 -30.4510 -30.4509 -30.4478 -30.4332 -30.4242
    12.6915  13.8047  13.8081  14.2167  14.2568  14.2600  14.2600  14.2848
    14.4122  14.4123  14.4948  14.5005  14.5009  14.5707  14.6282  14.6690
    14.6735  14.6764  14.7184  14.7185  14.8312  14.8329  14.8349  14.8351
    14.9169  14.9205  14.9404  14.9435  15.1080  15.1084  15.1089  15.1143
    15.1153  15.2133  15.2137  15.2464  15.2466  15.2882  15.2883  15.3680
    15.3681  15.4480  15.5641  15.5645  15.5700  15.5710  15.5958  15.7776
    15.7854  15.8099  15.8116  15.8221  15.8223  15.8291  15.8353  16.0803
    16.0837  16.1510  16.1534  16.2404  16.2421  16.2434  16.2489  16.2854
    16.2869  16.2940  16.3163  16.3172  16.3390  16.4329  16.4586  16.4634
    16.4642  16.5526  16.5554  16.5641  16.5954  16.6189  16.6390  16.6580
    16.6601  16.6619  16.7065  16.7093  16.7191  16.7219  16.7350  16.7706
    16.8697  16.8718  16.8914  16.8962  17.0533  17.0618  17.1065  17.1158
    17.1895  17.1967  17.2448  17.2838  17.3370  17.3419  17.3681  17.3727
    17.3851  17.3898  17.4539  17.4576  17.6007  17.6016  17.7329  17.8214
    17.8221  17.8357  17.8360  17.8419  17.8703  17.9530  17.9542  18.0309
    18.0688  18.1230  18.1242  18.1789  18.1802  18.2252  18.2256  18.2651
    18.2682  18.3760  18.3762  18.3765  18.3815  18.3998  18.3998  18.3999
    18.4045  18.4512  18.4513  18.6063  18.6493  18.6752  18.6767  18.6836
    18.6836  18.6854  18.6865  18.7882  18.7905  18.8304  18.9501  18.9511
    19.0264  19.1007  19.1019  19.1202  19.1320  19.1323  19.2287  19.2339
    19.2355  19.2396  19.2583  19.2624  19.2984  19.3139  19.6189  19.6399
    19.6448  19.9422  19.9473  20.3271  20.4203  20.4270  21.6050  21.6088
    21.9805  21.9818  22.3277  22.3489  22.6282  22.6425  23.1556  23.1702
    23.9714  24.3922  24.6775  24.6919  25.9374  25.9519  26.2948  26.2962
    26.4348  26.4435  26.8905  26.9053  27.5140  27.5238  27.6955  27.8143
    27.8338  28.2231  28.3298  28.3497  28.4311  29.5317  29.7150  29.7279
    29.8695  29.8695  30.2779  30.3051  30.5494  30.5612  30.7162  30.7175
    30.8979  30.9396

          k = 0.0556 0.2778 0.3882 ( 33070 PWs)   bands (ev):

   -64.9001 -64.8926 -64.8860 -64.8804 -64.8750 -64.8710 -64.8702 -64.8680
   -64.8668 -64.8658 -64.8646 -64.8630 -64.8615 -64.8591 -64.8579 -64.8570
   -64.8566 -64.8556 -64.8545 -64.8545 -64.8529 -64.8519 -64.8505 -64.8490
   -64.8489 -64.8487 -64.8487 -64.8477 -64.8468 -64.8464 -64.8455 -64.8447
   -30.7680 -30.7670 -30.7484 -30.7440 -30.7428 -30.7422 -30.7402 -30.7388
   -30.7368 -30.7237 -30.7224 -30.7222 -30.7192 -30.7154 -30.7107 -30.7101
   -30.7098 -30.7032 -30.7026 -30.7018 -30.6962 -30.6929 -30.6856 -30.6847
   -30.6832 -30.6696 -30.6607 -30.6588 -30.6498 -30.6377 -30.6260 -30.6213
   -30.6176 -30.6070 -30.6057 -30.6002 -30.6001 -30.5989 -30.5900 -30.5868
   -30.5747 -30.5676 -30.5655 -30.5612 -30.5576 -30.5575 -30.5515 -30.5498
   -30.5476 -30.5450 -30.5446 -30.5393 -30.5384 -30.5379 -30.5340 -30.5274
   -30.5271 -30.5259 -30.5254 -30.5251 -30.5226 -30.5172 -30.5145 -30.5134
   -30.5121 -30.5100 -30.5059 -30.5056 -30.5038 -30.5013 -30.5012 -30.5009
   -30.4946 -30.4933 -30.4925 -30.4898 -30.4877 -30.4876 -30.4874 -30.4873
   -30.4811 -30.4803 -30.4783 -30.4765 -30.4750 -30.4746 -30.4744 -30.4701
   -30.4650 -30.4650 -30.4568 -30.4467 -30.4447 -30.4409 -30.4393 -30.4271
    12.8953  13.4663  13.9649  14.2883  14.3542  14.3569  14.3691  14.3874
    14.3908  14.5407  14.5417  14.5434  14.5532  14.5776  14.5807  14.6226
    14.6456  14.6512  14.6550  14.6994  14.7105  14.7348  14.7858  14.8002
    14.8184  14.8710  14.8978  14.9104  14.9810  15.0061  15.0327  15.0443
    15.0801  15.1791  15.1836  15.2187  15.2634  15.2899  15.2929  15.3436
    15.3573  15.4055  15.4347  15.4716  15.5099  15.6187  15.6618  15.6806
    15.6979  15.7484  15.8119  15.8416  15.8657  15.8899  15.9383  16.0487
    16.0633  16.0653  16.1499  16.2010  16.2105  16.2691  16.3160  16.3200
    16.3559  16.3581  16.3629  16.3946  16.4289  16.4543  16.4736  16.5578
    16.5663  16.6055  16.6280  16.6307  16.6404  16.6645  16.6743  16.7077
    16.7082  16.7156  16.7255  16.8119  16.8139  16.8309  16.8381  16.8495
    16.8627  16.9402  16.9411  16.9428  17.0198  17.0405  17.0990  17.1141
    17.1300  17.1708  17.1849  17.2034  17.2053  17.2434  17.2715  17.3653
    17.4778  17.4805  17.5045  17.5122  17.5235  17.5356  17.5922  17.6130
    17.6492  17.6791  17.7388  17.7550  17.7628  17.8493  18.0115  18.0553
    18.0665  18.0799  18.0910  18.0984  18.2225  18.2273  18.2420  18.2567
    18.2607  18.3026  18.4085  18.4296  18.4303  18.4404  18.4975  18.5110
    18.5126  18.5866  18.6139  18.6478  18.6528  18.7144  18.7386  18.8099
    18.8221  18.8224  18.8342  18.8348  18.8474  18.8475  18.8762  18.8976
    18.9908  19.0430  19.0473  19.0487  19.0532  19.0561  19.0589  19.0667
    19.1190  19.1886  19.2412  19.2432  19.2540  19.2750  19.5469  19.6295
    19.8545  19.9900  20.1250  20.2153  20.2733  20.3665  21.1087  21.6131
    22.2852  22.2932  22.4952  22.6013  22.8993  23.0810  23.3739  23.8478
    23.8825  24.0904  24.4968  25.0607  25.0755  25.4558  25.7540  26.3098
    26.4988  26.6009  26.7435  26.8770  27.0850  27.1399  27.3942  27.5495
    27.8549  27.8928  28.0791  28.2944  28.8543  29.1797  29.7299  29.8490
    29.9257  29.9625  30.0493  30.1322  30.2140  30.3128  30.8527  30.8643
    31.0229  31.0995

          k = 0.0556 0.2778-0.4992 ( 33082 PWs)   bands (ev):

   -64.8970 -64.8963 -64.8838 -64.8831 -64.8735 -64.8728 -64.8690 -64.8683
   -64.8674 -64.8666 -64.8642 -64.8635 -64.8608 -64.8600 -64.8566 -64.8559
   -64.8558 -64.8551 -64.8542 -64.8535 -64.8519 -64.8511 -64.8511 -64.8506
   -64.8504 -64.8498 -64.8478 -64.8477 -64.8471 -64.8469 -64.8455 -64.8447
   -30.7568 -30.7565 -30.7551 -30.7548 -30.7345 -30.7338 -30.7331 -30.7328
   -30.7324 -30.7323 -30.7218 -30.7214 -30.7213 -30.7206 -30.7179 -30.7179
   -30.7173 -30.7171 -30.7077 -30.7072 -30.6893 -30.6887 -30.6882 -30.6876
   -30.6725 -30.6721 -30.6587 -30.6587 -30.6540 -30.6536 -30.6127 -30.6125
   -30.6105 -30.6102 -30.6039 -30.6035 -30.5981 -30.5973 -30.5867 -30.5865
   -30.5863 -30.5860 -30.5510 -30.5503 -30.5495 -30.5489 -30.5487 -30.5481
   -30.5457 -30.5455 -30.5446 -30.5444 -30.5391 -30.5389 -30.5367 -30.5359
   -30.5261 -30.5255 -30.5237 -30.5236 -30.5172 -30.5168 -30.5167 -30.5164
   -30.5086 -30.5079 -30.5057 -30.5052 -30.5021 -30.5019 -30.5007 -30.5004
   -30.4952 -30.4944 -30.4912 -30.4907 -30.4905 -30.4900 -30.4897 -30.4893
   -30.4844 -30.4836 -30.4814 -30.4810 -30.4767 -30.4759 -30.4689 -30.4686
   -30.4677 -30.4669 -30.4477 -30.4469 -30.4445 -30.4444 -30.4329 -30.4327
    13.1567  13.1577  14.1612  14.1621  14.3971  14.3972  14.4658  14.4666
    14.4895  14.4897  14.4897  14.4900  14.5527  14.5535  14.5949  14.5953
    14.6778  14.6787  14.7061  14.7062  14.7213  14.7214  14.7392  14.7394
    14.7829  14.7837  14.8835  14.8840  14.9277  14.9278  14.9910  14.9916
    15.1656  15.1664  15.1812  15.1817  15.2589  15.2591  15.3240  15.3241
    15.3323  15.3331  15.5127  15.5133  15.5467  15.5468  15.5617  15.5625
    15.8292  15.8292  15.8334  15.8340  15.9397  15.9399  15.9498  15.9504
    15.9726  15.9732  16.0818  16.0823  16.2954  16.2960  16.3815  16.3820
    16.3939  16.3940  16.4178  16.4183  16.4643  16.4646  16.4838  16.4839
    16.5307  16.5309  16.6762  16.6763  16.7237  16.7243  16.7345  16.7347
    16.7566  16.7566  16.7874  16.7880  16.7930  16.7936  16.8028  16.8030
    16.9605  16.9609  16.9864  16.9867  17.1382  17.1386  17.1395  17.1396
    17.1473  17.1478  17.2193  17.2194  17.2342  17.2343  17.2479  17.2481
    17.2989  17.2994  17.5571  17.5577  17.5638  17.5641  17.6157  17.6162
    17.6446  17.6451  17.6654  17.6661  17.6772  17.6774  17.9615  17.9622
    17.9661  17.9666  18.1588  18.1595  18.1808  18.1814  18.1943  18.1950
    18.3552  18.3559  18.4831  18.4838  18.4863  18.4870  18.6085  18.6092
    18.6311  18.6317  18.6754  18.6755  18.7243  18.7246  18.7246  18.7247
    18.8442  18.8448  18.8720  18.8720  18.8963  18.8967  18.9436  18.9439
    18.9457  18.9460  18.9609  18.9611  18.9667  18.9669  18.9833  18.9833
    19.1792  19.1793  19.2474  19.2481  19.2527  19.2533  19.5797  19.5798
    19.7397  19.7404  20.3041  20.3048  20.6139  20.6142  20.8883  20.8889
    22.4958  22.4965  22.8693  22.8699  23.0387  23.0391  23.4876  23.4882
    24.1897  24.1900  24.6661  24.6662  25.1004  25.1011  25.8201  25.8203
    26.5674  26.5675  26.9243  26.9245  27.0117  27.0124  27.3207  27.3214
    27.4836  27.4843  28.6441  28.6442  28.9749  28.9750  29.5524  29.5525
    29.8678  29.8686  30.0093  30.0102  30.4332  30.4340  30.6150  30.6150
    31.2682  31.2688

          k = 0.0556 0.3889 0.0555 ( 33048 PWs)   bands (ev):

   -64.9026 -64.8948 -64.8764 -64.8762 -64.8721 -64.8720 -64.8713 -64.8712
   -64.8677 -64.8676 -64.8631 -64.8623 -64.8606 -64.8606 -64.8605 -64.8603
   -64.8591 -64.8585 -64.8583 -64.8521 -64.8521 -64.8510 -64.8509 -64.8505
   -64.8479 -64.8478 -64.8474 -64.8473 -64.8451 -64.8450 -64.8448 -64.8446
   -30.7711 -30.7670 -30.7669 -30.7610 -30.7528 -30.7524 -30.7421 -30.7402
   -30.7346 -30.7345 -30.7271 -30.7269 -30.7268 -30.7008 -30.6978 -30.6972
   -30.6927 -30.6923 -30.6910 -30.6909 -30.6815 -30.6813 -30.6644 -30.6633
   -30.6567 -30.6559 -30.6466 -30.6454 -30.6414 -30.6413 -30.6405 -30.6403
   -30.6359 -30.6353 -30.6198 -30.6189 -30.6175 -30.6166 -30.6064 -30.6063
   -30.5805 -30.5801 -30.5613 -30.5606 -30.5602 -30.5590 -30.5491 -30.5472
   -30.5426 -30.5349 -30.5348 -30.5341 -30.5340 -30.5336 -30.5334 -30.5322
   -30.5321 -30.5316 -30.5300 -30.5209 -30.5205 -30.5203 -30.5120 -30.5120
   -30.5087 -30.5084 -30.5081 -30.5081 -30.5064 -30.5009 -30.4998 -30.4997
   -30.4992 -30.4992 -30.4920 -30.4832 -30.4828 -30.4796 -30.4783 -30.4757
   -30.4757 -30.4755 -30.4754 -30.4743 -30.4741 -30.4712 -30.4699 -30.4697
   -30.4696 -30.4624 -30.4621 -30.4564 -30.4502 -30.4493 -30.4329 -30.4319
    12.6948  13.2912  14.2143  14.2869  14.2871  14.2965  14.3488  14.3489
    14.3862  14.4357  14.4599  14.5469  14.5478  14.5783  14.5827  14.6243
    14.6245  14.6345  14.6949  14.7060  14.7061  14.7580  14.7777  14.7822
    14.9178  14.9200  14.9253  14.9278  15.1242  15.1267  15.2154  15.2180
    15.2694  15.2736  15.3374  15.3406  15.3581  15.3597  15.4947  15.4987
    15.5531  15.5540  15.5607  15.5608  15.6592  15.6593  15.6984  15.6998
    15.7155  15.7190  15.7562  15.7594  15.8021  15.8076  15.9274  15.9455
    15.9468  15.9786  15.9794  16.0910  16.1304  16.1308  16.1353  16.1359
    16.1656  16.1686  16.2279  16.2343  16.2695  16.2848  16.2903  16.3143
    16.3154  16.3688  16.4435  16.4441  16.5822  16.6246  16.6304  16.6481
    16.6519  16.6609  16.6826  16.6843  16.6909  16.6933  16.8439  16.8872
    16.8920  16.9268  16.9383  16.9412  17.1232  17.1257  17.1267  17.1411
    17.3626  17.3706  17.5001  17.5016  17.5092  17.5253  17.5267  17.6948
    17.6955  17.7307  17.7315  17.7392  17.7407  17.7553  17.7574  17.7683
    17.7925  17.7933  17.8779  17.8788  17.9121  17.9190  17.9201  17.9225
    17.9227  17.9346  17.9365  17.9513  17.9524  18.0354  18.0837  18.1509
    18.1513  18.2181  18.2945  18.3030  18.3922  18.3927  18.4265  18.4658
    18.5487  18.5502  18.5520  18.6092  18.6165  18.6167  18.6380  18.6384
    18.7905  18.7906  18.8057  18.8980  18.9053  18.9082  18.9353  18.9362
    18.9442  18.9448  18.9848  19.0489  19.0504  19.0534  19.0543  19.1224
    19.2408  19.2434  19.3767  19.4279  19.4288  19.4313  19.4316  19.6403
    19.6442  20.0491  20.0557  20.4567  20.7479  20.8593  21.0062  21.0068
    21.2861  21.2868  21.4747  21.8214  23.3476  23.3612  23.8943  23.9093
    23.9132  23.9420  24.9710  24.9846  25.2761  25.3044  25.5191  25.5338
    26.8196  27.2358  27.2371  27.7181  28.0254  28.1664  28.1839  28.5551
    28.5566  28.8242  28.8411  29.0828  29.1036  29.1088  29.4732  29.4933
    29.6051  29.6437  29.6934  29.7139  30.1415  30.1510  30.1669  30.1774
    30.3674  30.3994

          k = 0.0556 0.3889 0.1664 ( 33062 PWs)   bands (ev):

   -64.9017 -64.8940 -64.8813 -64.8763 -64.8758 -64.8717 -64.8708 -64.8674
   -64.8664 -64.8655 -64.8641 -64.8634 -64.8625 -64.8618 -64.8587 -64.8581
   -64.8581 -64.8578 -64.8565 -64.8532 -64.8523 -64.8513 -64.8505 -64.8497
   -64.8483 -64.8483 -64.8479 -64.8468 -64.8460 -64.8457 -64.8450 -64.8447
   -30.7715 -30.7689 -30.7593 -30.7515 -30.7498 -30.7490 -30.7426 -30.7405
   -30.7389 -30.7262 -30.7256 -30.7244 -30.7161 -30.7081 -30.7061 -30.7015
   -30.7011 -30.7007 -30.6995 -30.6956 -30.6865 -30.6828 -30.6790 -30.6725
   -30.6632 -30.6603 -30.6555 -30.6510 -30.6479 -30.6395 -30.6308 -30.6261
   -30.6250 -30.6245 -30.6197 -30.6141 -30.6072 -30.6038 -30.6034 -30.5921
   -30.5888 -30.5778 -30.5566 -30.5564 -30.5545 -30.5544 -30.5537 -30.5527
   -30.5475 -30.5463 -30.5443 -30.5363 -30.5348 -30.5330 -30.5323 -30.5312
   -30.5286 -30.5274 -30.5246 -30.5225 -30.5147 -30.5139 -30.5107 -30.5106
   -30.5102 -30.5098 -30.5097 -30.5076 -30.5072 -30.5071 -30.5071 -30.4964
   -30.4945 -30.4941 -30.4875 -30.4866 -30.4859 -30.4854 -30.4847 -30.4835
   -30.4826 -30.4814 -30.4757 -30.4748 -30.4741 -30.4714 -30.4693 -30.4663
   -30.4662 -30.4630 -30.4574 -30.4525 -30.4524 -30.4455 -30.4351 -30.4291
    12.7625  13.3511  14.2620  14.2761  14.2891  14.3086  14.3227  14.3432
    14.4318  14.4547  14.4856  14.4995  14.5651  14.5728  14.5799  14.6040
    14.6305  14.6630  14.6666  14.6690  14.7307  14.7452  14.7943  14.8051
    14.8260  14.8515  14.9404  14.9589  14.9758  15.0566  15.1694  15.1855
    15.1904  15.2104  15.2489  15.3044  15.3099  15.4334  15.4439  15.4651
    15.4938  15.5106  15.5702  15.5864  15.6032  15.6122  15.6138  15.6218
    15.6528  15.7002  15.7555  15.7873  15.7958  15.8547  15.9353  15.9567
    15.9895  16.0360  16.1427  16.1515  16.1794  16.2044  16.2242  16.2251
    16.2267  16.2277  16.2734  16.3168  16.3245  16.3302  16.3459  16.3671
    16.4177  16.4459  16.4609  16.5845  16.5932  16.6451  16.6500  16.6653
    16.6707  16.6768  16.7161  16.7248  16.7430  16.8068  16.8120  16.8205
    16.9050  16.9196  16.9283  17.0071  17.0354  17.0582  17.0965  17.1166
    17.2769  17.2913  17.3135  17.3303  17.3395  17.3623  17.4596  17.5519
    17.5524  17.5711  17.6343  17.6828  17.7319  17.7460  17.7559  17.7561
    17.7752  17.7816  17.8305  17.8623  17.9017  17.9251  17.9304  17.9358
    17.9921  18.0000  18.0450  18.0728  18.1009  18.1532  18.1793  18.1881
    18.2225  18.2231  18.2283  18.3632  18.3814  18.3842  18.4117  18.4180
    18.5278  18.5681  18.6096  18.6401  18.6773  18.6990  18.7035  18.7095
    18.7140  18.7179  18.7431  18.8067  18.8081  18.9069  18.9114  18.9373
    18.9626  19.0043  19.0048  19.0508  19.0509  19.0556  19.0596  19.1449
    19.2198  19.2920  19.3576  19.3632  19.3645  19.3680  19.6122  19.6258
    19.7470  19.9956  20.0339  20.2740  20.5337  20.6008  20.8035  21.1649
    21.6280  21.8992  21.9842  22.4155  22.8160  23.3768  23.5177  23.9166
    24.1384  24.4192  24.4670  24.7974  25.0340  25.4625  25.5602  26.0705
    26.4997  26.8253  27.4117  27.5117  27.5376  27.7307  27.9589  28.0406
    28.2159  28.2591  28.4767  28.7553  28.9083  29.1256  29.4632  29.5535
    29.6965  29.8483  29.8772  30.0240  30.0737  30.2955  30.3160  30.3632
    30.4316  30.7036

          k = 0.0556 0.3889 0.2773 ( 33073 PWs)   bands (ev):

   -64.9000 -64.8926 -64.8860 -64.8804 -64.8749 -64.8710 -64.8701 -64.8679
   -64.8669 -64.8659 -64.8644 -64.8631 -64.8617 -64.8593 -64.8577 -64.8570
   -64.8566 -64.8557 -64.8546 -64.8543 -64.8528 -64.8519 -64.8503 -64.8489
   -64.8488 -64.8487 -64.8487 -64.8477 -64.8472 -64.8464 -64.8454 -64.8449
   -30.7679 -30.7669 -30.7483 -30.7439 -30.7422 -30.7421 -30.7398 -30.7388
   -30.7374 -30.7230 -30.7228 -30.7227 -30.7189 -30.7151 -30.7109 -30.7108
   -30.7099 -30.7032 -30.7027 -30.7022 -30.6965 -30.6925 -30.6861 -30.6841
   -30.6834 -30.6702 -30.6609 -30.6591 -30.6503 -30.6380 -30.6254 -30.6215
   -30.6176 -30.6081 -30.6056 -30.6000 -30.5991 -30.5988 -30.5901 -30.5877
   -30.5732 -30.5674 -30.5653 -30.5602 -30.5590 -30.5574 -30.5513 -30.5498
   -30.5479 -30.5452 -30.5451 -30.5407 -30.5382 -30.5367 -30.5336 -30.5274
   -30.5268 -30.5261 -30.5252 -30.5251 -30.5225 -30.5170 -30.5145 -30.5134
   -30.5120 -30.5099 -30.5053 -30.5052 -30.5036 -30.5014 -30.5011 -30.5005
   -30.4945 -30.4939 -30.4929 -30.4894 -30.4881 -30.4878 -30.4876 -30.4870
   -30.4812 -30.4798 -30.4788 -30.4763 -30.4750 -30.4746 -30.4745 -30.4706
   -30.4656 -30.4647 -30.4571 -30.4466 -30.4447 -30.4409 -30.4394 -30.4271
    12.8960  13.4688  13.9623  14.2884  14.3548  14.3573  14.3693  14.3867
    14.3915  14.5409  14.5418  14.5435  14.5534  14.5785  14.5828  14.6223
    14.6459  14.6523  14.6553  14.6996  14.7104  14.7374  14.7859  14.8025
    14.8163  14.8704  14.8986  14.9110  14.9811  15.0063  15.0298  15.0415
    15.0802  15.1787  15.1832  15.2178  15.2634  15.2891  15.2935  15.3433
    15.3563  15.4043  15.4346  15.4715  15.5099  15.6185  15.6624  15.6799
    15.6967  15.7479  15.8056  15.8397  15.8680  15.8901  15.9464  16.0516
    16.0624  16.0656  16.1483  16.2064  16.2127  16.2745  16.3159  16.3236
    16.3516  16.3540  16.3589  16.4035  16.4344  16.4482  16.4710  16.5599
    16.5638  16.6052  16.6253  16.6276  16.6347  16.6657  16.6686  16.7039
    16.7081  16.7122  16.7233  16.8084  16.8104  16.8321  16.8345  16.8541
    16.8647  16.9308  16.9349  16.9439  17.0152  17.0323  17.1066  17.1216
    17.1271  17.1643  17.1875  17.1973  17.2085  17.2497  17.2740  17.3678
    17.4814  17.4828  17.5036  17.5157  17.5232  17.5349  17.5965  17.6153
    17.6484  17.6820  17.7397  17.7563  17.7679  17.8497  18.0100  18.0549
    18.0686  18.0750  18.0931  18.0986  18.2240  18.2275  18.2446  18.2549
    18.2580  18.3039  18.4084  18.4292  18.4307  18.4419  18.4975  18.5098
    18.5149  18.5863  18.6152  18.6492  18.6532  18.7141  18.7398  18.8092
    18.8232  18.8234  18.8338  18.8340  18.8476  18.8480  18.8774  18.9000
    18.9909  19.0449  19.0477  19.0488  19.0544  19.0582  19.0603  19.0715
    19.1214  19.1906  19.2348  19.2379  19.2494  19.2713  19.5503  19.6261
    19.8497  19.9951  20.1205  20.2245  20.2705  20.3605  21.1046  21.6307
    22.2882  22.2913  22.4931  22.5892  22.8806  23.0697  23.3902  23.8596
    23.8984  24.0749  24.4991  25.0775  25.0797  25.4671  25.7607  26.3124
    26.5046  26.6058  26.7309  26.8726  27.0993  27.1191  27.3744  27.5651
    27.8529  27.8720  28.0712  28.2967  28.8566  29.1774  29.7383  29.8488
    29.9254  29.9620  30.0372  30.1319  30.2228  30.3210  30.8237  30.8556
    31.0133  31.0918

          k = 0.0556 0.3889 0.3882 ( 33091 PWs)   bands (ev):

   -64.8975 -64.8904 -64.8904 -64.8842 -64.8737 -64.8702 -64.8701 -64.8691
   -64.8674 -64.8663 -64.8662 -64.8642 -64.8573 -64.8571 -64.8557 -64.8555
   -64.8554 -64.8552 -64.8536 -64.8534 -64.8529 -64.8528 -64.8502 -64.8502
   -64.8500 -64.8498 -64.8494 -64.8491 -64.8477 -64.8461 -64.8459 -64.8451
   -30.7609 -30.7608 -30.7382 -30.7381 -30.7375 -30.7372 -30.7352 -30.7346
   -30.7328 -30.7322 -30.7233 -30.7220 -30.7218 -30.7194 -30.7187 -30.7111
   -30.7108 -30.7042 -30.7036 -30.7033 -30.7027 -30.7023 -30.7020 -30.6900
   -30.6878 -30.6874 -30.6730 -30.6585 -30.6539 -30.6378 -30.6374 -30.6122
   -30.6037 -30.6037 -30.5930 -30.5917 -30.5847 -30.5777 -30.5775 -30.5731
   -30.5720 -30.5717 -30.5716 -30.5679 -30.5665 -30.5493 -30.5480 -30.5439
   -30.5438 -30.5435 -30.5433 -30.5424 -30.5402 -30.5402 -30.5383 -30.5382
   -30.5356 -30.5353 -30.5228 -30.5225 -30.5205 -30.5203 -30.5198 -30.5153
   -30.5152 -30.5053 -30.5053 -30.5029 -30.5026 -30.5024 -30.5024 -30.4997
   -30.4942 -30.4937 -30.4936 -30.4926 -30.4926 -30.4903 -30.4870 -30.4832
   -30.4829 -30.4802 -30.4787 -30.4784 -30.4780 -30.4763 -30.4738 -30.4676
   -30.4673 -30.4638 -30.4636 -30.4457 -30.4398 -30.4379 -30.4378 -30.4279
    13.0915  13.6381  13.6399  14.1108  14.3337  14.4272  14.4377  14.4879
    14.4880  14.5199  14.5199  14.5216  14.6366  14.6367  14.6634  14.6811
    14.6811  14.6957  14.6964  14.6973  14.6977  14.7203  14.7216  14.8400
    14.8419  14.8558  14.8734  14.9085  14.9105  15.0132  15.0135  15.0161
    15.0167  15.0423  15.0425  15.0852  15.0854  15.2182  15.2188  15.2336
    15.2343  15.2612  15.2619  15.4981  15.4988  15.5463  15.7355  15.7367
    15.7405  15.7411  15.8381  15.9029  15.9425  15.9440  15.9460  15.9517
    15.9656  16.1547  16.2655  16.2663  16.3207  16.4416  16.4489  16.4544
    16.4866  16.4868  16.4910  16.4927  16.4941  16.4958  16.5296  16.5324
    16.5613  16.5746  16.7111  16.7227  16.7393  16.7423  16.7517  16.7769
    16.7907  16.8051  16.8068  16.8278  16.8280  16.8305  16.9388  16.9411
    16.9453  16.9484  16.9528  16.9550  16.9709  16.9736  17.0638  17.0702
    17.0730  17.0891  17.1669  17.1684  17.1694  17.2275  17.2704  17.2735
    17.2781  17.2880  17.2888  17.3045  17.3081  17.3294  17.3328  17.4879
    17.5952  17.5956  17.6170  17.6171  17.7213  17.7868  17.7883  17.8231
[...]
    23.9262  23.9263  23.9263  23.9263  26.0505  26.0509  26.0509  26.0512
    26.3982  26.3983  26.3984  26.3984  26.3984  26.3984  26.3984  26.3984
    27.1780  27.1783  27.1784  27.1784  29.8261  29.8263  29.8263  29.8265
    30.3467  30.3468  30.3468  30.3469  30.9379  30.9380  30.9380  30.9380
    31.5072  31.5073

          k =-0.5000-0.5000 0.1664 ( 33092 PWs)   bands (ev):

   -64.8907 -64.8905 -64.8904 -64.8903 -64.8747 -64.8746 -64.8745 -64.8744
   -64.8631 -64.8629 -64.8628 -64.8627 -64.8536 -64.8534 -64.8534 -64.8533
   -64.8530 -64.8527 -64.8527 -64.8526 -64.8526 -64.8525 -64.8524 -64.8523
   -64.8521 -64.8519 -64.8519 -64.8518 -64.8472 -64.8470 -64.8469 -64.8468
   -30.7414 -30.7414 -30.7414 -30.7413 -30.7413 -30.7413 -30.7413 -30.7412
   -30.7187 -30.7187 -30.7186 -30.7186 -30.7186 -30.7185 -30.7185 -30.7184
   -30.7174 -30.7173 -30.7172 -30.7171 -30.7150 -30.7149 -30.7149 -30.7148
   -30.6707 -30.6706 -30.6706 -30.6705 -30.6276 -30.6276 -30.6276 -30.6275
   -30.5715 -30.5715 -30.5715 -30.5715 -30.5715 -30.5714 -30.5714 -30.5713
   -30.5699 -30.5699 -30.5698 -30.5698 -30.5698 -30.5696 -30.5696 -30.5696
   -30.5517 -30.5517 -30.5517 -30.5516 -30.5302 -30.5301 -30.5301 -30.5300
   -30.5300 -30.5299 -30.5299 -30.5299 -30.5295 -30.5295 -30.5294 -30.5294
   -30.5092 -30.5092 -30.5092 -30.5091 -30.5076 -30.5076 -30.5075 -30.5075
   -30.5074 -30.5074 -30.5073 -30.5073 -30.4946 -30.4946 -30.4946 -30.4946
   -30.4691 -30.4691 -30.4691 -30.4691 -30.4640 -30.4639 -30.4639 -30.4638
   -30.4583 -30.4582 -30.4581 -30.4580 -30.4343 -30.4343 -30.4343 -30.4343
    13.6151  13.6156  13.6156  13.6160  14.3154  14.3155  14.3155  14.3157
    14.6575  14.6575  14.6575  14.6575  14.6622  14.6623  14.6623  14.6623
    14.7349  14.7349  14.7351  14.7351  14.7353  14.7353  14.7354  14.7355
    14.9348  14.9348  14.9348  14.9349  14.9350  14.9350  14.9350  14.9351
    15.0403  15.0403  15.0404  15.0404  15.0407  15.0407  15.0408  15.0408
    15.2304  15.2304  15.2305  15.2305  15.7317  15.7318  15.7320  15.7321
    15.7322  15.7322  15.7324  15.7324  16.0522  16.0526  16.0526  16.0528
    16.0685  16.0688  16.0688  16.0689  16.5516  16.5517  16.5517  16.5518
    16.6227  16.6228  16.6228  16.6228  16.6229  16.6232  16.6232  16.6233
    16.7913  16.7913  16.7913  16.7913  16.7913  16.7913  16.7913  16.7914
    16.7914  16.7915  16.7915  16.7916  16.8214  16.8214  16.8215  16.8216
    16.8577  16.8578  16.8578  16.8581  17.1100  17.1101  17.1101  17.1102
    17.1102  17.1103  17.1103  17.1104  17.1400  17.1401  17.1401  17.1402
    17.2345  17.2347  17.2347  17.2350  17.3498  17.3498  17.3498  17.3499
    17.3499  17.3500  17.3500  17.3501  17.6782  17.6783  17.6784  17.6785
    18.1566  18.1567  18.1568  18.1569  18.2977  18.2977  18.2978  18.2979
    18.2979  18.2979  18.2980  18.2980  18.3056  18.3057  18.3058  18.3059
    18.6295  18.6296  18.6297  18.6297  18.6928  18.6929  18.6929  18.6930
    19.0451  19.0451  19.0452  19.0452  19.0452  19.0452  19.0453  19.0453
    19.0673  19.0673  19.0674  19.0674  19.0674  19.0674  19.0675  19.0675
    19.0788  19.0790  19.0790  19.0791  19.1042  19.1043  19.1043  19.1043
    20.3526  20.3529  20.3529  20.3530  22.0642  22.0642  22.0643  22.0643
    22.0645  22.0645  22.0646  22.0646  23.7528  23.7529  23.7529  23.7529
    23.7530  23.7531  23.7531  23.7531  25.4561  25.4564  25.4564  25.4567
    26.6367  26.6367  26.6369  26.6369  26.6369  26.6369  26.6370  26.6370
    27.3099  27.3102  27.3103  27.3103  29.7743  29.7745  29.7745  29.7745
    30.4613  30.4615  30.4615  30.4617  30.6168  30.6168  30.6170  30.6170
    30.6171  30.6171

          k =-0.5000-0.5000 0.2773 ( 33052 PWs)   bands (ev):

   -64.8893 -64.8892 -64.8891 -64.8890 -64.8784 -64.8783 -64.8782 -64.8781
   -64.8594 -64.8593 -64.8592 -64.8591 -64.8536 -64.8534 -64.8534 -64.8533
   -64.8530 -64.8527 -64.8527 -64.8526 -64.8526 -64.8525 -64.8524 -64.8523
   -64.8521 -64.8519 -64.8519 -64.8518 -64.8485 -64.8484 -64.8483 -64.8482
   -30.7387 -30.7387 -30.7386 -30.7386 -30.7386 -30.7386 -30.7385 -30.7385
   -30.7236 -30.7235 -30.7234 -30.7233 -30.7231 -30.7230 -30.7230 -30.7229
   -30.7218 -30.7218 -30.7217 -30.7217 -30.7217 -30.7217 -30.7216 -30.7216
   -30.6511 -30.6510 -30.6510 -30.6509 -30.6117 -30.6117 -30.6117 -30.6116
   -30.5715 -30.5715 -30.5715 -30.5715 -30.5715 -30.5715 -30.5714 -30.5713
   -30.5705 -30.5704 -30.5704 -30.5703 -30.5703 -30.5703 -30.5702 -30.5702
   -30.5675 -30.5675 -30.5675 -30.5675 -30.5290 -30.5289 -30.5289 -30.5288
   -30.5267 -30.5266 -30.5266 -30.5266 -30.5265 -30.5265 -30.5265 -30.5264
   -30.5264 -30.5264 -30.5263 -30.5263 -30.5100 -30.5100 -30.5099 -30.5099
   -30.5098 -30.5098 -30.5098 -30.5097 -30.5027 -30.5027 -30.5026 -30.5026
   -30.4611 -30.4611 -30.4610 -30.4610 -30.4550 -30.4549 -30.4549 -30.4548
   -30.4529 -30.4528 -30.4527 -30.4526 -30.4372 -30.4372 -30.4371 -30.4371
    13.6825  13.6830  13.6830  13.6833  14.1729  14.1731  14.1731  14.1733
    14.6919  14.6920  14.6920  14.6920  14.7123  14.7123  14.7124  14.7124
    14.7127  14.7127  14.7127  14.7127  14.7176  14.7176  14.7176  14.7176
    14.8657  14.8658  14.8658  14.8658  14.8660  14.8660  14.8660  14.8661
    15.1788  15.1789  15.1789  15.1789  15.1792  15.1793  15.1793  15.1793
    15.2866  15.2866  15.2867  15.2867  15.7208  15.7208  15.7211  15.7211
    15.7212  15.7212  15.7214  15.7214  15.8479  15.8482  15.8482  15.8483
    16.1612  16.1614  16.1614  16.1615  16.5633  16.5635  16.5635  16.5636
    16.6966  16.6967  16.6967  16.6967  16.7004  16.7006  16.7006  16.7007
    16.7685  16.7686  16.7686  16.7687  16.7745  16.7746  16.7746  16.7746
    16.7746  16.7747  16.7747  16.7747  16.7747  16.7748  16.7748  16.7749
    16.8100  16.8101  16.8101  16.8104  17.0773  17.0774  17.0774  17.0775
    17.0775  17.0776  17.0776  17.0777  17.1510  17.1512  17.1512  17.1514
    17.2928  17.2928  17.2929  17.2929  17.4251  17.4251  17.4251  17.4252
    17.4253  17.4253  17.4253  17.4254  17.8073  17.8073  17.8074  17.8075
    18.0060  18.0061  18.0062  18.0063  18.0412  18.0412  18.0412  18.0413
    18.0413  18.0413  18.0414  18.0414  18.2531  18.2532  18.2533  18.2533
    18.3117  18.3118  18.3119  18.3119  18.5166  18.5166  18.5167  18.5168
    19.1300  19.1300  19.1300  19.1300  19.1301  19.1301  19.1302  19.1302
    19.1473  19.1475  19.1475  19.1476  19.1701  19.1701  19.1702  19.1702
    19.1702  19.1702  19.1703  19.1703  19.1831  19.1831  19.1831  19.1832
    21.1063  21.1065  21.1066  21.1067  22.2471  22.2471  22.2472  22.2472
    22.2474  22.2474  22.2475  22.2475  23.4713  23.4713  23.4713  23.4713
    23.4715  23.4715  23.4716  23.4716  24.6125  24.6129  24.6129  24.6131
    27.0541  27.0541  27.0543  27.0543  27.0544  27.0544  27.0545  27.0545
    27.5395  27.5397  27.5398  27.5398  29.2277  29.2279  29.2279  29.2279
    29.7622  29.7622  29.7623  29.7623  29.7625  29.7625  29.7626  29.7626
    31.4106  31.4107

          k =-0.5000-0.5000 0.3882 ( 33092 PWs)   bands (ev):

   -64.8874 -64.8872 -64.8872 -64.8870 -64.8818 -64.8816 -64.8816 -64.8814
   -64.8560 -64.8559 -64.8558 -64.8557 -64.8536 -64.8534 -64.8534 -64.8533
   -64.8530 -64.8527 -64.8527 -64.8526 -64.8526 -64.8525 -64.8524 -64.8523
   -64.8521 -64.8519 -64.8519 -64.8518 -64.8504 -64.8503 -64.8502 -64.8501
   -30.7349 -30.7349 -30.7349 -30.7348 -30.7348 -30.7348 -30.7347 -30.7347
   -30.7285 -30.7284 -30.7284 -30.7283 -30.7280 -30.7278 -30.7278 -30.7277
   -30.7259 -30.7259 -30.7258 -30.7258 -30.7258 -30.7258 -30.7257 -30.7257
   -30.6300 -30.6299 -30.6299 -30.6299 -30.5924 -30.5924 -30.5923 -30.5923
   -30.5871 -30.5871 -30.5870 -30.5870 -30.5716 -30.5715 -30.5715 -30.5715
   -30.5714 -30.5714 -30.5713 -30.5713 -30.5709 -30.5708 -30.5708 -30.5708
   -30.5708 -30.5708 -30.5707 -30.5707 -30.5500 -30.5499 -30.5499 -30.5498
   -30.5224 -30.5223 -30.5223 -30.5223 -30.5222 -30.5222 -30.5222 -30.5221
   -30.5221 -30.5221 -30.5221 -30.5221 -30.5134 -30.5134 -30.5134 -30.5134
   -30.5133 -30.5132 -30.5132 -30.5132 -30.5101 -30.5101 -30.5100 -30.5100
   -30.4536 -30.4536 -30.4536 -30.4536 -30.4496 -30.4495 -30.4495 -30.4494
   -30.4489 -30.4488 -30.4488 -30.4487 -30.4415 -30.4415 -30.4415 -30.4414
    13.7783  13.7787  13.7787  13.7790  14.0306  14.0309  14.0309  14.0312
    14.7159  14.7160  14.7160  14.7160  14.7163  14.7163  14.7163  14.7163
    14.7235  14.7235  14.7235  14.7235  14.7454  14.7455  14.7455  14.7455
    14.7981  14.7981  14.7982  14.7982  14.7984  14.7984  14.7984  14.7985
    15.3377  15.3377  15.3378  15.3378  15.3381  15.3381  15.3382  15.3382
    15.3760  15.3762  15.3762  15.3762  15.6391  15.6391  15.6394  15.6394
    15.6396  15.6396  15.6397  15.6398  15.6607  15.6610  15.6610  15.6611
    16.2894  16.2896  16.2896  16.2896  16.5332  16.5333  16.5333  16.5334
    16.7192  16.7193  16.7193  16.7193  16.7432  16.7432  16.7433  16.7434
    16.7525  16.7526  16.7526  16.7528  16.7684  16.7685  16.7685  16.7687
    16.7982  16.7983  16.7983  16.7984  16.8277  16.8277  16.8278  16.8278
    16.8278  16.8278  16.8279  16.8280  17.0166  17.0166  17.0167  17.0167
    17.0167  17.0168  17.0168  17.0169  17.0404  17.0406  17.0406  17.0407
    17.4627  17.4628  17.4628  17.4629  17.5153  17.5153  17.5153  17.5154
    17.5155  17.5155  17.5155  17.5156  17.8128  17.8128  17.8129  17.8129
    17.8130  17.8130  17.8130  17.8131  17.8290  17.8291  17.8291  17.8292
    17.9681  17.9682  17.9683  17.9684  18.1606  18.1606  18.1607  18.1608
    18.1896  18.1897  18.1898  18.1898  18.3320  18.3321  18.3322  18.3323
    19.1938  19.1938  19.1938  19.1938  19.1939  19.1939  19.1939  19.1939
    19.2035  19.2037  19.2037  19.2038  19.2260  19.2261  19.2261  19.2262
    19.2317  19.2317  19.2318  19.2318  19.2318  19.2318  19.2319  19.2319
    21.9253  21.9256  21.9257  21.9258  22.5032  22.5032  22.5033  22.5033
    22.5035  22.5035  22.5036  22.5036  23.1435  23.1435  23.1436  23.1436
    23.1437  23.1438  23.1438  23.1438  23.7029  23.7032  23.7032  23.7034
    27.5982  27.5982  27.5983  27.5983  27.5984  27.5984  27.5985  27.5985
    27.8586  27.8589  27.8589  27.8589  28.7173  28.7175  28.7175  28.7175
    28.9659  28.9659  28.9660  28.9660  28.9662  28.9662  28.9663  28.9663
    32.4786  32.4789

          k =-0.5000-0.5000-0.4992 ( 33016 PWs)   bands (ev):

   -64.8852 -64.8851 -64.8850 -64.8849 -64.8844 -64.8843 -64.8842 -64.8841
   -64.8536 -64.8535 -64.8535 -64.8534 -64.8533 -64.8532 -64.8531 -64.8531
   -64.8529 -64.8528 -64.8527 -64.8526 -64.8526 -64.8526 -64.8525 -64.8524
   -64.8524 -64.8524 -64.8523 -64.8522 -64.8521 -64.8519 -64.8519 -64.8517
   -30.7310 -30.7310 -30.7309 -30.7309 -30.7305 -30.7305 -30.7305 -30.7304
   -30.7303 -30.7303 -30.7302 -30.7302 -30.7299 -30.7299 -30.7298 -30.7298
   -30.7297 -30.7297 -30.7297 -30.7296 -30.7296 -30.7295 -30.7295 -30.7294
   -30.6084 -30.6084 -30.6084 -30.6083 -30.6082 -30.6081 -30.6081 -30.6080
   -30.5716 -30.5715 -30.5715 -30.5715 -30.5715 -30.5715 -30.5714 -30.5714
   -30.5713 -30.5713 -30.5712 -30.5712 -30.5712 -30.5712 -30.5712 -30.5712
   -30.5711 -30.5711 -30.5711 -30.5710 -30.5710 -30.5710 -30.5709 -30.5709
   -30.5178 -30.5178 -30.5178 -30.5177 -30.5177 -30.5177 -30.5176 -30.5176
   -30.5175 -30.5174 -30.5174 -30.5173 -30.5173 -30.5173 -30.5173 -30.5172
   -30.5170 -30.5170 -30.5170 -30.5170 -30.5163 -30.5163 -30.5162 -30.5162
   -30.4477 -30.4476 -30.4476 -30.4475 -30.4475 -30.4475 -30.4474 -30.4474
   -30.4474 -30.4473 -30.4473 -30.4472 -30.4466 -30.4466 -30.4466 -30.4466
    13.8962  13.8966  13.8966  13.8969  13.8970  13.8973  13.8973  13.8976
    14.7446  14.7446  14.7446  14.7447  14.7453  14.7453  14.7453  14.7454
    14.7456  14.7456  14.7457  14.7458  14.7458  14.7458  14.7459  14.7459
    14.7460  14.7460  14.7460  14.7460  14.7462  14.7462  14.7462  14.7462
    15.4996  15.4998  15.4999  15.4999  15.5001  15.5002  15.5002  15.5002
    15.5002  15.5002  15.5002  15.5004  15.5006  15.5006  15.5006  15.5008
    15.5009  15.5011  15.5011  15.5012  15.5017  15.5019  15.5020  15.5020
    16.4295  16.4297  16.4297  16.4297  16.4297  16.4298  16.4298  16.4298
    16.7307  16.7308  16.7308  16.7309  16.7310  16.7311  16.7311  16.7313
    16.7440  16.7440  16.7441  16.7442  16.7443  16.7444  16.7444  16.7445
    16.9173  16.9175  16.9175  16.9175  16.9178  16.9180  16.9180  16.9181
    16.9249  16.9250  16.9250  16.9251  16.9251  16.9252  16.9252  16.9252
    16.9252  16.9252  16.9253  16.9253  16.9253  16.9254  16.9255  16.9255
    17.6372  17.6372  17.6373  17.6374  17.6375  17.6376  17.6376  17.6377
    17.6377  17.6377  17.6378  17.6378  17.6380  17.6380  17.6381  17.6382
    17.6439  17.6440  17.6440  17.6441  17.6442  17.6443  17.6443  17.6444
    18.1418  18.1419  18.1420  18.1420  18.1424  18.1424  18.1425  18.1426
    18.1463  18.1464  18.1464  18.1465  18.1466  18.1467  18.1468  18.1469
    19.2320  19.2321  19.2321  19.2322  19.2322  19.2323  19.2323  19.2324
    19.2343  19.2343  19.2343  19.2344  19.2346  19.2346  19.2346  19.2347
    19.2347  19.2348  19.2348  19.2348  19.2350  19.2350  19.2350  19.2351
    22.7966  22.7970  22.7970  22.7970  22.7972  22.7973  22.7974  22.7975
    22.8103  22.8104  22.8104  22.8105  22.8106  22.8107  22.8108  22.8108
    22.8109  22.8110  22.8111  22.8112  22.8112  22.8114  22.8114  22.8114
    28.2403  28.2403  28.2405  28.2405  28.2405  28.2406  28.2406  28.2407
    28.2410  28.2410  28.2410  28.2410  28.2411  28.2412  28.2412  28.2412
    28.2556  28.2559  28.2559  28.2559  28.2564  28.2567  28.2567  28.2567
    33.4735  33.4738

     the Fermi energy is    19.2552 ev

!    total energy              =  -16384.95868724 Ry
     Harris-Foulkes estimate   =  -16384.95867605 Ry
     estimated scf accuracy    <       0.00000049 Ry

     total all-electron energy =   -322945.812394 Ry

     The total energy is the sum of the following terms:

     one-electron contribution =   -2490.03559878 Ry
     hartree contribution      =    1662.10072276 Ry
     xc contribution           =    -986.48860262 Ry
     ewald contribution        =   -6403.14362707 Ry
     one-center paw contrib.   =   -8167.42499328 Ry
     smearing contrib. (-TS)   =       0.03341175 Ry

     convergence has been achieved in  11 iterations

     Forces acting on atoms (cartesian axes, Ry/au):

     atom    1 type  1   force =     0.00000000    0.00000000    0.00000000
     atom    2 type  1   force =     0.00009463    0.00009463    0.00000000
     atom    3 type  1   force =     0.00005492   -0.00000000   -0.00001262
     atom    4 type  1   force =     0.00000000    0.00005492   -0.00001262
     atom    5 type  1   force =     0.00000000    0.00000000    0.00000000
     atom    6 type  1   force =     0.00013076    0.00013076    0.00000000
     atom    7 type  1   force =     0.00005492    0.00000000    0.00001262
     atom    8 type  1   force =     0.00000000    0.00005492    0.00001262
     atom    9 type  1   force =     0.00000000    0.00000000    0.00000000
     atom   10 type  1   force =     0.00009463   -0.00009463    0.00000000
     atom   11 type  1   force =     0.00016558    0.00000000   -0.00001201
     atom   12 type  1   force =     0.00000000   -0.00005492   -0.00001262
     atom   13 type  1   force =     0.00000000    0.00000000    0.00000000
     atom   14 type  1   force =     0.00013076   -0.00013076    0.00000000
     atom   15 type  1   force =     0.00016558   -0.00000000    0.00001201
     atom   16 type  1   force =     0.00000000   -0.00005492    0.00001262
     atom   17 type  1   force =     0.00000000    0.00000000    0.00000000
     atom   18 type  1   force =    -0.00009463    0.00009463    0.00000000
     atom   19 type  1   force =    -0.00005492    0.00000000   -0.00001262
     atom   20 type  1   force =     0.00000000    0.00016558   -0.00001201
     atom   21 type  1   force =     0.00000000    0.00000000    0.00000000
     atom   22 type  1   force =    -0.00013076    0.00013076    0.00000000
     atom   23 type  1   force =    -0.00005492   -0.00000000    0.00001262
     atom   24 type  1   force =     0.00000000    0.00016558    0.00001201
     atom   25 type  1   force =     0.00000000    0.00000000    0.00000000
     atom   26 type  1   force =    -0.00009463   -0.00009463    0.00000000
     atom   27 type  1   force =    -0.00016558   -0.00000000   -0.00001201
     atom   28 type  1   force =     0.00000000   -0.00016558   -0.00001201
     atom   29 type  1   force =     0.00000000    0.00000000    0.00000000
     atom   30 type  1   force =    -0.00013076   -0.00013076    0.00000000
     atom   31 type  1   force =    -0.00016558    0.00000000    0.00001201
     atom   32 type  1   force =     0.00000000   -0.00016558    0.00001201

     Total force =     0.000674     Total SCF correction =     0.005432
     SCF correction compared to forces is large: reduce conv_thr to get better values


     Computing stress (Cartesian axis) and pressure

          total   stress  (Ry/bohr**3)                   (kbar)     P=   -1.48
  -0.00000718   0.00000000   0.00000000         -1.06      0.00      0.00
   0.00000000  -0.00000718   0.00000000          0.00     -1.06      0.00
   0.00000000   0.00000000  -0.00001574          0.00      0.00     -2.32


     Writing output data file niKeQCwhCSpeaIqD.save/
 
     init_run     :     41.40s CPU     44.83s WALL (       1 calls)
     electrons    :   1948.50s CPU   2054.46s WALL (       1 calls)
     forces       :     18.56s CPU     19.29s WALL (       1 calls)
     stress       :    185.55s CPU    186.31s WALL (       1 calls)

     Called by init_run:
     wfcinit      :     40.59s CPU     43.95s WALL (       1 calls)
     potinit      :      0.38s CPU      0.39s WALL (       1 calls)
     hinit0       :      0.21s CPU      0.24s WALL (       1 calls)

     Called by electrons:
     c_bands      :   1771.13s CPU   1857.73s WALL (      12 calls)
     sum_band     :    173.36s CPU    192.29s WALL (      12 calls)
     v_of_rho     :      0.34s CPU      0.36s WALL (      12 calls)
     newd         :      0.83s CPU      1.12s WALL (      12 calls)
     PAW_pot      :      3.03s CPU      3.10s WALL (      12 calls)
     mix_rho      :      0.09s CPU      0.10s WALL (      12 calls)

     Called by c_bands:
     init_us_2    :     10.87s CPU     10.91s WALL (    2025 calls)
     cegterg      :   1710.47s CPU   1796.75s WALL (     900 calls)

     Called by sum_band:
     sum_band:bec :      1.38s CPU      1.40s WALL (     900 calls)
     addusdens    :      0.95s CPU      1.26s WALL (      12 calls)

     Called by *egterg:
     h_psi        :    695.60s CPU    773.03s WALL (    2596 calls)
     s_psi        :     85.83s CPU     86.16s WALL (    2596 calls)
     g_psi        :      2.49s CPU      2.50s WALL (    1621 calls)
     cdiaghg      :    653.20s CPU    655.47s WALL (    2446 calls)

     Called by h_psi:
     h_psi:pot    :    688.41s CPU    765.59s WALL (    2596 calls)
     h_psi:calbec :     88.61s CPU     92.81s WALL (    2596 calls)
     vloc_psi     :    514.93s CPU    587.41s WALL (    2596 calls)
     add_vuspsi   :     84.83s CPU     85.35s WALL (    2596 calls)

     General routines
     calbec       :    147.03s CPU    153.98s WALL (    3871 calls)
     fft          :      0.33s CPU      0.36s WALL (     181 calls)
     ffts         :      0.03s CPU      0.03s WALL (      24 calls)
     fftw         :    598.44s CPU    682.73s WALL ( 1704434 calls)
     interpolate  :      0.04s CPU      0.04s WALL (      12 calls)
 
     Parallel routines
     fft_scatt_xy :     49.02s CPU     54.99s WALL ( 1704639 calls)
     fft_scatt_yz :    392.34s CPU    451.87s WALL ( 1704639 calls)
 
     PWSCF        : 36m40.52s CPU    40m 2.31s WALL

 
   This run was terminated on:  19:21:35  11Nov2020            

=------------------------------------------------------------------------------=
   JOB DONE.
=------------------------------------------------------------------------------=
