--------------------------------------------------------------------------
WARNING: No preset parameters were found for the device that Open MPI
detected:

  Local host:            bear-pg0206u14b
  Device name:           mlx5_0
  Device vendor ID:      0x02c9
  Device vendor part ID: 4123

Default device parameters will be used, which may result in lower
performance.  You can edit any of the files specified by the
btl_openib_device_param_files MCA parameter to set values for your
device.

NOTE: You can turn off this warning by setting the MCA parameter
      btl_openib_warn_no_device_params_found to 0.
--------------------------------------------------------------------------
--------------------------------------------------------------------------
WARNING: There was an error initializing an OpenFabrics device.

  Local host:   bear-pg0206u14b
  Local device: mlx5_0
--------------------------------------------------------------------------

     Program PWSCF v.6.3 starts on 11Nov2020 at 18: 1: 8 

     This program is part of the open-source Quantum ESPRESSO suite
     for quantum simulation of materials; please cite
         "P. Giannozzi et al., J. Phys.:Condens. Matter 21 395502 (2009);
         "P. Giannozzi et al., J. Phys.:Condens. Matter 29 465901 (2017);
          URL http://www.quantum-espresso.org", 
     in publications or presentations arising from this work. More details at
     http://www.quantum-espresso.org/quote

     Parallel version (MPI & OpenMP), running on      20 processor cores
     Number of MPI processes:                20
     Threads/MPI process:                     1

     MPI processes distributed on     1 nodes
     R & G space division:  proc/nbgrp/npool/nimage =      20
     Reading input from wd/ec/ec_3_002.in
Warning: card &IONS ignored
Warning: card ION_DYNAMICS = 'BFGS', ignored
Warning: card / ignored
Warning: card &CELL ignored
Warning: card CELL_DYNAMICS = 'BFGS', ignored
Warning: card CELL_FACTOR = 2.0, ignored
Warning: card PRESS = 0.0, ignored
Warning: card / ignored

     Current dimensions of program PWSCF are:
     Max number of different atomic species (ntypx) = 10
     Max number of k-points (npk) =  40000
     Max angular momentum in pseudopotentials (lmaxx) =  3
               file Pd.pbe-spn-kjpaw_psl.1.0.0.UPF: wavefunction(s)  4S 5S 4D renormalized

     Subspace diagonalization in iterative solution of the eigenvalue problem:
     a serial algorithm will be used

 
     Parallelization info
     --------------------
     sticks:   dense  smooth     PW     G-vecs:    dense   smooth      PW
     Min         376     247     67                24608    13199    1873
     Max         377     248     68                24613    13204    1878
     Sum        7521    4957   1353               492195   264059   37529
 


     bravais-lattice index     =            0
     lattice parameter (alat)  =      14.8394  a.u.
     unit-cell volume          =    3270.4877 (a.u.)^3
     number of atoms/cell      =           32
     number of atomic types    =            1
     number of electrons       =       576.00
     number of Kohn-Sham states=          346
     kinetic-energy cutoff     =      71.0000  Ry
     charge density cutoff     =     430.0000  Ry
     convergence threshold     =      1.0E-06
     mixing beta               =       0.1000
     number of iterations used =           10  plain     mixing
     Exchange-correlation      = SLA PW PBX PBC ( 1  4  3  4 0 0)

     celldm(1)=  14.839420  celldm(2)=   0.000000  celldm(3)=   0.000000
     celldm(4)=   0.000000  celldm(5)=   0.000000  celldm(6)=   0.000000

     crystal axes: (cart. coord. in units of alat)
               a(1) = (   1.000000   0.000000   0.000000 )  
               a(2) = (   0.000000   1.000000   0.000000 )  
               a(3) = (   0.000000   0.000000   1.000833 )  

     reciprocal axes: (cart. coord. in units 2 pi/alat)
               b(1) = (  1.000000  0.000000  0.000000 )  
               b(2) = (  0.000000  1.000000  0.000000 )  
               b(3) = (  0.000000  0.000000  0.999167 )  


     PseudoPot. # 1 for Pd read from file:
     /rds/homes/b/bxp912/pp/Pd.pbe-spn-kjpaw_psl.1.0.0.UPF
     MD5 check sum: 790f2ebce206edfd9790dcb9844eca51
     Pseudo is Projector augmented-wave + core cor, Zval = 18.0
     Generated using "atomic" code by A. Dal Corso v.6.3
     Shape of augmentation charge: PSQ
     Using radial grid of 1235 points,  6 beta functions with: 
                l(1) =   0
                l(2) =   0
                l(3) =   1
                l(4) =   1
                l(5) =   2
                l(6) =   2
     Q(r) pseudized with 0 coefficients 


     atomic species   valence    mass     pseudopotential
        Pd            18.00   106.42000     Pd( 1.00)

     16 Sym. Ops., with inversion, found



   Cartesian axes

     site n.     atom                  positions (alat units)
         1           Pd  tau(   1) = (   0.0000000   0.0000000   0.0000000  )
         2           Pd  tau(   2) = (   0.2500045   0.2500045   0.0000000  )
         3           Pd  tau(   3) = (   0.2500045   0.0000000   0.2502123  )
         4           Pd  tau(   4) = (   0.0000000   0.2500045   0.2502123  )
         5           Pd  tau(   5) = (   0.0000000   0.0000000   0.5004157  )
         6           Pd  tau(   6) = (   0.2500116   0.2500116   0.5004157  )
         7           Pd  tau(   7) = (   0.2500045   0.0000000   0.7506200  )
         8           Pd  tau(   8) = (   0.0000000   0.2500045   0.7506200  )
         9           Pd  tau(   9) = (   0.0000000   0.4999998   0.0000000  )
        10           Pd  tau(  10) = (   0.2500045   0.7499952   0.0000000  )
        11           Pd  tau(  11) = (   0.2500116   0.4999998   0.2502192  )
        12           Pd  tau(  12) = (   0.0000000   0.7499952   0.2502123  )
        13           Pd  tau(  13) = (   0.0000000   0.4999998   0.5004157  )
        14           Pd  tau(  14) = (   0.2500116   0.7499881   0.5004157  )
        15           Pd  tau(  15) = (   0.2500116   0.4999998   0.7506131  )
        16           Pd  tau(  16) = (   0.0000000   0.7499952   0.7506200  )
        17           Pd  tau(  17) = (   0.4999998   0.0000000   0.0000000  )
        18           Pd  tau(  18) = (   0.7499952   0.2500045   0.0000000  )
        19           Pd  tau(  19) = (   0.7499952   0.0000000   0.2502123  )
        20           Pd  tau(  20) = (   0.4999998   0.2500116   0.2502192  )
        21           Pd  tau(  21) = (   0.4999998   0.0000000   0.5004157  )
        22           Pd  tau(  22) = (   0.7499881   0.2500116   0.5004157  )
        23           Pd  tau(  23) = (   0.7499952   0.0000000   0.7506200  )
        24           Pd  tau(  24) = (   0.4999998   0.2500116   0.7506131  )
        25           Pd  tau(  25) = (   0.4999998   0.4999998   0.0000000  )
        26           Pd  tau(  26) = (   0.7499952   0.7499952   0.0000000  )
        27           Pd  tau(  27) = (   0.7499881   0.4999998   0.2502192  )
        28           Pd  tau(  28) = (   0.4999998   0.7499881   0.2502192  )
        29           Pd  tau(  29) = (   0.4999998   0.4999998   0.5004157  )
        30           Pd  tau(  30) = (   0.7499881   0.7499881   0.5004157  )
        31           Pd  tau(  31) = (   0.7499881   0.4999998   0.7506131  )
        32           Pd  tau(  32) = (   0.4999998   0.7499881   0.7506131  )

     number of k points=    75  Marzari-Vanderbilt smearing, width (Ry)=  0.0400
                       cart. coord. in units 2pi/alat
        k(    1) = (   0.0555556   0.0555556   0.0555093), wk =   0.0219479
        k(    2) = (   0.0555556   0.0555556   0.1665279), wk =   0.0219479
        k(    3) = (   0.0555556   0.0555556   0.2775465), wk =   0.0219479
        k(    4) = (   0.0555556   0.0555556   0.3885651), wk =   0.0219479
        k(    5) = (   0.0555556   0.0555556  -0.4995837), wk =   0.0109739
        k(    6) = (   0.0555556   0.1666667   0.0555093), wk =   0.0438957
        k(    7) = (   0.0555556   0.1666667   0.1665279), wk =   0.0438957
        k(    8) = (   0.0555556   0.1666667   0.2775465), wk =   0.0438957
        k(    9) = (   0.0555556   0.1666667   0.3885651), wk =   0.0438957
        k(   10) = (   0.0555556   0.1666667  -0.4995837), wk =   0.0219479
        k(   11) = (   0.0555556   0.2777778   0.0555093), wk =   0.0438957
        k(   12) = (   0.0555556   0.2777778   0.1665279), wk =   0.0438957
        k(   13) = (   0.0555556   0.2777778   0.2775465), wk =   0.0438957
        k(   14) = (   0.0555556   0.2777778   0.3885651), wk =   0.0438957
        k(   15) = (   0.0555556   0.2777778  -0.4995837), wk =   0.0219479
        k(   16) = (   0.0555556   0.3888889   0.0555093), wk =   0.0438957
        k(   17) = (   0.0555556   0.3888889   0.1665279), wk =   0.0438957
        k(   18) = (   0.0555556   0.3888889   0.2775465), wk =   0.0438957
        k(   19) = (   0.0555556   0.3888889   0.3885651), wk =   0.0438957
        k(   20) = (   0.0555556   0.3888889  -0.4995837), wk =   0.0219479
        k(   21) = (   0.0555556  -0.5000000   0.0555093), wk =   0.0219479
        k(   22) = (   0.0555556  -0.5000000   0.1665279), wk =   0.0219479
        k(   23) = (   0.0555556  -0.5000000   0.2775465), wk =   0.0219479
        k(   24) = (   0.0555556  -0.5000000   0.3885651), wk =   0.0219479
        k(   25) = (   0.0555556  -0.5000000  -0.4995837), wk =   0.0109739
        k(   26) = (   0.1666667   0.1666667   0.0555093), wk =   0.0219479
        k(   27) = (   0.1666667   0.1666667   0.1665279), wk =   0.0219479
        k(   28) = (   0.1666667   0.1666667   0.2775465), wk =   0.0219479
        k(   29) = (   0.1666667   0.1666667   0.3885651), wk =   0.0219479
        k(   30) = (   0.1666667   0.1666667  -0.4995837), wk =   0.0109739
        k(   31) = (   0.1666667   0.2777778   0.0555093), wk =   0.0438957
        k(   32) = (   0.1666667   0.2777778   0.1665279), wk =   0.0438957
        k(   33) = (   0.1666667   0.2777778   0.2775465), wk =   0.0438957
        k(   34) = (   0.1666667   0.2777778   0.3885651), wk =   0.0438957
        k(   35) = (   0.1666667   0.2777778  -0.4995837), wk =   0.0219479
        k(   36) = (   0.1666667   0.3888889   0.0555093), wk =   0.0438957
        k(   37) = (   0.1666667   0.3888889   0.1665279), wk =   0.0438957
        k(   38) = (   0.1666667   0.3888889   0.2775465), wk =   0.0438957
        k(   39) = (   0.1666667   0.3888889   0.3885651), wk =   0.0438957
        k(   40) = (   0.1666667   0.3888889  -0.4995837), wk =   0.0219479
        k(   41) = (   0.1666667  -0.5000000   0.0555093), wk =   0.0219479
        k(   42) = (   0.1666667  -0.5000000   0.1665279), wk =   0.0219479
        k(   43) = (   0.1666667  -0.5000000   0.2775465), wk =   0.0219479
        k(   44) = (   0.1666667  -0.5000000   0.3885651), wk =   0.0219479
        k(   45) = (   0.1666667  -0.5000000  -0.4995837), wk =   0.0109739
        k(   46) = (   0.2777778   0.2777778   0.0555093), wk =   0.0219479
        k(   47) = (   0.2777778   0.2777778   0.1665279), wk =   0.0219479
        k(   48) = (   0.2777778   0.2777778   0.2775465), wk =   0.0219479
        k(   49) = (   0.2777778   0.2777778   0.3885651), wk =   0.0219479
        k(   50) = (   0.2777778   0.2777778  -0.4995837), wk =   0.0109739
        k(   51) = (   0.2777778   0.3888889   0.0555093), wk =   0.0438957
        k(   52) = (   0.2777778   0.3888889   0.1665279), wk =   0.0438957
        k(   53) = (   0.2777778   0.3888889   0.2775465), wk =   0.0438957
        k(   54) = (   0.2777778   0.3888889   0.3885651), wk =   0.0438957
        k(   55) = (   0.2777778   0.3888889  -0.4995837), wk =   0.0219479
        k(   56) = (   0.2777778  -0.5000000   0.0555093), wk =   0.0219479
        k(   57) = (   0.2777778  -0.5000000   0.1665279), wk =   0.0219479
        k(   58) = (   0.2777778  -0.5000000   0.2775465), wk =   0.0219479
        k(   59) = (   0.2777778  -0.5000000   0.3885651), wk =   0.0219479
        k(   60) = (   0.2777778  -0.5000000  -0.4995837), wk =   0.0109739
        k(   61) = (   0.3888889   0.3888889   0.0555093), wk =   0.0219479
        k(   62) = (   0.3888889   0.3888889   0.1665279), wk =   0.0219479
        k(   63) = (   0.3888889   0.3888889   0.2775465), wk =   0.0219479
        k(   64) = (   0.3888889   0.3888889   0.3885651), wk =   0.0219479
        k(   65) = (   0.3888889   0.3888889  -0.4995837), wk =   0.0109739
        k(   66) = (   0.3888889  -0.5000000   0.0555093), wk =   0.0219479
        k(   67) = (   0.3888889  -0.5000000   0.1665279), wk =   0.0219479
        k(   68) = (   0.3888889  -0.5000000   0.2775465), wk =   0.0219479
        k(   69) = (   0.3888889  -0.5000000   0.3885651), wk =   0.0219479
        k(   70) = (   0.3888889  -0.5000000  -0.4995837), wk =   0.0109739
        k(   71) = (  -0.5000000  -0.5000000   0.0555093), wk =   0.0054870
        k(   72) = (  -0.5000000  -0.5000000   0.1665279), wk =   0.0054870
        k(   73) = (  -0.5000000  -0.5000000   0.2775465), wk =   0.0054870
        k(   74) = (  -0.5000000  -0.5000000   0.3885651), wk =   0.0054870
        k(   75) = (  -0.5000000  -0.5000000  -0.4995837), wk =   0.0027435

     Dense  grid:   492195 G-vectors     FFT dimensions: ( 100, 100, 100)

     Smooth grid:   264059 G-vectors     FFT dimensions: (  80,  80,  80)

     Estimated max dynamical RAM per process >     891.77 MB

     Estimated total dynamical RAM >      17.42 GB

     Check: negative/imaginary core charge=   -0.000002    0.000000

     Initial potential from superposition of free atoms

     starting charge  575.98776, renormalised to  576.00000
     Starting wfcs are  320 randomized atomic wfcs +   26 random wfcs
     Checking if some PAW data can be deallocated... 

     total cpu time spent up to now is       45.0 secs

     Self-consistent Calculation

     iteration #  1     ecut=    71.00 Ry     beta= 0.10
     Davidson diagonalization with overlap
     ethr =  1.00E-02,  avg # of iterations =  3.1

     Threshold (ethr) on eigenvalues was too large:
     Diagonalizing with lowered threshold

     Davidson diagonalization with overlap
     ethr =  8.35E-05,  avg # of iterations =  3.0

     total cpu time spent up to now is      490.1 secs

     total energy              =  -16385.02072665 Ry
     Harris-Foulkes estimate   =  -16385.08846745 Ry
     estimated scf accuracy    <       0.47539368 Ry

     iteration #  2     ecut=    71.00 Ry     beta= 0.10
     Davidson diagonalization with overlap
     ethr =  8.25E-05,  avg # of iterations =  1.1

     total cpu time spent up to now is      628.6 secs

     total energy              =  -16384.92955404 Ry
     Harris-Foulkes estimate   =  -16385.02849763 Ry
     estimated scf accuracy    <       0.25876043 Ry

     iteration #  3     ecut=    71.00 Ry     beta= 0.10
     Davidson diagonalization with overlap
     ethr =  4.49E-05,  avg # of iterations =  2.2

     total cpu time spent up to now is      819.2 secs

     total energy              =  -16384.96178053 Ry
     Harris-Foulkes estimate   =  -16384.96723043 Ry
     estimated scf accuracy    <       0.07177931 Ry

     iteration #  4     ecut=    71.00 Ry     beta= 0.10
     Davidson diagonalization with overlap
     ethr =  1.25E-05,  avg # of iterations =  1.6

     total cpu time spent up to now is      972.0 secs

     total energy              =  -16384.96233557 Ry
     Harris-Foulkes estimate   =  -16384.96447699 Ry
     estimated scf accuracy    <       0.02192654 Ry

     iteration #  5     ecut=    71.00 Ry     beta= 0.10
     Davidson diagonalization with overlap
     ethr =  3.81E-06,  avg # of iterations =  1.4

     total cpu time spent up to now is     1119.6 secs

     total energy              =  -16384.95733309 Ry
     Harris-Foulkes estimate   =  -16384.96252718 Ry
     estimated scf accuracy    <       0.01493116 Ry

     iteration #  6     ecut=    71.00 Ry     beta= 0.10
     Davidson diagonalization with overlap
     ethr =  2.59E-06,  avg # of iterations =  1.0

     total cpu time spent up to now is     1256.9 secs

     total energy              =  -16384.95833189 Ry
     Harris-Foulkes estimate   =  -16384.95833644 Ry
     estimated scf accuracy    <       0.00019744 Ry

     iteration #  7     ecut=    71.00 Ry     beta= 0.10
     Davidson diagonalization with overlap
     ethr =  3.43E-08,  avg # of iterations =  3.1

     total cpu time spent up to now is     1513.2 secs

     total energy              =  -16384.95841128 Ry
     Harris-Foulkes estimate   =  -16384.95842535 Ry
     estimated scf accuracy    <       0.00023462 Ry

     iteration #  8     ecut=    71.00 Ry     beta= 0.10
     Davidson diagonalization with overlap
     ethr =  3.43E-08,  avg # of iterations =  1.2

     total cpu time spent up to now is     1655.6 secs

     total energy              =  -16384.95841424 Ry
     Harris-Foulkes estimate   =  -16384.95841855 Ry
     estimated scf accuracy    <       0.00005303 Ry

     iteration #  9     ecut=    71.00 Ry     beta= 0.10
     Davidson diagonalization with overlap
     ethr =  9.21E-09,  avg # of iterations =  1.0

     total cpu time spent up to now is     1791.4 secs

     total energy              =  -16384.95841428 Ry
     Harris-Foulkes estimate   =  -16384.95841527 Ry
     estimated scf accuracy    <       0.00003658 Ry

     iteration # 10     ecut=    71.00 Ry     beta= 0.10
     Davidson diagonalization with overlap
     ethr =  6.35E-09,  avg # of iterations =  2.0

     total cpu time spent up to now is     1978.3 secs

     total energy              =  -16384.95842141 Ry
     Harris-Foulkes estimate   =  -16384.95841831 Ry
     estimated scf accuracy    <       0.00000366 Ry

     iteration # 11     ecut=    71.00 Ry     beta= 0.10
     Davidson diagonalization with overlap
     ethr =  6.36E-10,  avg # of iterations =  1.1

     total cpu time spent up to now is     2118.5 secs

     End of self-consistent calculation

          k = 0.0556 0.0556 0.0555 ( 33024 PWs)   bands (ev):

   -64.8891 -64.8602 -64.8601 -64.8600 -64.8546 -64.8545 -64.8545 -64.8444
   -64.8443 -64.8442 -64.8420 -64.8416 -64.8414 -64.8413 -64.8412 -64.8412
   -64.8411 -64.8411 -64.8409 -64.8404 -64.8387 -64.8386 -64.8386 -64.8262
   -64.8257 -64.8256 -64.8255 -64.8254 -64.8254 -64.8254 -64.8252 -64.8247
   -30.7730 -30.7730 -30.7730 -30.7712 -30.7527 -30.7527 -30.7524 -30.6754
   -30.6749 -30.6748 -30.6711 -30.6710 -30.6705 -30.6705 -30.6704 -30.6704
   -30.6632 -30.6627 -30.6626 -30.6579 -30.6579 -30.6574 -30.6574 -30.6574
   -30.6573 -30.6393 -30.6393 -30.6388 -30.6388 -30.6388 -30.6387 -30.5981
   -30.5981 -30.5979 -30.5737 -30.5736 -30.5735 -30.5676 -30.5676 -30.5675
   -30.5583 -30.5583 -30.5582 -30.5582 -30.5580 -30.5580 -30.5433 -30.5433
   -30.5431 -30.5426 -30.5424 -30.5424 -30.5424 -30.5423 -30.5421 -30.5419
   -30.5418 -30.5415 -30.5403 -30.5401 -30.5398 -30.4772 -30.4771 -30.4767
   -30.4767 -30.4766 -30.4765 -30.4647 -30.4647 -30.4644 -30.4644 -30.4643
   -30.4642 -30.4611 -30.4610 -30.4608 -30.4567 -30.4567 -30.4564 -30.4560
   -30.4560 -30.4559 -30.4559 -30.4558 -30.4556 -30.4555 -30.4552 -30.4549
   -30.4546 -30.4542 -30.4489 -30.4488 -30.4485 -30.4032 -30.4009 -30.4008
    12.2789  14.0361  14.0361  14.0362  14.1043  14.1180  14.1180  14.1180
    14.3055  14.3083  14.3084  14.3110  14.3110  14.3110  14.5006  14.5034
    14.5035  15.0464  15.0465  15.0492  15.0493  15.0493  15.0494  15.2001
    15.2029  15.2030  15.3515  15.3517  15.3517  15.3861  15.3895  15.3895
    15.4339  15.4339  15.4343  15.4344  15.4344  15.4344  15.4357  15.4364
    15.4365  15.7766  15.7766  15.7783  15.7783  15.7789  15.7789  15.8832
    15.8860  15.8860  15.9051  15.9051  15.9079  15.9079  15.9083  15.9083
    15.9617  15.9649  15.9650  16.1318  16.1318  16.1338  16.1338  16.1346
    16.1346  16.2383  16.2383  16.2401  16.2428  16.2428  16.2429  16.2430
    16.2441  16.2441  16.3506  16.3507  16.3511  16.4117  16.4166  16.4167
    16.4325  16.4397  16.4453  16.4453  16.4503  16.4640  16.4824  16.4866
    17.2776  17.2818  17.2818  17.3404  17.3404  17.3422  17.4130  17.4130
    17.4132  17.4133  17.4147  17.4147  17.4192  17.4193  17.4206  17.4648
    17.4693  17.4694  17.5699  17.5700  17.5730  17.6891  17.6892  17.6900
    17.8137  17.8138  17.8165  17.8713  17.8714  17.8738  17.9449  17.9449
    17.9456  17.9457  17.9457  17.9458  17.9643  17.9643  17.9646  18.0084
    18.0162  18.0191  18.0192  18.0193  18.0193  18.0214  18.0214  18.1283
    18.1283  18.1305  18.5148  18.5149  18.5184  18.6167  18.6167  18.6196
    18.9996  18.9996  19.0019  19.1243  19.1243  19.1247  19.1496  19.1529
    19.1698  19.1722  19.1722  19.4009  19.4015  19.4015  19.4540  19.4541
    19.4542  19.4542  19.4580  19.4583  19.4584  19.4589  19.4592  20.1247
    20.4305  20.4305  20.4306  20.9521  20.9521  20.9568  21.4616  21.4617
    21.4619  21.4619  21.4674  21.4674  21.9905  21.9906  21.9970  22.5645
    22.5803  22.5803  26.3255  26.3256  26.3257  26.4824  27.4689  27.4690
    27.4762  27.4762  27.4834  27.4835  28.1612  28.1612  28.1680  28.1680
    28.1757  28.1759  29.5755  29.5755  29.5785  29.5785  29.5854  29.5854
    29.7289  29.7509  29.7510  30.6937  30.7353  30.7354  30.7378  30.7379
    30.7434  30.7435

          k = 0.0556 0.0556 0.1665 ( 33013 PWs)   bands (ev):

   -64.8881 -64.8656 -64.8596 -64.8595 -64.8541 -64.8540 -64.8491 -64.8473
   -64.8472 -64.8443 -64.8437 -64.8437 -64.8421 -64.8420 -64.8412 -64.8410
   -64.8407 -64.8404 -64.8386 -64.8383 -64.8382 -64.8362 -64.8361 -64.8266
   -64.8262 -64.8261 -64.8259 -64.8259 -64.8258 -64.8255 -64.8253 -64.8247
   -30.7703 -30.7686 -30.7686 -30.7655 -30.7494 -30.7494 -30.7472 -30.6868
   -30.6816 -30.6816 -30.6768 -30.6767 -30.6758 -30.6758 -30.6756 -30.6756
   -30.6736 -30.6638 -30.6637 -30.6611 -30.6610 -30.6562 -30.6562 -30.6525
   -30.6525 -30.6416 -30.6415 -30.6354 -30.6354 -30.6276 -30.6214 -30.6213
   -30.6029 -30.6028 -30.5888 -30.5888 -30.5737 -30.5737 -30.5730 -30.5730
   -30.5615 -30.5475 -30.5475 -30.5459 -30.5459 -30.5431 -30.5431 -30.5420
   -30.5418 -30.5396 -30.5395 -30.5392 -30.5376 -30.5372 -30.5370 -30.5370
   -30.5365 -30.5365 -30.5333 -30.5285 -30.5285 -30.4890 -30.4885 -30.4799
   -30.4799 -30.4738 -30.4738 -30.4686 -30.4686 -30.4674 -30.4674 -30.4653
   -30.4653 -30.4630 -30.4610 -30.4610 -30.4606 -30.4605 -30.4605 -30.4566
   -30.4563 -30.4563 -30.4557 -30.4554 -30.4549 -30.4532 -30.4532 -30.4531
   -30.4523 -30.4520 -30.4487 -30.4443 -30.4443 -30.4097 -30.4029 -30.4022
    12.3523  14.0068  14.0704  14.0824  14.0824  14.1322  14.1595  14.1595
    14.1729  14.3387  14.3532  14.3532  14.3595  14.3596  14.5552  14.5553
    14.5702  14.9608  14.9609  15.0223  15.0839  15.0840  15.0908  15.0909
    15.1196  15.2003  15.2004  15.2290  15.2291  15.2396  15.2465  15.2466
    15.3931  15.3932  15.4114  15.4114  15.4237  15.4238  15.4603  15.4603
    15.5066  15.5066  15.5750  15.7633  15.7633  15.7818  15.7818  15.8275
    15.8276  15.8370  15.8371  15.8958  15.8958  15.9837  15.9838  15.9966
    16.0423  16.0423  16.0894  16.0960  16.0961  16.1010  16.1010  16.1392
    16.1393  16.1832  16.1832  16.2128  16.2129  16.3712  16.3914  16.3914
    16.3942  16.3943  16.4145  16.4146  16.4242  16.4330  16.4606  16.4627
    16.4702  16.4843  16.4843  16.4941  16.5154  16.5187  16.5219  16.5219
    17.0915  17.0916  17.2024  17.2055  17.2275  17.2275  17.2820  17.2820
    17.2996  17.3461  17.3647  17.3647  17.4834  17.4952  17.4953  17.5083
    17.5084  17.5466  17.5466  17.5548  17.5548  17.7682  17.7683  17.7855
    17.7941  17.7942  17.8617  17.8618  17.9418  17.9418  17.9509  17.9509
    17.9511  17.9512  17.9677  18.0313  18.0324  18.0411  18.0411  18.0705
    18.1596  18.1596  18.1688  18.1688  18.2034  18.2035  18.2598  18.2759
    18.2760  18.3074  18.4204  18.5607  18.5608  18.6879  18.6896  18.6896
    18.7218  18.7384  18.7384  18.9530  19.0624  19.0624  19.0828  19.1014
    19.1424  19.1437  19.1437  19.1688  19.1688  19.3312  19.3826  19.3826
    19.3837  19.3837  19.3969  19.4571  19.4575  19.4583  19.4587  20.1168
    20.4887  20.4887  20.6015  20.6016  20.8319  20.9280  20.9723  20.9723
    21.4446  21.4446  21.9779  22.0288  22.0288  22.2030  22.5697  22.5697
    22.8707  22.8707  26.3240  26.4837  26.4837  26.7590  26.7590  26.7601
    26.7601  26.7784  27.3522  27.3522  27.6156  27.6157  28.3000  28.3002
    28.8070  28.8070  29.6333  29.6333  29.7347  29.7369  29.7369  29.8915
    29.8915  29.9665  29.9665  30.1802  30.1802  30.1825  30.2783  30.2783
    30.7282  30.7282

          k = 0.0556 0.0556 0.2775 ( 33014 PWs)   bands (ev):

   -64.8862 -64.8708 -64.8586 -64.8585 -64.8533 -64.8532 -64.8501 -64.8500
   -64.8461 -64.8460 -64.8441 -64.8439 -64.8425 -64.8420 -64.8412 -64.8410
   -64.8404 -64.8403 -64.8388 -64.8355 -64.8354 -64.8338 -64.8337 -64.8285
   -64.8271 -64.8270 -64.8268 -64.8267 -64.8262 -64.8255 -64.8253 -64.8247
   -30.7634 -30.7603 -30.7603 -30.7557 -30.7432 -30.7432 -30.7374 -30.7038
   -30.6981 -30.6981 -30.6929 -30.6929 -30.6900 -30.6782 -30.6781 -30.6762
   -30.6761 -30.6663 -30.6662 -30.6570 -30.6570 -30.6558 -30.6550 -30.6549
   -30.6424 -30.6424 -30.6404 -30.6404 -30.6295 -30.6295 -30.6112 -30.6112
   -30.6040 -30.6040 -30.6033 -30.6032 -30.5870 -30.5870 -30.5844 -30.5844
   -30.5526 -30.5526 -30.5434 -30.5417 -30.5414 -30.5397 -30.5395 -30.5350
   -30.5336 -30.5310 -30.5309 -30.5286 -30.5285 -30.5277 -30.5277 -30.5265
   -30.5265 -30.5181 -30.5144 -30.5144 -30.5082 -30.5007 -30.4999 -30.4853
   -30.4853 -30.4781 -30.4781 -30.4764 -30.4764 -30.4733 -30.4726 -30.4726
   -30.4689 -30.4688 -30.4687 -30.4687 -30.4628 -30.4602 -30.4573 -30.4563
   -30.4558 -30.4557 -30.4556 -30.4554 -30.4548 -30.4528 -30.4528 -30.4522
   -30.4490 -30.4423 -30.4423 -30.4409 -30.4403 -30.4209 -30.4071 -30.4062
    12.4971  13.6572  14.1364  14.1724  14.1725  14.2016  14.2420  14.2420
    14.2680  14.3936  14.4374  14.4374  14.4585  14.4585  14.5386  14.6556
    14.6557  14.8138  14.8138  14.8573  14.8724  14.9499  14.9499  15.0014
    15.1093  15.1093  15.1489  15.1490  15.1719  15.1720  15.1791  15.1791
    15.2809  15.2809  15.2931  15.2932  15.4057  15.4057  15.4542  15.4543
    15.5704  15.5705  15.7121  15.7121  15.7442  15.7442  15.7609  15.7643
    15.7643  15.7840  15.7840  15.8108  15.8109  15.9229  15.9230  15.9949
    15.9950  16.0439  16.0493  16.0493  16.1192  16.1192  16.1463  16.1463
    16.1520  16.1520  16.2148  16.2339  16.2340  16.3144  16.3475  16.3521
    16.3521  16.4146  16.4155  16.4156  16.5188  16.5526  16.5526  16.5701
    16.5804  16.5828  16.7295  16.7295  16.7473  16.7967  16.8866  16.8867
    16.9409  16.9409  16.9608  16.9609  17.0312  17.1098  17.1165  17.1165
    17.1336  17.1400  17.4312  17.4512  17.4512  17.5475  17.5475  17.6162
    17.6163  17.6320  17.6321  17.6899  17.6900  17.7215  17.7216  17.7842
    17.7844  17.8896  17.9285  17.9286  17.9292  17.9292  17.9528  17.9529
    17.9583  17.9584  18.0642  18.1552  18.2083  18.2083  18.2237  18.2237
    18.2363  18.3201  18.3270  18.3285  18.3664  18.3665  18.3672  18.3672
    18.4131  18.4131  18.4411  18.4558  18.4558  18.5296  18.7059  18.7059
    18.7669  18.7669  18.7708  18.8225  18.9185  18.9186  18.9683  18.9683
    18.9728  19.0512  19.0574  19.0575  19.0692  19.1968  19.2497  19.2497
    19.2511  19.2511  19.2835  19.4569  19.4573  19.4581  19.4586  20.0611
    20.0611  20.2908  20.5116  20.5116  20.8263  20.8263  20.8686  21.2034
    21.3959  21.3959  21.5940  21.9335  22.6635  22.6636  23.2101  23.2101
    23.3578  23.3578  25.8771  25.8771  26.0362  26.0362  26.4368  26.4368
    26.4935  26.7976  26.7976  27.2019  27.8638  27.8638  28.5381  28.5383
    28.8430  29.3055  29.3055  29.3888  29.3888  29.6506  29.6506  29.7092
    29.7092  29.7933  29.7933  29.9481  30.0580  30.0580  30.2217  30.2218
    30.2305  30.2306

          k = 0.0556 0.0556 0.3886 ( 33021 PWs)   bands (ev):

   -64.8835 -64.8756 -64.8571 -64.8570 -64.8527 -64.8526 -64.8520 -64.8519
   -64.8483 -64.8482 -64.8439 -64.8429 -64.8420 -64.8412 -64.8410 -64.8404
   -64.8399 -64.8391 -64.8389 -64.8329 -64.8328 -64.8317 -64.8316 -64.8313
   -64.8286 -64.8285 -64.8280 -64.8279 -64.8262 -64.8255 -64.8253 -64.8247
   -30.7525 -30.7484 -30.7484 -30.7425 -30.7341 -30.7341 -30.7230 -30.7217
   -30.7161 -30.7161 -30.7086 -30.7086 -30.7084 -30.6815 -30.6782 -30.6782
   -30.6733 -30.6732 -30.6716 -30.6716 -30.6621 -30.6621 -30.6447 -30.6446
   -30.6371 -30.6371 -30.6267 -30.6267 -30.6218 -30.6218 -30.6215 -30.6215
   -30.6165 -30.6164 -30.6001 -30.6001 -30.5978 -30.5978 -30.5881 -30.5881
   -30.5620 -30.5620 -30.5415 -30.5411 -30.5401 -30.5398 -30.5288 -30.5275
   -30.5234 -30.5157 -30.5157 -30.5152 -30.5151 -30.5144 -30.5144 -30.5130
   -30.5129 -30.5114 -30.5104 -30.5016 -30.5014 -30.5014 -30.4931 -30.4931
   -30.4892 -30.4892 -30.4890 -30.4890 -30.4873 -30.4812 -30.4806 -30.4806
   -30.4802 -30.4802 -30.4727 -30.4634 -30.4634 -30.4597 -30.4581 -30.4564
   -30.4557 -30.4555 -30.4549 -30.4547 -30.4547 -30.4513 -30.4502 -30.4501
   -30.4495 -30.4427 -30.4427 -30.4367 -30.4304 -30.4296 -30.4132 -30.4122
    12.7095  13.3051  14.2286  14.3013  14.3013  14.3120  14.3644  14.3644
    14.4017  14.4493  14.4747  14.5631  14.5631  14.5978  14.5979  14.6379
    14.6379  14.6502  14.7089  14.7217  14.7217  14.7736  14.7971  14.7971
    14.9353  14.9353  14.9431  14.9431  15.1416  15.1417  15.2334  15.2335
    15.2887  15.2888  15.3576  15.3576  15.3751  15.3752  15.5157  15.5158
    15.5696  15.5697  15.5795  15.5795  15.6783  15.6784  15.7172  15.7172
    15.7338  15.7338  15.7761  15.7762  15.8224  15.8225  15.9377  15.9648
    15.9648  15.9959  15.9959  16.1044  16.1524  16.1525  16.1531  16.1532
    16.1807  16.1807  16.2373  16.2465  16.2824  16.3006  16.3006  16.3365
    16.3366  16.3807  16.4659  16.4660  16.6067  16.6508  16.6508  16.6763
    16.6767  16.6781  16.7063  16.7064  16.7144  16.7145  16.8676  16.9118
    16.9119  16.9529  16.9584  16.9646  17.1429  17.1466  17.1467  17.1607
    17.3860  17.3860  17.5166  17.5166  17.5212  17.5413  17.5413  17.7120
    17.7121  17.7489  17.7490  17.7571  17.7572  17.7729  17.7730  17.7803
    17.8104  17.8104  17.8972  17.8973  17.9332  17.9381  17.9382  17.9399
    17.9400  17.9562  17.9563  17.9701  17.9701  18.0561  18.1111  18.1697
    18.1697  18.2449  18.3181  18.3181  18.4117  18.4117  18.4471  18.4860
    18.5700  18.5700  18.5751  18.6297  18.6364  18.6364  18.6577  18.6577
    18.8109  18.8109  18.8251  18.9213  18.9264  18.9264  18.9546  18.9592
    18.9655  18.9655  19.0061  19.0710  19.0710  19.0719  19.0719  19.1446
    19.2630  19.2631  19.3860  19.4569  19.4574  19.4579  19.4584  19.6632
    19.6632  20.0732  20.0733  20.4825  20.7760  20.8641  21.0325  21.0325
    21.3155  21.3156  21.5007  21.8513  23.3709  23.3710  23.9186  23.9186
    23.9568  23.9568  24.9917  24.9917  25.3180  25.3180  25.5407  25.5407
    26.8436  27.2604  27.2604  27.7424  28.0442  28.2145  28.2146  28.5753
    28.5753  28.8729  28.8731  29.1290  29.1315  29.1315  29.5232  29.5233
    29.6679  29.6680  29.7428  29.7429  30.1859  30.1860  30.2010  30.2010
    30.4246  30.4246

          k = 0.0556 0.0556-0.4996 ( 33046 PWs)   bands (ev):

   -64.8803 -64.8795 -64.8555 -64.8554 -64.8547 -64.8546 -64.8507 -64.8506
   -64.8499 -64.8498 -64.8438 -64.8430 -64.8420 -64.8412 -64.8410 -64.8404
   -64.8398 -64.8390 -64.8352 -64.8345 -64.8309 -64.8308 -64.8301 -64.8301
   -64.8301 -64.8300 -64.8293 -64.8292 -64.8262 -64.8255 -64.8253 -64.8247
   -30.7386 -30.7382 -30.7339 -30.7336 -30.7331 -30.7328 -30.7265 -30.7262
   -30.7229 -30.7229 -30.7221 -30.7221 -30.7045 -30.7037 -30.6761 -30.6760
   -30.6757 -30.6757 -30.6684 -30.6683 -30.6682 -30.6681 -30.6336 -30.6336
   -30.6332 -30.6332 -30.6283 -30.6283 -30.6276 -30.6276 -30.6125 -30.6125
   -30.6121 -30.6121 -30.6120 -30.6120 -30.6113 -30.6113 -30.5743 -30.5743
   -30.5736 -30.5736 -30.5413 -30.5407 -30.5405 -30.5400 -30.5213 -30.5205
   -30.5201 -30.5193 -30.5045 -30.5042 -30.5036 -30.5036 -30.5028 -30.5028
   -30.5026 -30.5026 -30.5022 -30.5022 -30.5016 -30.5016 -30.5013 -30.5013
   -30.4962 -30.4959 -30.4954 -30.4951 -30.4903 -30.4902 -30.4895 -30.4895
   -30.4862 -30.4859 -30.4593 -30.4587 -30.4586 -30.4585 -30.4583 -30.4582
   -30.4574 -30.4567 -30.4563 -30.4556 -30.4554 -30.4548 -30.4508 -30.4500
   -30.4457 -30.4457 -30.4454 -30.4454 -30.4214 -30.4207 -30.4204 -30.4198
    12.9822  12.9832  14.3376  14.3384  14.4600  14.4604  14.4608  14.4614
    14.4622  14.4622  14.5247  14.5247  14.5255  14.5256  14.5714  14.5715
    14.5801  14.5809  14.7291  14.7291  14.7299  14.7299  14.7650  14.7650
    14.7658  14.7658  14.9659  14.9660  14.9667  14.9668  15.3167  15.3168
    15.3170  15.3171  15.4321  15.4322  15.4329  15.4330  15.4576  15.4576
    15.4582  15.4583  15.5920  15.5920  15.5927  15.5927  15.7458  15.7458
    15.7460  15.7460  15.7535  15.7535  15.7536  15.7536  15.9649  15.9650
    15.9650  15.9650  16.0983  16.0990  16.1549  16.1550  16.1556  16.1556
    16.1738  16.1744  16.2412  16.2417  16.2418  16.2424  16.3354  16.3359
    16.5023  16.5024  16.5025  16.5025  16.5634  16.5634  16.5635  16.5636
    16.7240  16.7242  16.7753  16.7755  16.7761  16.7763  16.8020  16.8028
    16.8034  16.8042  16.8093  16.8096  17.5347  17.5347  17.5353  17.5353
    17.5393  17.5393  17.5396  17.5396  17.5430  17.5433  17.5865  17.5868
    17.6509  17.6515  17.7544  17.7545  17.7550  17.7551  17.8385  17.8386
    17.8392  17.8393  17.8492  17.8492  17.8495  17.8495  17.8537  17.8539
    17.8543  17.8545  17.8931  17.8931  17.8937  17.8938  18.0681  18.0681
    18.0687  18.0688  18.1714  18.1722  18.6198  18.6203  18.6204  18.6209
    18.6468  18.6470  18.7603  18.7604  18.7609  18.7611  18.7675  18.7681
    18.7964  18.7966  18.8049  18.8051  18.8603  18.8603  18.8608  18.8608
    18.8682  18.8682  18.8686  18.8686  19.0227  19.0230  19.2946  19.2946
    19.2947  19.2948  19.4569  19.4575  19.4577  19.4584  19.6552  19.6553
    19.6554  19.6554  20.1052  20.1058  20.6469  20.6477  21.1959  21.1960
    21.1967  21.1967  21.7129  21.7137  24.1497  24.1497  24.1500  24.1500
    24.6188  24.6188  24.6195  24.6195  24.6969  24.6969  24.6972  24.6972
    27.3678  27.3680  27.8586  27.8587  27.8593  27.8594  28.3889  28.3890
    28.6445  28.6445  28.6453  28.6453  29.2821  29.2822  29.2828  29.2830
    29.6106  29.6110  29.6112  29.6116  30.3727  30.3727  30.3735  30.3736
    30.6544  30.6549

          k = 0.0556 0.1667 0.0555 ( 33010 PWs)   bands (ev):

   -64.8881 -64.8656 -64.8596 -64.8595 -64.8542 -64.8541 -64.8490 -64.8473
   -64.8472 -64.8442 -64.8438 -64.8437 -64.8421 -64.8413 -64.8413 -64.8411
   -64.8410 -64.8407 -64.8387 -64.8382 -64.8381 -64.8361 -64.8361 -64.8268
   -64.8260 -64.8260 -64.8259 -64.8258 -64.8256 -64.8255 -64.8254 -64.8250
   -30.7703 -30.7686 -30.7686 -30.7655 -30.7494 -30.7491 -30.7475 -30.6864
   -30.6812 -30.6811 -30.6773 -30.6768 -30.6762 -30.6757 -30.6754 -30.6753
   -30.6731 -30.6643 -30.6636 -30.6614 -30.6611 -30.6566 -30.6561 -30.6531
   -30.6525 -30.6421 -30.6417 -30.6359 -30.6353 -30.6279 -30.6208 -30.6207
   -30.6029 -30.6026 -30.5889 -30.5886 -30.5737 -30.5735 -30.5732 -30.5728
   -30.5616 -30.5477 -30.5476 -30.5455 -30.5451 -30.5429 -30.5427 -30.5423
   -30.5421 -30.5401 -30.5399 -30.5393 -30.5382 -30.5374 -30.5371 -30.5367
   -30.5364 -30.5361 -30.5334 -30.5284 -30.5282 -30.4894 -30.4887 -30.4795
   -30.4794 -30.4742 -30.4737 -30.4686 -30.4683 -30.4670 -30.4670 -30.4653
   -30.4650 -30.4627 -30.4613 -30.4610 -30.4609 -30.4604 -30.4601 -30.4567
   -30.4563 -30.4561 -30.4560 -30.4558 -30.4556 -30.4534 -30.4533 -30.4529
   -30.4526 -30.4521 -30.4491 -30.4443 -30.4440 -30.4097 -30.4029 -30.4022
    12.3524  14.0094  14.0705  14.0825  14.0825  14.1322  14.1595  14.1596
    14.1730  14.3388  14.3531  14.3532  14.3569  14.3596  14.5527  14.5554
    14.5726  14.9633  14.9634  15.0246  15.0814  15.0841  15.0881  15.0908
    15.1199  15.2009  15.2009  15.2263  15.2289  15.2404  15.2467  15.2469
    15.3933  15.3934  15.4081  15.4113  15.4229  15.4239  15.4589  15.4608
    15.5060  15.5066  15.5790  15.7646  15.7654  15.7795  15.7813  15.8251
    15.8270  15.8346  15.8366  15.8935  15.8965  15.9818  15.9838  15.9992
    16.0449  16.0457  16.0927  16.0953  16.0971  16.1027  16.1035  16.1365
    16.1385  16.1826  16.1837  16.2116  16.2124  16.3762  16.3908  16.3932
    16.3933  16.3963  16.4132  16.4137  16.4301  16.4378  16.4579  16.4595
    16.4693  16.4793  16.4848  16.4890  16.5105  16.5176  16.5197  16.5229
    17.0876  17.0898  17.1997  17.2075  17.2235  17.2262  17.2796  17.2797
    17.2974  17.3428  17.3653  17.3670  17.4841  17.4954  17.4970  17.5089
    17.5098  17.5474  17.5484  17.5568  17.5588  17.7686  17.7709  17.7893
    17.7954  17.7975  17.8619  17.8620  17.9412  17.9419  17.9505  17.9513
    17.9516  17.9533  17.9734  18.0267  18.0297  18.0419  18.0421  18.0680
    18.1595  18.1600  18.1673  18.1675  18.2034  18.2051  18.2585  18.2760
    18.2779  18.3092  18.4165  18.5605  18.5635  18.6861  18.6896  18.6917
    18.7193  18.7367  18.7389  18.9513  19.0629  19.0630  19.0851  19.1009
    19.1433  19.1447  19.1459  19.1690  19.1723  19.3317  19.3829  19.3835
    19.3866  19.3874  19.3973  19.4530  19.4538  19.4543  19.4548  20.1157
    20.4885  20.4924  20.6007  20.6007  20.8312  20.9234  20.9719  20.9769
    21.4390  21.4393  21.9717  22.0296  22.0358  22.2180  22.5702  22.5773
    22.8563  22.8715  26.3243  26.4841  26.4845  26.7523  26.7664  26.7666
    26.7731  26.7790  27.3591  27.3661  27.6016  27.6090  28.2856  28.2927
    28.8004  28.8143  29.6213  29.6292  29.7152  29.7368  29.7455  29.8776
    29.8931  29.9573  29.9697  30.1674  30.1795  30.2051  30.2883  30.2889
    30.7173  30.7270

          k = 0.0556 0.1667 0.1665 ( 33023 PWs)   bands (ev):

   -64.8872 -64.8650 -64.8649 -64.8590 -64.8536 -64.8507 -64.8488 -64.8487
   -64.8471 -64.8470 -64.8437 -64.8436 -64.8430 -64.8416 -64.8404 -64.8403
   -64.8402 -64.8401 -64.8383 -64.8382 -64.8363 -64.8363 -64.8341 -64.8269
   -64.8266 -64.8264 -64.8263 -64.8261 -64.8260 -64.8258 -64.8257 -64.8250
   -30.7676 -30.7676 -30.7629 -30.7582 -30.7463 -30.7447 -30.7444 -30.6894
   -30.6891 -30.6870 -30.6865 -30.6774 -30.6770 -30.6756 -30.6741 -30.6737
   -30.6733 -30.6730 -30.6725 -30.6723 -30.6646 -30.6646 -30.6631 -30.6625
   -30.6391 -30.6326 -30.6326 -30.6311 -30.6309 -30.6265 -30.6261 -30.6184
   -30.6179 -30.6080 -30.6043 -30.5802 -30.5755 -30.5754 -30.5616 -30.5615
   -30.5575 -30.5572 -30.5516 -30.5447 -30.5447 -30.5436 -30.5429 -30.5378
   -30.5374 -30.5373 -30.5372 -30.5368 -30.5359 -30.5354 -30.5338 -30.5336
   -30.5320 -30.5320 -30.5198 -30.5196 -30.5141 -30.4922 -30.4917 -30.4864
   -30.4863 -30.4773 -30.4757 -30.4741 -30.4683 -30.4682 -30.4681 -30.4678
   -30.4651 -30.4647 -30.4641 -30.4641 -30.4639 -30.4632 -30.4595 -30.4585
   -30.4584 -30.4575 -30.4551 -30.4548 -30.4544 -30.4534 -30.4531 -30.4531
   -30.4485 -30.4485 -30.4447 -30.4444 -30.4378 -30.4176 -30.4049 -30.4021
    12.4248  14.0594  14.0618  14.1170  14.1170  14.1240  14.1449  14.1861
    14.2261  14.2261  14.3805  14.3805  14.3984  14.4001  14.5935  14.6226
    14.6248  14.9833  14.9853  15.0034  15.0059  15.0324  15.0325  15.0524
    15.0545  15.0763  15.1248  15.1249  15.1456  15.1458  15.2667  15.2719
    15.2726  15.2806  15.2812  15.3324  15.4432  15.4720  15.4724  15.4771
    15.4780  15.5077  15.5081  15.5926  15.5965  15.7387  15.7404  15.8233
    15.8236  15.8341  15.9273  15.9287  15.9425  15.9436  16.0034  16.0045
    16.0150  16.0739  16.0773  16.0833  16.0863  16.1377  16.1398  16.2372
    16.2846  16.2854  16.3275  16.3297  16.3375  16.3377  16.3862  16.4074
    16.4436  16.4439  16.4467  16.4486  16.4488  16.4648  16.4667  16.4824
    16.5144  16.5158  16.5162  16.5168  16.5274  16.5401  16.5424  16.5476
    16.9909  17.0468  17.0499  17.1001  17.2037  17.2070  17.3119  17.3321
    17.3330  17.3357  17.3366  17.3915  17.3936  17.4147  17.4169  17.4698
    17.4750  17.4784  17.5575  17.6295  17.6398  17.6403  17.6590  17.6595
    17.6820  17.9373  17.9374  17.9539  17.9554  17.9582  18.0206  18.0285
    18.0293  18.0449  18.0460  18.0475  18.0546  18.0550  18.1359  18.1370
    18.1640  18.1642  18.3432  18.3445  18.3838  18.3954  18.3967  18.3987
    18.4395  18.4404  18.4450  18.4483  18.5032  18.5040  18.5350  18.5763
    18.6994  18.8063  18.8589  18.8597  18.9929  18.9937  18.9939  19.0119
    19.1096  19.1391  19.1394  19.1556  19.1566  19.1688  19.3248  19.3250
    19.3818  19.3848  19.3859  19.3884  19.3955  19.3979  19.4185  19.8361
    20.0574  20.4571  20.4607  20.5007  20.9484  20.9529  21.1272  21.1274
    21.5194  21.5203  22.0161  22.0228  22.4935  22.5071  22.5575  22.5647
    23.1328  23.1538  26.1335  26.1412  26.3218  26.3222  26.7846  26.8475
    26.8604  26.8962  26.9023  27.1848  27.4812  27.4943  27.9190  27.9257
    28.9345  28.9419  29.2151  29.2264  29.6184  29.7183  29.7539  29.7653
    29.8529  29.8536  30.0748  30.0810  30.1727  30.1950  30.5637  30.5695
    30.8518  30.8655

          k = 0.0556 0.1667 0.2775 ( 33009 PWs)   bands (ev):

   -64.8853 -64.8701 -64.8638 -64.8580 -64.8540 -64.8528 -64.8498 -64.8480
   -64.8468 -64.8459 -64.8439 -64.8436 -64.8436 -64.8422 -64.8420 -64.8398
   -64.8393 -64.8383 -64.8370 -64.8366 -64.8356 -64.8340 -64.8322 -64.8285
   -64.8274 -64.8273 -64.8272 -64.8268 -64.8265 -64.8260 -64.8257 -64.8250
   -30.7621 -30.7608 -30.7535 -30.7472 -30.7401 -30.7391 -30.7351 -30.7066
   -30.7032 -30.6930 -30.6902 -30.6898 -30.6891 -30.6891 -30.6796 -30.6791
   -30.6783 -30.6731 -30.6723 -30.6704 -30.6685 -30.6672 -30.6641 -30.6576
   -30.6500 -30.6371 -30.6340 -30.6276 -30.6238 -30.6226 -30.6189 -30.6170
   -30.6124 -30.6106 -30.6013 -30.5914 -30.5885 -30.5752 -30.5709 -30.5598
   -30.5573 -30.5557 -30.5503 -30.5441 -30.5425 -30.5385 -30.5378 -30.5371
   -30.5354 -30.5348 -30.5330 -30.5287 -30.5257 -30.5239 -30.5232 -30.5206
   -30.5190 -30.5167 -30.5067 -30.5059 -30.5034 -30.5004 -30.4982 -30.4978
   -30.4824 -30.4816 -30.4816 -30.4799 -30.4774 -30.4771 -30.4767 -30.4759
   -30.4709 -30.4684 -30.4670 -30.4652 -30.4651 -30.4643 -30.4607 -30.4602
   -30.4601 -30.4582 -30.4577 -30.4568 -30.4535 -30.4533 -30.4512 -30.4452
   -30.4432 -30.4430 -30.4429 -30.4366 -30.4340 -30.4301 -30.4091 -30.4044
    12.5678  13.7131  14.1636  14.1835  14.1982  14.2054  14.2076  14.2527
    14.3181  14.3304  14.4345  14.4638  14.4766  14.4881  14.5902  14.6649
    14.7263  14.8013  14.8244  14.8546  14.8859  14.8906  14.9006  14.9333
    15.0245  15.0358  15.0587  15.0699  15.0891  15.1145  15.1876  15.1960
    15.2047  15.2223  15.2523  15.3030  15.3435  15.3645  15.3940  15.4949
    15.5072  15.5183  15.5605  15.6295  15.6669  15.6823  15.6911  15.7740
    15.7855  15.7961  15.8130  15.8277  15.8754  15.9397  15.9473  15.9915
    15.9967  16.0083  16.0955  16.1443  16.1872  16.1922  16.2448  16.2508
    16.2683  16.2727  16.2814  16.3113  16.3407  16.3620  16.3665  16.4008
    16.4282  16.4427  16.5030  16.5335  16.5569  16.5759  16.5790  16.5842
    16.6067  16.6229  16.6302  16.6399  16.6546  16.7572  16.8396  16.8684
    16.8941  16.9014  16.9239  17.0142  17.0362  17.1345  17.1444  17.1594
    17.2299  17.2471  17.2547  17.3277  17.3336  17.4088  17.4156  17.5207
    17.5343  17.5569  17.5633  17.6146  17.6604  17.7437  17.7948  17.8004
    17.8169  17.8910  17.9054  17.9206  17.9512  18.0004  18.0331  18.0481
    18.0685  18.1143  18.1170  18.1586  18.1653  18.1768  18.1779  18.1873
    18.1977  18.2267  18.3015  18.3429  18.3616  18.3937  18.4250  18.4884
    18.4977  18.5261  18.5320  18.5339  18.5390  18.5594  18.5652  18.6514
    18.6593  18.6820  18.7753  18.8585  18.8868  18.9101  18.9873  19.0026
    19.0742  19.1137  19.1138  19.1188  19.1989  19.2163  19.2173  19.2228
    19.2498  19.2534  19.2895  19.3855  19.3894  19.3956  19.3991  19.6679
    19.8704  20.0289  20.3969  20.4884  20.5296  20.9044  21.0325  21.4174
    21.6149  21.8887  21.9912  22.1405  22.5288  22.6640  22.9837  23.2072
    23.5847  23.7917  25.3011  25.4945  25.9457  26.1825  26.3238  26.4546
    26.4936  26.9683  27.1729  27.1883  27.2124  27.6894  27.7054  28.3288
    28.4547  28.7307  28.8598  29.0529  29.1739  29.2682  29.4921  29.6748
    29.8528  29.9515  29.9677  30.1735  30.2292  30.4515  30.5379  30.5654
    30.7915  30.8894

          k = 0.0556 0.1667 0.3886 ( 33034 PWs)   bands (ev):

   -64.8826 -64.8749 -64.8620 -64.8570 -64.8566 -64.8523 -64.8516 -64.8480
   -64.8470 -64.8463 -64.8447 -64.8439 -64.8434 -64.8424 -64.8395 -64.8389
   -64.8385 -64.8385 -64.8370 -64.8340 -64.8330 -64.8319 -64.8312 -64.8305
   -64.8290 -64.8288 -64.8284 -64.8275 -64.8268 -64.8260 -64.8257 -64.8250
   -30.7529 -30.7504 -30.7407 -30.7329 -30.7312 -30.7309 -30.7241 -30.7214
   -30.7205 -30.7076 -30.7074 -30.7057 -30.6976 -30.6887 -30.6869 -30.6821
   -30.6820 -30.6816 -30.6804 -30.6767 -30.6675 -30.6634 -30.6605 -30.6529
   -30.6446 -30.6409 -30.6357 -30.6316 -30.6284 -30.6205 -30.6119 -30.6072
   -30.6055 -30.6046 -30.6006 -30.5956 -30.5882 -30.5856 -30.5836 -30.5731
   -30.5700 -30.5597 -30.5379 -30.5372 -30.5346 -30.5345 -30.5342 -30.5322
   -30.5286 -30.5268 -30.5251 -30.5172 -30.5143 -30.5138 -30.5130 -30.5121
   -30.5092 -30.5084 -30.5059 -30.5031 -30.4955 -30.4948 -30.4912 -30.4912
   -30.4906 -30.4905 -30.4902 -30.4886 -30.4882 -30.4880 -30.4879 -30.4771
   -30.4753 -30.4749 -30.4679 -30.4674 -30.4662 -30.4659 -30.4649 -30.4637
   -30.4627 -30.4616 -30.4558 -30.4554 -30.4540 -30.4517 -30.4493 -30.4466
   -30.4462 -30.4437 -30.4378 -30.4327 -30.4325 -30.4259 -30.4152 -30.4094
    12.7775  13.3652  14.2765  14.2917  14.3085  14.3232  14.3372  14.3587
    14.4475  14.4702  14.4995  14.5143  14.5805  14.5882  14.5957  14.6201
    14.6447  14.6766  14.6844  14.6847  14.7448  14.7605  14.8100  14.8209
    14.8416  14.8703  14.9559  14.9747  14.9928  15.0735  15.1851  15.2047
    15.2098  15.2277  15.2646  15.3198  15.3270  15.4512  15.4606  15.4831
    15.5120  15.5269  15.5889  15.6033  15.6215  15.6284  15.6301  15.6378
    15.6745  15.7168  15.7746  15.8050  15.8157  15.8734  15.9461  15.9737
    16.0044  16.0528  16.1604  16.1661  16.1976  16.2238  16.2362  16.2393
    16.2411  16.2473  16.2950  16.3277  16.3459  16.3507  16.3568  16.3840
    16.4273  16.4677  16.4787  16.6113  16.6150  16.6705  16.6773  16.6864
    16.6912  16.6934  16.7338  16.7465  16.7662  16.8298  16.8369  16.8426
    16.9220  16.9343  16.9556  17.0249  17.0556  17.0807  17.1197  17.1405
    17.2995  17.3055  17.3276  17.3471  17.3551  17.3789  17.4752  17.5665
    17.5697  17.5886  17.6512  17.6996  17.7491  17.7651  17.7750  17.7761
    17.7889  17.8026  17.8491  17.8805  17.9203  17.9434  17.9504  17.9567
    18.0099  18.0167  18.0642  18.0988  18.1201  18.1714  18.1992  18.2109
    18.2422  18.2441  18.2484  18.3824  18.4011  18.4043  18.4319  18.4379
    18.5493  18.5876  18.6293  18.6630  18.6973  18.7211  18.7237  18.7290
    18.7340  18.7392  18.7636  18.8252  18.8292  18.9283  18.9327  18.9570
    18.9810  19.0249  19.0271  19.0725  19.0730  19.0733  19.0773  19.1653
    19.2394  19.3139  19.3857  19.3902  19.3910  19.3935  19.6313  19.6501
    19.7611  20.0206  20.0515  20.3006  20.5595  20.6258  20.8310  21.1733
    21.6546  21.9300  22.0099  22.4465  22.8385  23.3871  23.5600  23.9266
    24.1545  24.4389  24.4925  24.8384  25.0420  25.4770  25.5686  26.0932
    26.5240  26.8482  27.4580  27.5407  27.5556  27.7564  28.0061  28.0580
    28.2629  28.2847  28.5032  28.8025  28.9455  29.1473  29.4958  29.5796
    29.7183  29.8820  29.9014  30.0468  30.1352  30.3253  30.3389  30.3947
    30.4646  30.7309

          k = 0.0556 0.1667-0.4996 ( 33036 PWs)   bands (ev):

   -64.8794 -64.8787 -64.8601 -64.8593 -64.8550 -64.8543 -64.8503 -64.8496
   -64.8460 -64.8460 -64.8452 -64.8452 -64.8433 -64.8425 -64.8393 -64.8386
   -64.8381 -64.8373 -64.8351 -64.8343 -64.8317 -64.8311 -64.8309 -64.8304
   -64.8304 -64.8296 -64.8292 -64.8285 -64.8268 -64.8260 -64.8257 -64.8250
   -30.7402 -30.7398 -30.7368 -30.7365 -30.7252 -30.7248 -30.7205 -30.7200
   -30.7198 -30.7192 -30.7162 -30.7158 -30.7039 -30.7032 -30.6858 -30.6857
   -30.6831 -30.6827 -30.6826 -30.6825 -30.6629 -30.6628 -30.6529 -30.6525
   -30.6409 -30.6408 -30.6405 -30.6404 -30.6208 -30.6205 -30.6116 -30.6111
   -30.6007 -30.6002 -30.5953 -30.5945 -30.5902 -30.5900 -30.5821 -30.5817
   -30.5719 -30.5712 -30.5379 -30.5372 -30.5343 -30.5339 -30.5244 -30.5236
   -30.5192 -30.5185 -30.5167 -30.5159 -30.5141 -30.5139 -30.5069 -30.5066
   -30.5043 -30.5038 -30.5022 -30.5020 -30.5009 -30.5005 -30.5002 -30.4999
   -30.4980 -30.4972 -30.4880 -30.4877 -30.4845 -30.4838 -30.4776 -30.4773
   -30.4772 -30.4764 -30.4723 -30.4718 -30.4671 -30.4667 -30.4648 -30.4641
   -30.4632 -30.4624 -30.4596 -30.4593 -30.4552 -30.4545 -30.4480 -30.4472
   -30.4469 -30.4466 -30.4343 -30.4340 -30.4235 -30.4227 -30.4168 -30.4164
    13.0466  13.0476  14.3865  14.3873  14.4247  14.4248  14.4721  14.4728
    14.4862  14.4870  14.4972  14.4981  14.5032  14.5032  14.6123  14.6124
    14.6180  14.6189  14.6423  14.6424  14.6994  14.7000  14.7523  14.7531
    14.7900  14.7906  14.8677  14.8682  15.0440  15.0447  15.1268  15.1269
    15.3212  15.3213  15.3264  15.3270  15.3602  15.3611  15.4636  15.4644
    15.5392  15.5393  15.5667  15.5675  15.6170  15.6173  15.6411  15.6414
    15.6909  15.6910  15.7252  15.7258  15.7286  15.7291  16.0807  16.0813
    16.1021  16.1027  16.1044  16.1050  16.1232  16.1238  16.1869  16.1870
    16.2854  16.2860  16.3001  16.3005  16.3985  16.3990  16.4397  16.4404
    16.5007  16.5009  16.5443  16.5444  16.5578  16.5580  16.6733  16.6735
    16.7177  16.7179  16.7837  16.7840  16.8003  16.8011  16.8041  16.8049
    16.8653  16.8656  16.8870  16.8873  17.3349  17.3354  17.3448  17.3453
    17.3972  17.3974  17.4091  17.4093  17.4350  17.4353  17.4836  17.4839
    17.5264  17.5270  17.6708  17.6715  17.6795  17.6801  17.7513  17.7516
    17.7635  17.7641  17.8001  17.8004  17.8074  17.8080  17.8748  17.8755
    17.9863  17.9870  18.0255  18.0261  18.0965  18.0971  18.1659  18.1667
    18.2915  18.2922  18.3415  18.3422  18.4141  18.4145  18.5820  18.5827
    18.6227  18.6228  18.6397  18.6403  18.7754  18.7757  18.7989  18.7990
    18.8599  18.8605  18.8862  18.8866  18.8906  18.8908  18.8967  18.8969
    18.9051  18.9056  18.9078  18.9082  18.9966  18.9968  19.0478  19.0480
    19.2625  19.2626  19.3868  19.3875  19.3914  19.3922  19.6342  19.6344
    20.0983  20.0984  20.1727  20.1734  20.4411  20.4417  20.7346  20.7354
    21.8229  21.8237  22.2840  22.2847  23.6089  23.6092  24.1826  24.1829
    24.1871  24.1877  24.7161  24.7163  24.7944  24.7951  25.2602  25.2605
    26.9402  26.9403  27.3775  27.3776  27.8326  27.8334  27.9911  27.9918
    28.3770  28.3778  28.4055  28.4056  28.9636  28.9637  29.3507  29.3509
    29.8867  29.8875  30.0513  30.0519  30.0604  30.0608  30.1702  30.1711
    30.8326  30.8330

          k = 0.0556 0.2778 0.0555 ( 33006 PWs)   bands (ev):

   -64.8862 -64.8708 -64.8586 -64.8585 -64.8533 -64.8532 -64.8501 -64.8501
   -64.8462 -64.8461 -64.8440 -64.8438 -64.8426 -64.8413 -64.8413 -64.8411
   -64.8410 -64.8402 -64.8389 -64.8354 -64.8353 -64.8338 -64.8337 -64.8285
   -64.8270 -64.8270 -64.8268 -64.8267 -64.8257 -64.8255 -64.8254 -64.8252
   -30.7634 -30.7603 -30.7602 -30.7557 -30.7432 -30.7429 -30.7377 -30.7035
   -30.6978 -30.6977 -30.6926 -30.6924 -30.6896 -30.6787 -30.6783 -30.6766
   -30.6762 -30.6666 -30.6665 -30.6573 -30.6570 -30.6560 -30.6555 -30.6548
   -30.6428 -30.6424 -30.6410 -30.6403 -30.6300 -30.6294 -30.6113 -30.6110
   -30.6034 -30.6034 -30.6034 -30.6031 -30.5873 -30.5869 -30.5846 -30.5842
   -30.5520 -30.5518 -30.5434 -30.5419 -30.5415 -30.5403 -30.5395 -30.5356
   -30.5340 -30.5310 -30.5309 -30.5283 -30.5282 -30.5276 -30.5274 -30.5263
   -30.5263 -30.5181 -30.5142 -30.5141 -30.5083 -30.5011 -30.5002 -30.4849
   -30.4848 -30.4780 -30.4777 -30.4764 -30.4761 -30.4730 -30.4723 -30.4722
   -30.4692 -30.4689 -30.4684 -30.4683 -30.4625 -30.4605 -30.4577 -30.4561
   -30.4560 -30.4559 -30.4558 -30.4557 -30.4556 -30.4528 -30.4526 -30.4525
   -30.4494 -30.4423 -30.4420 -30.4411 -30.4405 -30.4209 -30.4071 -30.4062
    12.4975  13.6593  14.1367  14.1728  14.1728  14.2017  14.2420  14.2421
    14.2681  14.3938  14.4372  14.4374  14.4563  14.4588  14.5406  14.6535
    14.6560  14.8158  14.8160  14.8590  14.8728  14.9504  14.9504  15.0020
    15.1093  15.1100  15.1470  15.1492  15.1696  15.1721  15.1780  15.1795
    15.2783  15.2805  15.2934  15.2940  15.4051  15.4062  15.4512  15.4538
    15.5699  15.5709  15.7103  15.7112  15.7448  15.7459  15.7622  15.7633
    15.7656  15.7819  15.7837  15.8104  15.8108  15.9220  15.9233  15.9940
    15.9943  16.0465  16.0503  16.0510  16.1214  16.1226  16.1435  16.1458
    16.1500  16.1515  16.2184  16.2314  16.2319  16.3190  16.3535  16.3539
    16.3574  16.4131  16.4132  16.4195  16.5138  16.5470  16.5510  16.5652
    16.5747  16.5817  16.7283  16.7294  16.7463  16.7960  16.8827  16.8841
    16.9387  16.9424  16.9571  16.9589  17.0279  17.1077  17.1134  17.1134
    17.1307  17.1367  17.4357  17.4527  17.4540  17.5500  17.5514  17.6172
    17.6183  17.6331  17.6337  17.6913  17.6919  17.7225  17.7241  17.7859
    17.7875  17.8954  17.9285  17.9291  17.9299  17.9310  17.9530  17.9536
    17.9596  17.9597  18.0586  18.1570  18.2091  18.2094  18.2246  18.2247
    18.2356  18.3186  18.3241  18.3249  18.3656  18.3657  18.3662  18.3671
    18.4135  18.4144  18.4406  18.4563  18.4574  18.5286  18.7055  18.7072
    18.7664  18.7703  18.7762  18.8206  18.9189  18.9191  18.9687  18.9688
    18.9747  19.0505  19.0579  19.0598  19.0713  19.1971  19.2501  19.2511
    19.2530  19.2543  19.2836  19.4523  19.4534  19.4542  19.4544  20.0609
    20.0638  20.2886  20.5111  20.5153  20.8243  20.8245  20.8643  21.2018
    21.3907  21.3910  21.6079  21.9278  22.6651  22.6717  23.2113  23.2187
    23.3450  23.3597  25.8836  25.8903  26.0277  26.0419  26.4429  26.4501
    26.4949  26.7990  26.7995  27.2035  27.8498  27.8578  28.5239  28.5316
    28.8517  29.2995  29.3051  29.3968  29.3975  29.6377  29.6490  29.6880
    29.7089  29.7865  29.7908  29.9559  30.0400  30.0576  30.2057  30.2172
    30.2212  30.2283

          k = 0.0556 0.2778 0.1665 ( 33012 PWs)   bands (ev):

   -64.8853 -64.8701 -64.8638 -64.8580 -64.8540 -64.8528 -64.8499 -64.8481
   -64.8467 -64.8460 -64.8440 -64.8435 -64.8434 -64.8423 -64.8420 -64.8398
   -64.8393 -64.8385 -64.8369 -64.8366 -64.8355 -64.8340 -64.8322 -64.8285
   -64.8274 -64.8273 -64.8271 -64.8265 -64.8265 -64.8262 -64.8257 -64.8253
   -30.7622 -30.7608 -30.7535 -30.7472 -30.7401 -30.7388 -30.7352 -30.7064
   -30.7028 -30.6926 -30.6899 -30.6895 -30.6895 -30.6895 -30.6800 -30.6788
   -30.6786 -30.6732 -30.6724 -30.6703 -30.6688 -30.6671 -30.6645 -30.6579
   -30.6504 -30.6368 -30.6344 -30.6277 -30.6238 -30.6226 -30.6190 -30.6171
   -30.6129 -30.6102 -30.6008 -30.5915 -30.5885 -30.5752 -30.5712 -30.5596
   -30.5573 -30.5557 -30.5495 -30.5441 -30.5422 -30.5393 -30.5375 -30.5372
   -30.5356 -30.5354 -30.5333 -30.5285 -30.5254 -30.5239 -30.5230 -30.5204
   -30.5191 -30.5168 -30.5065 -30.5059 -30.5040 -30.5004 -30.4983 -30.4972
   -30.4821 -30.4818 -30.4812 -30.4798 -30.4773 -30.4769 -30.4766 -30.4756
   -30.4710 -30.4682 -30.4673 -30.4651 -30.4649 -30.4646 -30.4610 -30.4603
   -30.4598 -30.4579 -30.4578 -30.4571 -30.4538 -30.4531 -30.4515 -30.4454
   -30.4434 -30.4430 -30.4427 -30.4366 -30.4340 -30.4301 -30.4092 -30.4044
    12.5680  13.7151  14.1615  14.1837  14.1982  14.2056  14.2078  14.2528
    14.3181  14.3305  14.4347  14.4638  14.4768  14.4880  14.5920  14.6651
    14.7245  14.8015  14.8259  14.8566  14.8857  14.8922  14.9009  14.9336
    15.0232  15.0364  15.0593  15.0699  15.0869  15.1124  15.1878  15.1963
    15.2048  15.2216  15.2525  15.3024  15.3433  15.3638  15.3942  15.4947
    15.5070  15.5184  15.5602  15.6260  15.6667  15.6834  15.6899  15.7784
    15.7852  15.7961  15.8123  15.8272  15.8763  15.9389  15.9489  15.9925
    15.9957  16.0065  16.0931  16.1453  16.1903  16.1908  16.2427  16.2535
    16.2679  16.2716  16.2857  16.3113  16.3446  16.3649  16.3678  16.3996
    16.4260  16.4471  16.5022  16.5290  16.5560  16.5743  16.5760  16.5801
    16.6066  16.6233  16.6273  16.6389  16.6556  16.7576  16.8379  16.8665
    16.8905  16.9001  16.9252  17.0156  17.0322  17.1295  17.1412  17.1559
    17.2270  17.2443  17.2583  17.3321  17.3348  17.4117  17.4171  17.5227
    17.5368  17.5577  17.5653  17.6157  17.6609  17.7446  17.7970  17.8006
    17.8180  17.8951  17.9057  17.9211  17.9528  18.0000  18.0356  18.0441
    18.0687  18.1134  18.1173  18.1590  18.1662  18.1772  18.1779  18.1882
    18.1969  18.2271  18.2997  18.3391  18.3614  18.3940  18.4242  18.4888
    18.4981  18.5264  18.5312  18.5349  18.5410  18.5605  18.5646  18.6513
    18.6613  18.6817  18.7754  18.8574  18.8872  18.9102  18.9872  19.0044
    19.0749  19.1149  19.1151  19.1184  19.2015  19.2166  19.2172  19.2222
    19.2531  19.2564  19.2911  19.3813  19.3860  19.3928  19.3963  19.6679
    19.8687  20.0316  20.3935  20.4920  20.5283  20.9002  21.0315  21.4158
    21.6141  21.9010  21.9850  22.1422  22.5223  22.6719  22.9717  23.2154
    23.5859  23.7924  25.3079  25.4863  25.9582  26.1878  26.3245  26.4648
    26.4953  26.9727  27.1622  27.1843  27.2133  27.6904  27.6921  28.3381
    28.4486  28.7189  28.8692  29.0520  29.1671  29.2563  29.4974  29.6745
    29.8524  29.9513  29.9747  30.1522  30.2205  30.4509  30.5448  30.5651
    30.7879  30.8723

          k = 0.0556 0.2778 0.2775 ( 33028 PWs)   bands (ev):

   -64.8835 -64.8688 -64.8687 -64.8577 -64.8571 -64.8520 -64.8494 -64.8493
   -64.8457 -64.8456 -64.8453 -64.8431 -64.8430 -64.8429 -64.8386 -64.8385
   -64.8384 -64.8383 -64.8359 -64.8358 -64.8345 -64.8345 -64.8307 -64.8285
   -64.8284 -64.8282 -64.8281 -64.8275 -64.8273 -64.8263 -64.8262 -64.8253
   -30.7571 -30.7570 -30.7431 -30.7351 -30.7341 -30.7307 -30.7304 -30.7067
   -30.7065 -30.7051 -30.7047 -30.6929 -30.6925 -30.6849 -30.6846 -30.6823
   -30.6822 -30.6793 -30.6790 -30.6770 -30.6768 -30.6675 -30.6659 -30.6656
   -30.6613 -30.6611 -30.6328 -30.6272 -30.6206 -30.6203 -30.6130 -30.6130
   -30.6056 -30.6036 -30.5961 -30.5955 -30.5696 -30.5680 -30.5680 -30.5574
   -30.5574 -30.5558 -30.5554 -30.5457 -30.5450 -30.5328 -30.5326 -30.5314
   -30.5310 -30.5309 -30.5297 -30.5295 -30.5253 -30.5250 -30.5169 -30.5168
   -30.5098 -30.5091 -30.5079 -30.5078 -30.4950 -30.4948 -30.4946 -30.4945
   -30.4896 -30.4896 -30.4873 -30.4872 -30.4786 -30.4786 -30.4767 -30.4760
   -30.4758 -30.4748 -30.4746 -30.4735 -30.4648 -30.4647 -30.4634 -30.4624
   -30.4611 -30.4603 -30.4552 -30.4541 -30.4538 -30.4533 -30.4483 -30.4481
   -30.4441 -30.4441 -30.4438 -30.4314 -30.4313 -30.4281 -30.4134 -30.4044
    12.7073  13.8223  13.8240  14.2323  14.2720  14.2753  14.2753  14.3004
    14.4280  14.4281  14.5106  14.5161  14.5163  14.5864  14.6452  14.6847
    14.6906  14.6920  14.7347  14.7348  14.8477  14.8485  14.8512  14.8514
    14.9340  14.9358  14.9573  14.9589  15.1244  15.1248  15.1253  15.1311
    15.1316  15.2294  15.2296  15.2622  15.2623  15.3052  15.3053  15.3847
    15.3848  15.4641  15.5811  15.5813  15.5871  15.5877  15.6118  15.7972
    15.8011  15.8276  15.8285  15.8396  15.8397  15.8459  15.8534  16.0984
    16.1002  16.1703  16.1716  16.2587  16.2595  16.2618  16.2645  16.3041
    16.3065  16.3101  16.3345  16.3349  16.3551  16.4493  16.4752  16.4809
    16.4813  16.5711  16.5725  16.5839  16.6147  16.6388  16.6552  16.6765
    16.6775  16.6792  16.7241  16.7255  16.7387  16.7401  16.7521  16.7876
    16.8876  16.8886  16.9101  16.9126  17.0744  17.0787  17.1283  17.1330
    17.2105  17.2141  17.2649  17.3044  17.3570  17.3594  17.3880  17.3903
    17.4056  17.4080  17.4740  17.4783  17.6211  17.6216  17.7527  17.8406
    17.8410  17.8555  17.8556  17.8637  17.8902  17.9736  17.9742  18.0492
    18.0889  18.1436  18.1442  18.1993  18.2000  18.2459  18.2461  18.2859
    18.2875  18.3967  18.3968  18.3976  18.4001  18.4200  18.4201  18.4202
    18.4238  18.4727  18.4727  18.6277  18.6709  18.6970  18.6977  18.7043
    18.7044  18.7069  18.7075  18.8095  18.8121  18.8508  18.9718  18.9722
    19.0474  19.1234  19.1240  19.1412  19.1546  19.1547  19.2521  19.2555
    19.2565  19.2593  19.2803  19.2824  19.3203  19.3358  19.6399  19.6640
    19.6664  19.9653  19.9678  20.3483  20.4439  20.4472  21.6315  21.6334
    22.0032  22.0038  22.3582  22.3688  22.6551  22.6623  23.1827  23.1900
    23.9907  24.4201  24.7092  24.7164  25.9667  25.9740  26.3231  26.3238
    26.4589  26.4632  26.9211  26.9286  27.5462  27.5511  27.7244  27.8479
    27.8577  28.2519  28.3635  28.3735  28.4546  29.5567  29.7421  29.7486
    29.8918  29.8918  30.3060  30.3271  30.5826  30.5885  30.7422  30.7428
    30.9415  30.9624

          k = 0.0556 0.2778 0.3886 ( 33050 PWs)   bands (ev):

   -64.8809 -64.8733 -64.8668 -64.8611 -64.8557 -64.8517 -64.8509 -64.8487
   -64.8476 -64.8465 -64.8452 -64.8437 -64.8422 -64.8398 -64.8385 -64.8377
   -64.8373 -64.8362 -64.8351 -64.8351 -64.8335 -64.8326 -64.8310 -64.8296
   -64.8295 -64.8293 -64.8293 -64.8284 -64.8275 -64.8270 -64.8262 -64.8254
   -30.7493 -30.7483 -30.7296 -30.7252 -30.7240 -30.7234 -30.7213 -30.7200
   -30.7182 -30.7047 -30.7037 -30.7036 -30.7002 -30.6964 -30.6920 -30.6915
   -30.6910 -30.6842 -30.6840 -30.6831 -30.6773 -30.6741 -30.6667 -30.6657
   -30.6643 -30.6507 -30.6418 -30.6398 -30.6309 -30.6186 -30.6067 -30.6023
   -30.5986 -30.5880 -30.5867 -30.5809 -30.5805 -30.5798 -30.5709 -30.5677
   -30.5549 -30.5484 -30.5462 -30.5416 -30.5384 -30.5382 -30.5323 -30.5306
   -30.5282 -30.5259 -30.5252 -30.5202 -30.5191 -30.5181 -30.5144 -30.5080
   -30.5076 -30.5067 -30.5059 -30.5058 -30.5031 -30.4977 -30.4949 -30.4939
   -30.4927 -30.4906 -30.4863 -30.4861 -30.4842 -30.4819 -30.4817 -30.4813
   -30.4750 -30.4740 -30.4731 -30.4702 -30.4684 -30.4682 -30.4679 -30.4677
   -30.4617 -30.4606 -30.4589 -30.4569 -30.4553 -30.4551 -30.4548 -30.4506
   -30.4456 -30.4453 -30.4372 -30.4270 -30.4250 -30.4212 -30.4196 -30.4074
    12.9115  13.4834  13.9811  14.3041  14.3699  14.3723  14.3849  14.4042
    14.4065  14.5567  14.5577  14.5594  14.5692  14.5934  14.5972  14.6380
    14.6617  14.6672  14.6712  14.7153  14.7265  14.7514  14.8019  14.8167
    14.8343  14.8867  14.9144  14.9269  14.9968  15.0221  15.0484  15.0598
    15.0969  15.1957  15.2001  15.2351  15.2794  15.3063  15.3094  15.3597
    15.3736  15.4225  15.4512  15.4883  15.5264  15.6351  15.6788  15.6972
    15.7155  15.7647  15.8278  15.8582  15.8839  15.9077  15.9583  16.0678
    16.0815  16.0826  16.1669  16.2208  16.2288  16.2872  16.3338  16.3371
    16.3732  16.3735  16.3797  16.4141  16.4467  16.4697  16.4907  16.5768
    16.5837  16.6221  16.6442  16.6468  16.6587  16.6835  16.6923  16.7245
    16.7266  16.7321  16.7435  16.8287  16.8299  16.8484  16.8545  16.8686
    16.8802  16.9573  16.9595  16.9599  17.0375  17.0575  17.1205  17.1357
    17.1488  17.1876  17.2056  17.2202  17.2265  17.2647  17.2899  17.3865
    17.4977  17.5013  17.5235  17.5321  17.5421  17.5542  17.6138  17.6339
    17.6684  17.6997  17.7586  17.7749  17.7854  17.8694  18.0320  18.0755
    18.0858  18.0975  18.1120  18.1187  18.2435  18.2483  18.2628  18.2773
    18.2788  18.3235  18.4291  18.4504  18.4508  18.4613  18.5180  18.5310
    18.5333  18.6072  18.6350  18.6688  18.6740  18.7354  18.7604  18.8310
    18.8441  18.8442  18.8558  18.8563  18.8685  18.8687  18.8975  18.9191
    19.0121  19.0644  19.0696  19.0709  19.0757  19.0781  19.0810  19.0895
    19.1407  19.2101  19.2613  19.2629  19.2738  19.2959  19.5693  19.6498
    19.8749  20.0129  20.1475  20.2412  20.2939  20.3867  21.1327  21.6423
    22.3130  22.3147  22.5174  22.6216  22.9206  23.1015  23.4019  23.8783
    23.9104  24.1140  24.5173  25.0906  25.1044  25.4837  25.7769  26.3384
    26.5281  26.6302  26.7677  26.8994  27.1169  27.1620  27.4176  27.5816
    27.8775  27.9159  28.1070  28.3241  28.8839  29.2077  29.7618  29.8713
    29.9477  29.9867  30.0702  30.1541  30.2409  30.3446  30.8768  30.8865
    31.0484  31.1216

          k = 0.0556 0.2778-0.4996 ( 33054 PWs)   bands (ev):

   -64.8778 -64.8770 -64.8646 -64.8638 -64.8543 -64.8535 -64.8497 -64.8490
   -64.8481 -64.8473 -64.8449 -64.8441 -64.8415 -64.8407 -64.8373 -64.8365
   -64.8365 -64.8357 -64.8348 -64.8340 -64.8325 -64.8317 -64.8317 -64.8312
   -64.8310 -64.8304 -64.8284 -64.8283 -64.8277 -64.8275 -64.8261 -64.8254
   -30.7381 -30.7378 -30.7363 -30.7360 -30.7156 -30.7149 -30.7142 -30.7139
   -30.7135 -30.7134 -30.7029 -30.7027 -30.7025 -30.7020 -30.6992 -30.6992
   -30.6985 -30.6984 -30.6891 -30.6886 -30.6704 -30.6698 -30.6693 -30.6687
   -30.6536 -30.6532 -30.6398 -30.6398 -30.6350 -30.6346 -30.5934 -30.5932
   -30.5914 -30.5912 -30.5848 -30.5845 -30.5791 -30.5783 -30.5674 -30.5672
   -30.5670 -30.5663 -30.5319 -30.5312 -30.5305 -30.5297 -30.5292 -30.5284
   -30.5263 -30.5261 -30.5251 -30.5249 -30.5197 -30.5194 -30.5175 -30.5168
   -30.5067 -30.5062 -30.5041 -30.5040 -30.4977 -30.4973 -30.4972 -30.4969
   -30.4891 -30.4883 -30.4863 -30.4858 -30.4826 -30.4824 -30.4811 -30.4808
   -30.4756 -30.4748 -30.4719 -30.4713 -30.4711 -30.4706 -30.4701 -30.4697
   -30.4647 -30.4639 -30.4618 -30.4614 -30.4572 -30.4565 -30.4493 -30.4490
   -30.4482 -30.4475 -30.4281 -30.4273 -30.4248 -30.4246 -30.4132 -30.4130
    13.1734  13.1744  14.1778  14.1786  14.4130  14.4131  14.4818  14.4826
    14.5052  14.5056  14.5057  14.5057  14.5688  14.5696  14.6110  14.6115
    14.6939  14.6948  14.7224  14.7224  14.7375  14.7376  14.7552  14.7555
    14.7985  14.7993  14.8999  14.9003  14.9436  14.9437  15.0074  15.0080
    15.1816  15.1825  15.1970  15.1975  15.2756  15.2757  15.3404  15.3406
    15.3485  15.3493  15.5293  15.5300  15.5640  15.5640  15.5781  15.5788
    15.8459  15.8460  15.8496  15.8501  15.9563  15.9566  15.9685  15.9691
    15.9906  15.9913  16.1020  16.1025  16.3132  16.3138  16.4001  16.4006
    16.4113  16.4114  16.4366  16.4371  16.4817  16.4820  16.4995  16.4996
    16.5463  16.5465  16.6934  16.6934  16.7405  16.7411  16.7520  16.7522
    16.7727  16.7727  16.8046  16.8053  16.8097  16.8104  16.8216  16.8219
    16.9789  16.9792  17.0034  17.0037  17.1574  17.1574  17.1594  17.1598
    17.1688  17.1693  17.2376  17.2377  17.2517  17.2519  17.2661  17.2663
    17.3203  17.3208  17.5783  17.5789  17.5834  17.5836  17.6356  17.6361
    17.6645  17.6650  17.6879  17.6885  17.6961  17.6963  17.9817  17.9824
    17.9868  17.9873  18.1765  18.1772  18.2019  18.2025  18.2150  18.2157
    18.3761  18.3768  18.5036  18.5043  18.5074  18.5081  18.6292  18.6299
    18.6521  18.6527  18.6966  18.6966  18.7452  18.7452  18.7454  18.7455
    18.8658  18.8663  18.8934  18.8934  18.9186  18.9189  18.9657  18.9660
    18.9678  18.9681  18.9831  18.9833  18.9886  18.9887  19.0047  19.0048
    19.2010  19.2011  19.2671  19.2679  19.2732  19.2737  19.6019  19.6020
    19.7600  19.7607  20.3244  20.3251  20.6371  20.6374  20.9160  20.9165
    22.5167  22.5173  22.8907  22.8913  23.0678  23.0682  23.5101  23.5107
    24.2188  24.2191  24.6946  24.6948  25.1222  25.1229  25.8499  25.8502
    26.5976  26.5976  26.9550  26.9551  27.0348  27.0355  27.3424  27.3431
    27.5060  27.5068  28.6724  28.6725  29.0056  29.0057  29.5830  29.5831
    29.8905  29.8913  30.0312  30.0320  30.4547  30.4555  30.6410  30.6411
    31.2937  31.2943

          k = 0.0556 0.3889 0.0555 ( 33022 PWs)   bands (ev):

   -64.8834 -64.8756 -64.8571 -64.8570 -64.8528 -64.8527 -64.8520 -64.8519
   -64.8484 -64.8483 -64.8437 -64.8430 -64.8413 -64.8413 -64.8411 -64.8410
   -64.8398 -64.8391 -64.8390 -64.8327 -64.8327 -64.8316 -64.8315 -64.8312
   -64.8285 -64.8285 -64.8280 -64.8280 -64.8257 -64.8255 -64.8254 -64.8253
   -30.7525 -30.7483 -30.7483 -30.7424 -30.7341 -30.7339 -30.7233 -30.7215
   -30.7159 -30.7159 -30.7084 -30.7082 -30.7081 -30.6818 -30.6786 -30.6783
   -30.6736 -30.6733 -30.6719 -30.6719 -30.6624 -30.6623 -30.6451 -30.6445
   -30.6374 -30.6370 -30.6272 -30.6266 -30.6221 -30.6219 -30.6216 -30.6215
   -30.6167 -30.6163 -30.6004 -30.6000 -30.5981 -30.5976 -30.5874 -30.5874
   -30.5614 -30.5612 -30.5416 -30.5411 -30.5407 -30.5400 -30.5294 -30.5279
   -30.5233 -30.5156 -30.5155 -30.5148 -30.5148 -30.5142 -30.5142 -30.5128
   -30.5128 -30.5119 -30.5107 -30.5015 -30.5011 -30.5010 -30.4927 -30.4927
   -30.4891 -30.4889 -30.4889 -30.4888 -30.4870 -30.4813 -30.4804 -30.4803
   -30.4798 -30.4798 -30.4725 -30.4635 -30.4634 -30.4599 -30.4586 -30.4561
   -30.4560 -30.4558 -30.4557 -30.4547 -30.4546 -30.4515 -30.4503 -30.4501
   -30.4499 -30.4427 -30.4426 -30.4368 -30.4305 -30.4296 -30.4132 -30.4122
    12.7103  13.3067  14.2293  14.3019  14.3020  14.3121  14.3645  14.3646
    14.4019  14.4508  14.4752  14.5627  14.5632  14.5962  14.5984  14.6394
    14.6395  14.6505  14.7102  14.7220  14.7221  14.7740  14.7955  14.7978
    14.9345  14.9356  14.9427  14.9440  15.1415  15.1428  15.2324  15.2337
    15.2870  15.2891  15.3553  15.3569  15.3750  15.3758  15.5130  15.5150
    15.5699  15.5703  15.5781  15.5781  15.6767  15.6768  15.7161  15.7168
    15.7333  15.7351  15.7745  15.7760  15.8208  15.8235  15.9429  15.9635
    15.9641  15.9961  15.9965  16.1074  16.1497  16.1502  16.1522  16.1527
    16.1829  16.1844  16.2435  16.2506  16.2860  16.3028  16.3055  16.3333
    16.3339  16.3852  16.4626  16.4629  16.6019  16.6455  16.6484  16.6707
    16.6717  16.6772  16.7025  16.7033  16.7108  16.7120  16.8637  16.9078
    16.9103  16.9487  16.9560  16.9610  17.1421  17.1450  17.1456  17.1600
    17.3838  17.3878  17.5189  17.5197  17.5268  17.5440  17.5447  17.7139
    17.7143  17.7501  17.7505  17.7586  17.7594  17.7748  17.7758  17.7862
    17.8118  17.8123  17.8977  17.8981  17.9320  17.9389  17.9394  17.9418
    17.9419  17.9549  17.9559  17.9711  17.9716  18.0553  18.1057  18.1708
    18.1710  18.2401  18.3167  18.3210  18.4126  18.4128  18.4471  18.4864
    18.5698  18.5706  18.5734  18.6301  18.6372  18.6373  18.6587  18.6589
    18.8115  18.8116  18.8264  18.9199  18.9269  18.9284  18.9562  18.9581
    18.9656  18.9659  19.0062  19.0711  19.0724  19.0735  19.0744  19.1443
    19.2629  19.2642  19.3946  19.4524  19.4530  19.4541  19.4543  19.6631
    19.6650  20.0728  20.0761  20.4796  20.7720  20.8766  21.0295  21.0298
    21.3109  21.3112  21.4980  21.8464  23.3736  23.3804  23.9209  23.9284
    23.9454  23.9597  24.9969  25.0037  25.3087  25.3229  25.5455  25.5529
    26.8465  27.2631  27.2637  27.7453  28.0510  28.2008  28.2096  28.5814
    28.5821  28.8590  28.8674  29.1184  29.1288  29.1350  29.5101  29.5201
    29.6479  29.6672  29.7293  29.7395  30.1821  30.1821  30.1900  30.2001
    30.4068  30.4229

          k = 0.0556 0.3889 0.1665 ( 33032 PWs)   bands (ev):

   -64.8826 -64.8748 -64.8620 -64.8570 -64.8566 -64.8524 -64.8516 -64.8481
   -64.8470 -64.8462 -64.8448 -64.8441 -64.8432 -64.8425 -64.8394 -64.8388
   -64.8387 -64.8385 -64.8371 -64.8339 -64.8330 -64.8319 -64.8311 -64.8304
   -64.8289 -64.8289 -64.8285 -64.8275 -64.8265 -64.8263 -64.8256 -64.8254
   -30.7528 -30.7503 -30.7406 -30.7328 -30.7311 -30.7305 -30.7240 -30.7217
   -30.7202 -30.7075 -30.7070 -30.7056 -30.6974 -30.6891 -30.6872 -30.6826
   -30.6821 -30.6818 -30.6805 -30.6768 -30.6676 -30.6636 -30.6603 -30.6532
   -30.6444 -30.6412 -30.6362 -30.6318 -30.6286 -30.6205 -30.6118 -30.6072
   -30.6057 -30.6051 -30.6006 -30.5951 -30.5882 -30.5849 -30.5840 -30.5730
   -30.5696 -30.5589 -30.5375 -30.5374 -30.5348 -30.5348 -30.5344 -30.5329
   -30.5282 -30.5271 -30.5250 -30.5171 -30.5150 -30.5136 -30.5130 -30.5119
   -30.5093 -30.5081 -30.5054 -30.5031 -30.4953 -30.4946 -30.4912 -30.4911
   -30.4907 -30.4904 -30.4902 -30.4883 -30.4879 -30.4878 -30.4877 -30.4770
   -30.4750 -30.4747 -30.4679 -30.4672 -30.4662 -30.4660 -30.4650 -30.4639
   -30.4630 -30.4618 -30.4560 -30.4552 -30.4545 -30.4517 -30.4496 -30.4467
   -30.4466 -30.4435 -30.4378 -30.4328 -30.4327 -30.4259 -30.4153 -30.4094
    12.7781  13.3668  14.2771  14.2918  14.3069  14.3237  14.3378  14.3588
    14.4476  14.4704  14.5008  14.5148  14.5809  14.5882  14.5959  14.6199
    14.6457  14.6781  14.6839  14.6850  14.7460  14.7609  14.8104  14.8213
    14.8420  14.8690  14.9561  14.9751  14.9924  15.0730  15.1854  15.2028
    15.2080  15.2275  15.2648  15.3201  15.3268  15.4506  15.4602  15.4822
    15.5111  15.5268  15.5882  15.6027  15.6207  15.6287  15.6303  15.6383
    15.6715  15.7168  15.7731  15.8045  15.8144  15.8723  15.9510  15.9740
    16.0064  16.0537  16.1603  16.1687  16.1980  16.2226  16.2413  16.2419
    16.2430  16.2455  16.2922  16.3316  16.3430  16.3490  16.3614  16.3838
    16.4325  16.4646  16.4781  16.6059  16.6121  16.6664  16.6720  16.6838
    16.6891  16.6931  16.7332  16.7435  16.7626  16.8267  16.8326  16.8407
    16.9221  16.9362  16.9502  17.0248  17.0544  17.0778  17.1167  17.1369
    17.2977  17.3091  17.3313  17.3492  17.3567  17.3814  17.4780  17.5707
    17.5715  17.5903  17.6529  17.7014  17.7511  17.7650  17.7753  17.7757
    17.7938  17.8017  17.8498  17.8816  17.9213  17.9447  17.9505  17.9559
    18.0114  18.0189  18.0650  18.0942  18.1210  18.1728  18.1996  18.2098
    18.2430  18.2442  18.2463  18.3833  18.4016  18.4045  18.4323  18.4384
    18.5484  18.5883  18.6301  18.6621  18.6982  18.7207  18.7245  18.7298
    18.7349  18.7392  18.7641  18.8268  18.8293  18.9281  18.9327  18.9578
    18.9827  19.0259  19.0270  19.0729  19.0731  19.0756  19.0798  19.1659
    19.2405  19.3139  19.3815  19.3870  19.3873  19.3905  19.6330  19.6491
    19.7669  20.0182  20.0542  20.2975  20.5584  20.6235  20.8273  21.1838
    21.6517  21.9246  22.0077  22.4411  22.8414  23.3961  23.5493  23.9359
    24.1568  24.4445  24.4942  24.8296  25.0534  25.4813  25.5798  26.0974
    26.5266  26.8517  27.4455  27.5366  27.5628  27.7585  27.9930  28.0655
    28.2507  28.2868  28.5012  28.7902  28.9404  29.1526  29.4899  29.5786
    29.7235  29.8779  29.9009  30.0463  30.1159  30.3215  30.3383  30.3929
    30.4609  30.7282

          k = 0.0556 0.3889 0.2775 ( 33047 PWs)   bands (ev):

   -64.8808 -64.8734 -64.8668 -64.8612 -64.8557 -64.8518 -64.8509 -64.8486
   -64.8476 -64.8465 -64.8451 -64.8438 -64.8423 -64.8400 -64.8384 -64.8376
   -64.8372 -64.8363 -64.8352 -64.8350 -64.8334 -64.8325 -64.8310 -64.8295
   -64.8294 -64.8293 -64.8293 -64.8282 -64.8278 -64.8271 -64.8260 -64.8255
   -30.7493 -30.7482 -30.7296 -30.7251 -30.7237 -30.7233 -30.7211 -30.7200
   -30.7185 -30.7044 -30.7039 -30.7038 -30.7000 -30.6963 -30.6920 -30.6918
   -30.6911 -30.6844 -30.6839 -30.6833 -30.6775 -30.6739 -30.6670 -30.6654
   -30.6644 -30.6510 -30.6419 -30.6399 -30.6311 -30.6187 -30.6064 -30.6024
   -30.5986 -30.5886 -30.5867 -30.5808 -30.5799 -30.5798 -30.5709 -30.5682
   -30.5542 -30.5483 -30.5461 -30.5411 -30.5392 -30.5382 -30.5322 -30.5306
   -30.5283 -30.5261 -30.5255 -30.5209 -30.5189 -30.5175 -30.5142 -30.5080
   -30.5075 -30.5068 -30.5059 -30.5057 -30.5030 -30.4976 -30.4949 -30.4939
   -30.4926 -30.4906 -30.4860 -30.4859 -30.4842 -30.4819 -30.4816 -30.4811
   -30.4749 -30.4743 -30.4733 -30.4700 -30.4686 -30.4683 -30.4680 -30.4675
   -30.4617 -30.4603 -30.4591 -30.4567 -30.4554 -30.4551 -30.4548 -30.4509
   -30.4459 -30.4452 -30.4374 -30.4270 -30.4250 -30.4212 -30.4197 -30.4074
    12.9119  13.4847  13.9798  14.3041  14.3701  14.3725  14.3850  14.4039
    14.4068  14.5568  14.5578  14.5594  14.5693  14.5939  14.5983  14.6379
    14.6619  14.6678  14.6714  14.7154  14.7264  14.7527  14.8020  14.8179
    14.8333  14.8864  14.9147  14.9272  14.9969  15.0222  15.0469  15.0584
    15.0969  15.1955  15.1999  15.2347  15.2794  15.3059  15.3096  15.3596
    15.3731  15.4220  15.4511  15.4883  15.5264  15.6349  15.6792  15.6969
    15.7149  15.7644  15.8247  15.8572  15.8850  15.9078  15.9623  16.0692
    16.0811  16.0828  16.1661  16.2235  16.2299  16.2899  16.3338  16.3389
    16.3702  16.3724  16.3777  16.4185  16.4494  16.4667  16.4894  16.5779
    16.5824  16.6220  16.6429  16.6453  16.6559  16.6841  16.6894  16.7244
    16.7247  16.7304  16.7425  16.8272  16.8279  16.8490  16.8527  16.8709
    16.8812  16.9527  16.9555  16.9613  17.0351  17.0534  17.1243  17.1394
    17.1474  17.1843  17.2069  17.2172  17.2281  17.2679  17.2911  17.3877
    17.4995  17.5024  17.5231  17.5339  17.5420  17.5538  17.6160  17.6350
    17.6680  17.7012  17.7590  17.7756  17.7880  17.8696  18.0312  18.0752
    18.0868  18.0950  18.1130  18.1188  18.2443  18.2484  18.2641  18.2759
    18.2780  18.3241  18.4290  18.4502  18.4510  18.4621  18.5180  18.5304
    18.5344  18.6071  18.6357  18.6694  18.6742  18.7352  18.7610  18.8307
    18.8446  18.8447  18.8557  18.8558  18.8688  18.8689  18.8981  18.9203
    19.0122  19.0654  19.0699  19.0710  19.0763  19.0802  19.0807  19.0919
    19.1419  19.2111  19.2581  19.2602  19.2715  19.2941  19.5710  19.6481
    19.8725  20.0155  20.1452  20.2458  20.2925  20.3837  21.1306  21.6511
    22.3122  22.3161  22.5164  22.6155  22.9112  23.0958  23.4101  23.8842
    23.9184  24.1062  24.5185  25.1002  25.1054  25.4894  25.7803  26.3396
    26.5310  26.6326  26.7614  26.8972  27.1241  27.1516  27.4076  27.5895
    27.8765  27.9054  28.1031  28.3252  28.8851  29.2065  29.7660  29.8712
    29.9475  29.9864  30.0642  30.1539  30.2454  30.3487  30.8624  30.8821
    31.0437  31.1178

          k = 0.0556 0.3889 0.3886 ( 33059 PWs)   bands (ev):

   -64.8783 -64.8712 -64.8711 -64.8649 -64.8544 -64.8509 -64.8508 -64.8499
   -64.8481 -64.8470 -64.8469 -64.8449 -64.8379 -64.8378 -64.8362 -64.8361
   -64.8360 -64.8359 -64.8342 -64.8340 -64.8335 -64.8334 -64.8308 -64.8308
   -64.8306 -64.8304 -64.8299 -64.8297 -64.8283 -64.8267 -64.8265 -64.8257
   -30.7422 -30.7422 -30.7194 -30.7193 -30.7187 -30.7185 -30.7164 -30.7157
   -30.7139 -30.7136 -30.7044 -30.7032 -30.7031 -30.7004 -30.7001 -30.6921
   -30.6919 -30.6853 -30.6850 -30.6843 -30.6841 -30.6832 -30.6831 -30.6709
   -30.6687 -30.6685 -30.6539 -30.6396 -30.6348 -30.6186 -30.6184 -30.5930
   -30.5846 -30.5846 -30.5733 -30.5727 -30.5657 -30.5584 -30.5583 -30.5535
   -30.5529 -30.5524 -30.5524 -30.5482 -30.5475 -30.5295 -30.5289 -30.5247
   -30.5246 -30.5242 -30.5241 -30.5229 -30.5210 -30.5209 -30.5189 -30.5188
   -30.5160 -30.5159 -30.5034 -30.5033 -30.5010 -30.5009 -30.5003 -30.4959
   -30.4959 -30.4858 -30.4858 -30.4834 -30.4831 -30.4831 -30.4830 -30.4803
   -30.4747 -30.4742 -30.4742 -30.4731 -30.4730 -30.4707 -30.4676 -30.4636
   -30.4633 -30.4606 -30.4590 -30.4588 -30.4585 -30.4565 -30.4543 -30.4480
   -30.4478 -30.4441 -30.4440 -30.4261 -30.4200 -30.4182 -30.4181 -30.4081
    13.1077  13.6552  13.6560  14.1277  14.3494  14.4429  14.4531  14.5036
    14.5037  14.5358  14.5359  14.5375  14.6526  14.6527  14.6793  14.6972
    14.6972  14.7115  14.7119  14.7131  14.7133  14.7368  14.7375  14.8566
    14.8576  14.8722  14.8892  14.9250  14.9260  15.0297  15.0299  15.0327
    15.0330  15.0582  15.0583  15.1017  15.1018  15.2353  15.2356  15.2501
    15.2504  15.2780  15.2783  15.5146  15.5150  15.5640  15.7530  15.7536
    15.7578  15.7582  15.8548  15.9202  15.9608  15.9616  15.9652  15.9680
    15.9824  16.1730  16.2825  16.2830  16.3368  16.4578  16.4670  16.4698
    16.5046  16.5048  16.5098  16.5109  16.5116  16.5122  16.5485  16.5499
    16.5779  16.5912  16.7312  16.7422  16.7581  16.7596  16.7682  16.7941
    16.8109  16.8237  16.8245  16.8449  16.8455  16.8469  16.9585  16.9596
    16.9669  16.9697  16.9706  16.9730  16.9892  16.9906  17.0852  17.0884
    17.0929  17.1096  17.1848  17.1856  17.1882  17.2481  17.2905  17.2920
    17.2969  17.3066  17.3070  17.3240  17.3258  17.3488  17.3505  17.5083
    17.6160  17.6162  17.6362  17.6363  17.7426  17.8075  17.8083  17.8414
[...]
    23.9501  23.9501  23.9501  23.9502  26.0839  26.0843  26.0843  26.0845
    26.4254  26.4254  26.4255  26.4255  26.4255  26.4255  26.4255  26.4256
    27.1969  27.1972  27.1973  27.1973  29.8691  29.8693  29.8693  29.8695
    30.3721  30.3722  30.3723  30.3723  30.9640  30.9641  30.9641  30.9642
    31.5414  31.5415

          k =-0.5000-0.5000 0.1665 ( 33060 PWs)   bands (ev):

   -64.8715 -64.8713 -64.8712 -64.8711 -64.8554 -64.8553 -64.8552 -64.8551
   -64.8437 -64.8436 -64.8435 -64.8434 -64.8343 -64.8341 -64.8341 -64.8339
   -64.8336 -64.8334 -64.8333 -64.8333 -64.8333 -64.8332 -64.8331 -64.8330
   -64.8327 -64.8326 -64.8326 -64.8324 -64.8277 -64.8276 -64.8275 -64.8274
   -30.7225 -30.7225 -30.7225 -30.7224 -30.7224 -30.7224 -30.7224 -30.7223
   -30.6998 -30.6998 -30.6996 -30.6996 -30.6996 -30.6996 -30.6995 -30.6995
   -30.6988 -30.6987 -30.6986 -30.6985 -30.6964 -30.6963 -30.6963 -30.6962
   -30.6519 -30.6518 -30.6518 -30.6517 -30.6085 -30.6085 -30.6085 -30.6085
   -30.5522 -30.5522 -30.5522 -30.5522 -30.5521 -30.5521 -30.5520 -30.5520
   -30.5508 -30.5508 -30.5507 -30.5507 -30.5507 -30.5506 -30.5505 -30.5505
   -30.5322 -30.5322 -30.5321 -30.5321 -30.5106 -30.5105 -30.5105 -30.5105
   -30.5104 -30.5104 -30.5104 -30.5103 -30.5103 -30.5103 -30.5102 -30.5102
   -30.4896 -30.4895 -30.4895 -30.4894 -30.4880 -30.4880 -30.4879 -30.4878
   -30.4878 -30.4877 -30.4877 -30.4877 -30.4754 -30.4754 -30.4753 -30.4753
   -30.4497 -30.4497 -30.4497 -30.4497 -30.4443 -30.4442 -30.4442 -30.4441
   -30.4387 -30.4386 -30.4385 -30.4384 -30.4147 -30.4147 -30.4147 -30.4147
    13.6309  13.6314  13.6314  13.6318  14.3318  14.3320  14.3320  14.3321
    14.6739  14.6739  14.6739  14.6739  14.6780  14.6781  14.6781  14.6781
    14.7504  14.7504  14.7506  14.7506  14.7508  14.7508  14.7509  14.7509
    14.9509  14.9509  14.9509  14.9510  14.9511  14.9511  14.9511  14.9512
    15.0565  15.0565  15.0566  15.0567  15.0569  15.0569  15.0570  15.0570
    15.2456  15.2456  15.2457  15.2457  15.7484  15.7484  15.7487  15.7487
    15.7488  15.7488  15.7490  15.7490  16.0706  16.0710  16.0710  16.0712
    16.0854  16.0857  16.0857  16.0858  16.5729  16.5730  16.5730  16.5730
    16.6422  16.6424  16.6424  16.6425  16.6432  16.6432  16.6432  16.6432
    16.8095  16.8095  16.8095  16.8095  16.8095  16.8095  16.8097  16.8097
    16.8131  16.8132  16.8132  16.8134  16.8363  16.8364  16.8364  16.8365
    16.8737  16.8738  16.8738  16.8740  17.1281  17.1281  17.1282  17.1282
    17.1282  17.1283  17.1283  17.1284  17.1558  17.1558  17.1558  17.1559
    17.2563  17.2566  17.2566  17.2568  17.3702  17.3703  17.3703  17.3704
    17.3704  17.3704  17.3705  17.3705  17.6955  17.6956  17.6956  17.6957
    18.1761  18.1762  18.1763  18.1764  18.3185  18.3185  18.3185  18.3186
    18.3186  18.3186  18.3187  18.3187  18.3280  18.3280  18.3282  18.3282
    18.6505  18.6506  18.6507  18.6507  18.7140  18.7140  18.7141  18.7142
    19.0672  19.0672  19.0672  19.0673  19.0673  19.0673  19.0674  19.0674
    19.0879  19.0879  19.0880  19.0880  19.0880  19.0880  19.0881  19.0881
    19.1004  19.1006  19.1006  19.1007  19.1267  19.1268  19.1268  19.1269
    20.3767  20.3770  20.3770  20.3771  22.0835  22.0835  22.0836  22.0836
    22.0838  22.0838  22.0839  22.0839  23.7764  23.7764  23.7765  23.7765
    23.7766  23.7766  23.7767  23.7767  25.4885  25.4889  25.4889  25.4891
    26.6641  26.6641  26.6643  26.6643  26.6643  26.6644  26.6644  26.6644
    27.3296  27.3298  27.3299  27.3299  29.7989  29.7991  29.7991  29.7991
    30.5045  30.5047  30.5047  30.5049  30.6499  30.6499  30.6501  30.6502
    30.6502  30.6502

          k =-0.5000-0.5000 0.2775 ( 33044 PWs)   bands (ev):

   -64.8701 -64.8700 -64.8699 -64.8698 -64.8591 -64.8590 -64.8589 -64.8588
   -64.8400 -64.8399 -64.8398 -64.8397 -64.8343 -64.8341 -64.8341 -64.8339
   -64.8336 -64.8334 -64.8333 -64.8333 -64.8333 -64.8332 -64.8331 -64.8330
   -64.8327 -64.8326 -64.8326 -64.8324 -64.8290 -64.8289 -64.8288 -64.8287
   -30.7199 -30.7198 -30.7198 -30.7198 -30.7198 -30.7197 -30.7197 -30.7197
   -30.7050 -30.7049 -30.7049 -30.7048 -30.7046 -30.7044 -30.7044 -30.7043
   -30.7029 -30.7029 -30.7028 -30.7028 -30.7027 -30.7027 -30.7026 -30.7026
   -30.6322 -30.6321 -30.6321 -30.6320 -30.5926 -30.5925 -30.5925 -30.5925
   -30.5522 -30.5522 -30.5522 -30.5522 -30.5522 -30.5522 -30.5521 -30.5520
   -30.5513 -30.5513 -30.5512 -30.5512 -30.5512 -30.5511 -30.5511 -30.5511
   -30.5482 -30.5481 -30.5481 -30.5481 -30.5095 -30.5094 -30.5094 -30.5093
   -30.5075 -30.5074 -30.5074 -30.5074 -30.5070 -30.5070 -30.5069 -30.5069
   -30.5068 -30.5068 -30.5067 -30.5067 -30.4904 -30.4904 -30.4903 -30.4903
   -30.4902 -30.4902 -30.4902 -30.4901 -30.4834 -30.4834 -30.4834 -30.4834
   -30.4416 -30.4416 -30.4416 -30.4416 -30.4352 -30.4351 -30.4351 -30.4350
   -30.4333 -30.4331 -30.4331 -30.4330 -30.4176 -30.4176 -30.4176 -30.4175
    13.6984  13.6989  13.6989  13.6992  14.1892  14.1895  14.1895  14.1897
    14.7079  14.7079  14.7079  14.7080  14.7279  14.7279  14.7279  14.7280
    14.7282  14.7283  14.7283  14.7283  14.7339  14.7339  14.7339  14.7340
    14.8817  14.8817  14.8818  14.8818  14.8819  14.8820  14.8820  14.8820
    15.1952  15.1952  15.1952  15.1952  15.1956  15.1956  15.1956  15.1957
    15.3020  15.3020  15.3021  15.3021  15.7377  15.7377  15.7380  15.7380
    15.7381  15.7382  15.7383  15.7384  15.8655  15.8658  15.8658  15.8659
    16.1783  16.1785  16.1785  16.1786  16.5835  16.5836  16.5837  16.5838
    16.7172  16.7173  16.7173  16.7173  16.7208  16.7209  16.7210  16.7211
    16.7834  16.7834  16.7835  16.7836  16.7922  16.7922  16.7922  16.7922
    16.7922  16.7923  16.7924  16.7924  16.7963  16.7965  16.7965  16.7967
    16.8257  16.8257  16.8257  16.8260  17.0952  17.0952  17.0953  17.0954
    17.0954  17.0954  17.0955  17.0956  17.1726  17.1728  17.1728  17.1730
    17.3090  17.3090  17.3091  17.3091  17.4457  17.4457  17.4458  17.4458
    17.4459  17.4459  17.4459  17.4460  17.8251  17.8252  17.8253  17.8254
    18.0248  18.0249  18.0250  18.0251  18.0617  18.0618  18.0618  18.0619
    18.0619  18.0619  18.0620  18.0620  18.2752  18.2753  18.2754  18.2754
    18.3324  18.3325  18.3326  18.3326  18.5371  18.5372  18.5372  18.5373
    19.1508  19.1508  19.1509  19.1509  19.1509  19.1509  19.1510  19.1510
    19.1693  19.1695  19.1695  19.1696  19.1921  19.1921  19.1921  19.1921
    19.1922  19.1922  19.1922  19.1923  19.2058  19.2059  19.2059  19.2059
    21.1317  21.1320  21.1320  21.1322  22.2670  22.2670  22.2671  22.2671
    22.2673  22.2673  22.2674  22.2674  23.4943  23.4943  23.4944  23.4944
    23.4946  23.4946  23.4946  23.4946  24.6438  24.6442  24.6442  24.6444
    27.0821  27.0821  27.0823  27.0823  27.0823  27.0823  27.0824  27.0824
    27.5598  27.5601  27.5602  27.5602  29.2515  29.2517  29.2517  29.2517
    29.7942  29.7942  29.7942  29.7942  29.7944  29.7945  29.7945  29.7945
    31.4544  31.4546

          k =-0.5000-0.5000 0.3886 ( 33056 PWs)   bands (ev):

   -64.8682 -64.8680 -64.8679 -64.8678 -64.8625 -64.8624 -64.8623 -64.8622
   -64.8366 -64.8365 -64.8364 -64.8363 -64.8343 -64.8341 -64.8341 -64.8339
   -64.8336 -64.8334 -64.8333 -64.8333 -64.8333 -64.8332 -64.8331 -64.8330
   -64.8327 -64.8326 -64.8326 -64.8324 -64.8310 -64.8309 -64.8308 -64.8307
   -30.7160 -30.7160 -30.7160 -30.7160 -30.7159 -30.7159 -30.7159 -30.7159
   -30.7100 -30.7099 -30.7099 -30.7098 -30.7094 -30.7092 -30.7092 -30.7091
   -30.7070 -30.7070 -30.7069 -30.7069 -30.7068 -30.7068 -30.7068 -30.7067
   -30.6110 -30.6109 -30.6109 -30.6108 -30.5732 -30.5731 -30.5731 -30.5731
   -30.5678 -30.5678 -30.5677 -30.5677 -30.5523 -30.5523 -30.5522 -30.5522
   -30.5522 -30.5521 -30.5521 -30.5520 -30.5517 -30.5516 -30.5516 -30.5516
   -30.5515 -30.5515 -30.5515 -30.5514 -30.5306 -30.5305 -30.5305 -30.5304
   -30.5031 -30.5031 -30.5031 -30.5031 -30.5027 -30.5027 -30.5027 -30.5026
   -30.5025 -30.5025 -30.5025 -30.5025 -30.4938 -30.4938 -30.4938 -30.4938
   -30.4937 -30.4936 -30.4936 -30.4936 -30.4909 -30.4909 -30.4909 -30.4909
   -30.4341 -30.4341 -30.4341 -30.4341 -30.4298 -30.4297 -30.4297 -30.4296
   -30.4292 -30.4291 -30.4290 -30.4289 -30.4219 -30.4219 -30.4219 -30.4219
    13.7943  13.7947  13.7947  13.7951  14.0469  14.0472  14.0472  14.0475
    14.7316  14.7316  14.7316  14.7316  14.7319  14.7319  14.7319  14.7320
    14.7396  14.7396  14.7396  14.7396  14.7617  14.7618  14.7618  14.7618
    14.8139  14.8139  14.8140  14.8140  14.8142  14.8142  14.8143  14.8143
    15.3543  15.3543  15.3544  15.3544  15.3547  15.3548  15.3548  15.3548
    15.3917  15.3919  15.3919  15.3920  15.6562  15.6562  15.6564  15.6564
    15.6566  15.6566  15.6568  15.6568  15.6776  15.6779  15.6779  15.6780
    16.3068  16.3070  16.3070  16.3070  16.5521  16.5523  16.5523  16.5523
    16.7405  16.7405  16.7405  16.7406  16.7581  16.7581  16.7582  16.7583
    16.7743  16.7744  16.7744  16.7746  16.7837  16.7838  16.7838  16.7840
    16.8190  16.8191  16.8191  16.8192  16.8449  16.8450  16.8450  16.8450
    16.8451  16.8451  16.8452  16.8452  17.0342  17.0342  17.0343  17.0343
    17.0343  17.0344  17.0344  17.0345  17.0617  17.0619  17.0619  17.0621
    17.4795  17.4795  17.4796  17.4796  17.5360  17.5360  17.5360  17.5361
    17.5362  17.5362  17.5362  17.5363  17.8334  17.8334  17.8334  17.8335
    17.8335  17.8336  17.8336  17.8337  17.8471  17.8472  17.8472  17.8473
    17.9866  17.9867  17.9868  17.9869  18.1815  18.1815  18.1816  18.1817
    18.2114  18.2115  18.2116  18.2117  18.3519  18.3520  18.3520  18.3521
    19.2149  19.2149  19.2150  19.2150  19.2150  19.2150  19.2151  19.2151
    19.2260  19.2261  19.2261  19.2262  19.2488  19.2489  19.2489  19.2490
    19.2535  19.2535  19.2535  19.2535  19.2536  19.2536  19.2536  19.2536
    21.9523  21.9526  21.9526  21.9528  22.5239  22.5239  22.5241  22.5241
    22.5242  22.5242  22.5243  22.5243  23.1659  23.1659  23.1660  23.1660
    23.1661  23.1661  23.1662  23.1662  23.7328  23.7331  23.7332  23.7334
    27.6269  27.6269  27.6271  27.6271  27.6272  27.6272  27.6273  27.6273
    27.8797  27.8800  27.8800  27.8800  28.7401  28.7403  28.7404  28.7404
    28.9967  28.9967  28.9968  28.9968  28.9969  28.9970  28.9970  28.9970
    32.5232  32.5234

          k =-0.5000-0.5000-0.4996 ( 32968 PWs)   bands (ev):

   -64.8660 -64.8658 -64.8657 -64.8656 -64.8652 -64.8651 -64.8650 -64.8649
   -64.8343 -64.8341 -64.8341 -64.8340 -64.8339 -64.8338 -64.8337 -64.8337
   -64.8336 -64.8334 -64.8333 -64.8333 -64.8333 -64.8332 -64.8331 -64.8331
   -64.8330 -64.8330 -64.8330 -64.8328 -64.8327 -64.8326 -64.8325 -64.8324
   -30.7121 -30.7120 -30.7120 -30.7120 -30.7116 -30.7116 -30.7115 -30.7115
   -30.7114 -30.7114 -30.7113 -30.7113 -30.7113 -30.7112 -30.7111 -30.7111
   -30.7111 -30.7110 -30.7109 -30.7109 -30.7109 -30.7108 -30.7108 -30.7108
   -30.5893 -30.5892 -30.5892 -30.5892 -30.5890 -30.5890 -30.5890 -30.5889
   -30.5523 -30.5522 -30.5522 -30.5522 -30.5522 -30.5521 -30.5521 -30.5521
   -30.5520 -30.5519 -30.5519 -30.5519 -30.5519 -30.5519 -30.5519 -30.5519
   -30.5518 -30.5518 -30.5518 -30.5518 -30.5517 -30.5517 -30.5517 -30.5516
   -30.4982 -30.4982 -30.4982 -30.4982 -30.4982 -30.4981 -30.4980 -30.4980
   -30.4980 -30.4979 -30.4979 -30.4979 -30.4978 -30.4978 -30.4978 -30.4977
   -30.4977 -30.4977 -30.4977 -30.4977 -30.4971 -30.4971 -30.4971 -30.4971
   -30.4279 -30.4279 -30.4279 -30.4278 -30.4278 -30.4278 -30.4278 -30.4277
   -30.4276 -30.4275 -30.4275 -30.4274 -30.4271 -30.4271 -30.4271 -30.4270
    13.9124  13.9128  13.9128  13.9131  13.9131  13.9135  13.9135  13.9138
    14.7608  14.7608  14.7608  14.7609  14.7613  14.7614  14.7614  14.7614
    14.7615  14.7615  14.7615  14.7616  14.7616  14.7616  14.7616  14.7616
    14.7617  14.7617  14.7618  14.7618  14.7619  14.7620  14.7620  14.7620
    15.5165  15.5166  15.5168  15.5168  15.5169  15.5170  15.5171  15.5171
    15.5171  15.5171  15.5171  15.5171  15.5173  15.5174  15.5174  15.5174
    15.5175  15.5175  15.5175  15.5176  15.5180  15.5182  15.5182  15.5183
    16.4475  16.4477  16.4477  16.4477  16.4477  16.4478  16.4478  16.4478
    16.7524  16.7525  16.7525  16.7526  16.7527  16.7528  16.7528  16.7530
    16.7591  16.7591  16.7591  16.7593  16.7594  16.7594  16.7595  16.7596
    16.9384  16.9385  16.9385  16.9386  16.9389  16.9390  16.9390  16.9392
    16.9423  16.9423  16.9423  16.9424  16.9424  16.9425  16.9425  16.9425
    16.9425  16.9426  16.9426  16.9426  16.9427  16.9427  16.9428  16.9428
    17.6578  17.6578  17.6579  17.6580  17.6581  17.6582  17.6583  17.6583
    17.6583  17.6584  17.6584  17.6584  17.6586  17.6586  17.6588  17.6589
    17.6613  17.6614  17.6614  17.6615  17.6616  17.6617  17.6617  17.6618
    18.1632  18.1632  18.1633  18.1634  18.1637  18.1638  18.1639  18.1639
    18.1655  18.1656  18.1656  18.1657  18.1658  18.1659  18.1659  18.1661
    19.2547  19.2548  19.2548  19.2549  19.2549  19.2550  19.2550  19.2551
    19.2558  19.2558  19.2558  19.2559  19.2560  19.2561  19.2561  19.2561
    19.2562  19.2562  19.2562  19.2563  19.2565  19.2565  19.2565  19.2566
    22.8251  22.8254  22.8254  22.8255  22.8256  22.8258  22.8258  22.8260
    22.8318  22.8320  22.8320  22.8321  22.8321  22.8323  22.8324  22.8324
    22.8325  22.8326  22.8326  22.8328  22.8328  22.8330  22.8330  22.8330
    28.2700  28.2700  28.2702  28.2702  28.2702  28.2703  28.2703  28.2704
    28.2706  28.2707  28.2707  28.2707  28.2708  28.2709  28.2709  28.2709
    28.2776  28.2779  28.2779  28.2779  28.2784  28.2786  28.2787  28.2787
    33.5023  33.5025

     the Fermi energy is    19.2769 ev

!    total energy              =  -16384.95843288 Ry
     Harris-Foulkes estimate   =  -16384.95842168 Ry
     estimated scf accuracy    <       0.00000048 Ry

     total all-electron energy =   -322945.812140 Ry

     The total energy is the sum of the following terms:

     one-electron contribution =   -2487.26320314 Ry
     hartree contribution      =    1661.12610208 Ry
     xc contribution           =    -986.50800847 Ry
     ewald contribution        =   -6404.92051140 Ry
     one-center paw contrib.   =   -8167.42594017 Ry
     smearing contrib. (-TS)   =       0.03312822 Ry

     convergence has been achieved in  11 iterations

     Forces acting on atoms (cartesian axes, Ry/au):

     atom    1 type  1   force =     0.00000000    0.00000000    0.00000000
     atom    2 type  1   force =     0.00009526    0.00009526    0.00000000
     atom    3 type  1   force =     0.00005502   -0.00000000   -0.00001278
     atom    4 type  1   force =     0.00000000    0.00005502   -0.00001278
     atom    5 type  1   force =     0.00000000    0.00000000    0.00000000
     atom    6 type  1   force =     0.00013251    0.00013251    0.00000000
     atom    7 type  1   force =     0.00005502    0.00000000    0.00001278
     atom    8 type  1   force =     0.00000000    0.00005502    0.00001278
     atom    9 type  1   force =     0.00000000    0.00000000    0.00000000
     atom   10 type  1   force =     0.00009526   -0.00009526    0.00000000
     atom   11 type  1   force =     0.00016857    0.00000000   -0.00001176
     atom   12 type  1   force =     0.00000000   -0.00005502   -0.00001278
     atom   13 type  1   force =     0.00000000    0.00000000    0.00000000
     atom   14 type  1   force =     0.00013251   -0.00013251    0.00000000
     atom   15 type  1   force =     0.00016857   -0.00000000    0.00001176
     atom   16 type  1   force =     0.00000000   -0.00005502    0.00001278
     atom   17 type  1   force =     0.00000000    0.00000000    0.00000000
     atom   18 type  1   force =    -0.00009526    0.00009526    0.00000000
     atom   19 type  1   force =    -0.00005502    0.00000000   -0.00001278
     atom   20 type  1   force =     0.00000000    0.00016857   -0.00001176
     atom   21 type  1   force =     0.00000000    0.00000000    0.00000000
     atom   22 type  1   force =    -0.00013251    0.00013251    0.00000000
     atom   23 type  1   force =    -0.00005502   -0.00000000    0.00001278
     atom   24 type  1   force =     0.00000000    0.00016857    0.00001176
     atom   25 type  1   force =     0.00000000    0.00000000    0.00000000
     atom   26 type  1   force =    -0.00009526   -0.00009526    0.00000000
     atom   27 type  1   force =    -0.00016857   -0.00000000   -0.00001176
     atom   28 type  1   force =     0.00000000   -0.00016857   -0.00001176
     atom   29 type  1   force =     0.00000000    0.00000000    0.00000000
     atom   30 type  1   force =    -0.00013251   -0.00013251    0.00000000
     atom   31 type  1   force =    -0.00016857    0.00000000    0.00001176
     atom   32 type  1   force =     0.00000000   -0.00016857    0.00001176

     Total force =     0.000683     Total SCF correction =     0.005436
     SCF correction compared to forces is large: reduce conv_thr to get better values


     Computing stress (Cartesian axis) and pressure

          total   stress  (Ry/bohr**3)                   (kbar)     P=    0.03
   0.00000163   0.00000000   0.00000000          0.24      0.00      0.00
   0.00000000   0.00000163   0.00000000          0.00      0.24      0.00
   0.00000000   0.00000000  -0.00000273          0.00      0.00     -0.40


     Writing output data file nJvdExSXlcCEqkSx.save/
 
     init_run     :     40.90s CPU     44.31s WALL (       1 calls)
     electrons    :   1963.84s CPU   2073.60s WALL (       1 calls)
     forces       :     18.72s CPU     19.47s WALL (       1 calls)
     stress       :    186.01s CPU    186.79s WALL (       1 calls)

     Called by init_run:
     wfcinit      :     40.03s CPU     43.39s WALL (       1 calls)
     potinit      :      0.38s CPU      0.38s WALL (       1 calls)
     hinit0       :      0.30s CPU      0.31s WALL (       1 calls)

     Called by electrons:
     c_bands      :   1784.59s CPU   1875.04s WALL (      12 calls)
     sum_band     :    175.20s CPU    194.07s WALL (      12 calls)
     v_of_rho     :      0.35s CPU      0.36s WALL (      12 calls)
     newd         :      0.85s CPU      1.13s WALL (      12 calls)
     PAW_pot      :      3.03s CPU      3.10s WALL (      12 calls)
     mix_rho      :      0.09s CPU      0.11s WALL (      12 calls)

     Called by c_bands:
     init_us_2    :     10.84s CPU     10.92s WALL (    2025 calls)
     cegterg      :   1723.60s CPU   1813.49s WALL (     900 calls)

     Called by sum_band:
     sum_band:bec :      1.39s CPU      1.41s WALL (     900 calls)
     addusdens    :      0.95s CPU      1.26s WALL (      12 calls)

     Called by *egterg:
     h_psi        :    702.62s CPU    781.77s WALL (    2600 calls)
     s_psi        :     85.44s CPU     85.94s WALL (    2600 calls)
     g_psi        :      2.47s CPU      2.49s WALL (    1625 calls)
     cdiaghg      :    656.67s CPU    660.08s WALL (    2450 calls)

     Called by h_psi:
     h_psi:pot    :    695.89s CPU    774.79s WALL (    2600 calls)
     h_psi:calbec :     89.20s CPU     93.66s WALL (    2600 calls)
     vloc_psi     :    522.17s CPU    595.99s WALL (    2600 calls)
     add_vuspsi   :     84.50s CPU     85.13s WALL (    2600 calls)

     General routines
     calbec       :    158.58s CPU    165.87s WALL (    3875 calls)
     fft          :      0.34s CPU      0.38s WALL (     181 calls)
     ffts         :      0.03s CPU      0.03s WALL (      24 calls)
     fftw         :    606.98s CPU    692.38s WALL ( 1704956 calls)
     interpolate  :      0.04s CPU      0.05s WALL (      12 calls)
 
     Parallel routines
     fft_scatt_xy :     49.31s CPU     55.34s WALL ( 1705161 calls)
     fft_scatt_yz :    398.95s CPU    459.31s WALL ( 1705161 calls)
 
     PWSCF        : 36m56.19s CPU    40m22.53s WALL

 
   This run was terminated on:  18:41:30  11Nov2020            

=------------------------------------------------------------------------------=
   JOB DONE.
=------------------------------------------------------------------------------=
