--------------------------------------------------------------------------
WARNING: No preset parameters were found for the device that Open MPI
detected:

  Local host:            bear-pg0206u14b
  Device name:           mlx5_0
  Device vendor ID:      0x02c9
  Device vendor part ID: 4123

Default device parameters will be used, which may result in lower
performance.  You can edit any of the files specified by the
btl_openib_device_param_files MCA parameter to set values for your
device.

NOTE: You can turn off this warning by setting the MCA parameter
      btl_openib_warn_no_device_params_found to 0.
--------------------------------------------------------------------------
--------------------------------------------------------------------------
WARNING: There was an error initializing an OpenFabrics device.

  Local host:   bear-pg0206u14b
  Local device: mlx5_0
--------------------------------------------------------------------------

     Program PWSCF v.6.3 starts on 11Nov2020 at 21:21:20 

     This program is part of the open-source Quantum ESPRESSO suite
     for quantum simulation of materials; please cite
         "P. Giannozzi et al., J. Phys.:Condens. Matter 21 395502 (2009);
         "P. Giannozzi et al., J. Phys.:Condens. Matter 29 465901 (2017);
          URL http://www.quantum-espresso.org", 
     in publications or presentations arising from this work. More details at
     http://www.quantum-espresso.org/quote

     Parallel version (MPI & OpenMP), running on      20 processor cores
     Number of MPI processes:                20
     Threads/MPI process:                     1

     MPI processes distributed on     1 nodes
     R & G space division:  proc/nbgrp/npool/nimage =      20
     Reading input from wd/ec/ec_3_007.in
Warning: card &IONS ignored
Warning: card ION_DYNAMICS = 'BFGS', ignored
Warning: card / ignored
Warning: card &CELL ignored
Warning: card CELL_DYNAMICS = 'BFGS', ignored
Warning: card CELL_FACTOR = 2.0, ignored
Warning: card PRESS = 0.0, ignored
Warning: card / ignored

     Current dimensions of program PWSCF are:
     Max number of different atomic species (ntypx) = 10
     Max number of k-points (npk) =  40000
     Max angular momentum in pseudopotentials (lmaxx) =  3
               file Pd.pbe-spn-kjpaw_psl.1.0.0.UPF: wavefunction(s)  4S 5S 4D renormalized

     Subspace diagonalization in iterative solution of the eigenvalue problem:
     a serial algorithm will be used

 
     Parallelization info
     --------------------
     sticks:   dense  smooth     PW     G-vecs:    dense   smooth      PW
     Min         376     247     67                24714    13259    1879
     Max         377     248     68                24719    13264    1884
     Sum        7521    4957   1353               494291   265261   37657
 


     bravais-lattice index     =            0
     lattice parameter (alat)  =      14.8394  a.u.
     unit-cell volume          =    3284.1034 (a.u.)^3
     number of atoms/cell      =           32
     number of atomic types    =            1
     number of electrons       =       576.00
     number of Kohn-Sham states=          346
     kinetic-energy cutoff     =      71.0000  Ry
     charge density cutoff     =     430.0000  Ry
     convergence threshold     =      1.0E-06
     mixing beta               =       0.1000
     number of iterations used =           10  plain     mixing
     Exchange-correlation      = SLA PW PBX PBC ( 1  4  3  4 0 0)

     celldm(1)=  14.839420  celldm(2)=   0.000000  celldm(3)=   0.000000
     celldm(4)=   0.000000  celldm(5)=   0.000000  celldm(6)=   0.000000

     crystal axes: (cart. coord. in units of alat)
               a(1) = (   1.000000   0.000000   0.000000 )  
               a(2) = (   0.000000   1.000000   0.000000 )  
               a(3) = (   0.000000   0.000000   1.005000 )  

     reciprocal axes: (cart. coord. in units 2 pi/alat)
               b(1) = (  1.000000  0.000000  0.000000 )  
               b(2) = (  0.000000  1.000000  0.000000 )  
               b(3) = (  0.000000  0.000000  0.995025 )  


     PseudoPot. # 1 for Pd read from file:
     /rds/homes/b/bxp912/pp/Pd.pbe-spn-kjpaw_psl.1.0.0.UPF
     MD5 check sum: 790f2ebce206edfd9790dcb9844eca51
     Pseudo is Projector augmented-wave + core cor, Zval = 18.0
     Generated using "atomic" code by A. Dal Corso v.6.3
     Shape of augmentation charge: PSQ
     Using radial grid of 1235 points,  6 beta functions with: 
                l(1) =   0
                l(2) =   0
                l(3) =   1
                l(4) =   1
                l(5) =   2
                l(6) =   2
     Q(r) pseudized with 0 coefficients 


     atomic species   valence    mass     pseudopotential
        Pd            18.00   106.42000     Pd( 1.00)

     16 Sym. Ops., with inversion, found



   Cartesian axes

     site n.     atom                  positions (alat units)
         1           Pd  tau(   1) = (   0.0000000   0.0000000   0.0000000  )
         2           Pd  tau(   2) = (   0.2500045   0.2500045   0.0000000  )
         3           Pd  tau(   3) = (   0.2500045   0.0000000   0.2512540  )
         4           Pd  tau(   4) = (   0.0000000   0.2500045   0.2512540  )
         5           Pd  tau(   5) = (   0.0000000   0.0000000   0.5024990  )
         6           Pd  tau(   6) = (   0.2500116   0.2500116   0.5024990  )
         7           Pd  tau(   7) = (   0.2500045   0.0000000   0.7537450  )
         8           Pd  tau(   8) = (   0.0000000   0.2500045   0.7537450  )
         9           Pd  tau(   9) = (   0.0000000   0.4999998   0.0000000  )
        10           Pd  tau(  10) = (   0.2500045   0.7499952   0.0000000  )
        11           Pd  tau(  11) = (   0.2500116   0.4999998   0.2512610  )
        12           Pd  tau(  12) = (   0.0000000   0.7499952   0.2512540  )
        13           Pd  tau(  13) = (   0.0000000   0.4999998   0.5024990  )
        14           Pd  tau(  14) = (   0.2500116   0.7499881   0.5024990  )
        15           Pd  tau(  15) = (   0.2500116   0.4999998   0.7537380  )
        16           Pd  tau(  16) = (   0.0000000   0.7499952   0.7537450  )
        17           Pd  tau(  17) = (   0.4999998   0.0000000   0.0000000  )
        18           Pd  tau(  18) = (   0.7499952   0.2500045   0.0000000  )
        19           Pd  tau(  19) = (   0.7499952   0.0000000   0.2512540  )
        20           Pd  tau(  20) = (   0.4999998   0.2500116   0.2512610  )
        21           Pd  tau(  21) = (   0.4999998   0.0000000   0.5024990  )
        22           Pd  tau(  22) = (   0.7499881   0.2500116   0.5024990  )
        23           Pd  tau(  23) = (   0.7499952   0.0000000   0.7537450  )
        24           Pd  tau(  24) = (   0.4999998   0.2500116   0.7537380  )
        25           Pd  tau(  25) = (   0.4999998   0.4999998   0.0000000  )
        26           Pd  tau(  26) = (   0.7499952   0.7499952   0.0000000  )
        27           Pd  tau(  27) = (   0.7499881   0.4999998   0.2512610  )
        28           Pd  tau(  28) = (   0.4999998   0.7499881   0.2512610  )
        29           Pd  tau(  29) = (   0.4999998   0.4999998   0.5024990  )
        30           Pd  tau(  30) = (   0.7499881   0.7499881   0.5024990  )
        31           Pd  tau(  31) = (   0.7499881   0.4999998   0.7537380  )
        32           Pd  tau(  32) = (   0.4999998   0.7499881   0.7537380  )

     number of k points=    75  Marzari-Vanderbilt smearing, width (Ry)=  0.0400
                       cart. coord. in units 2pi/alat
        k(    1) = (   0.0555556   0.0555556   0.0552792), wk =   0.0219479
        k(    2) = (   0.0555556   0.0555556   0.1658375), wk =   0.0219479
        k(    3) = (   0.0555556   0.0555556   0.2763958), wk =   0.0219479
        k(    4) = (   0.0555556   0.0555556   0.3869541), wk =   0.0219479
        k(    5) = (   0.0555556   0.0555556  -0.4975124), wk =   0.0109739
        k(    6) = (   0.0555556   0.1666667   0.0552792), wk =   0.0438957
        k(    7) = (   0.0555556   0.1666667   0.1658375), wk =   0.0438957
        k(    8) = (   0.0555556   0.1666667   0.2763958), wk =   0.0438957
        k(    9) = (   0.0555556   0.1666667   0.3869541), wk =   0.0438957
        k(   10) = (   0.0555556   0.1666667  -0.4975124), wk =   0.0219479
        k(   11) = (   0.0555556   0.2777778   0.0552792), wk =   0.0438957
        k(   12) = (   0.0555556   0.2777778   0.1658375), wk =   0.0438957
        k(   13) = (   0.0555556   0.2777778   0.2763958), wk =   0.0438957
        k(   14) = (   0.0555556   0.2777778   0.3869541), wk =   0.0438957
        k(   15) = (   0.0555556   0.2777778  -0.4975124), wk =   0.0219479
        k(   16) = (   0.0555556   0.3888889   0.0552792), wk =   0.0438957
        k(   17) = (   0.0555556   0.3888889   0.1658375), wk =   0.0438957
        k(   18) = (   0.0555556   0.3888889   0.2763958), wk =   0.0438957
        k(   19) = (   0.0555556   0.3888889   0.3869541), wk =   0.0438957
        k(   20) = (   0.0555556   0.3888889  -0.4975124), wk =   0.0219479
        k(   21) = (   0.0555556  -0.5000000   0.0552792), wk =   0.0219479
        k(   22) = (   0.0555556  -0.5000000   0.1658375), wk =   0.0219479
        k(   23) = (   0.0555556  -0.5000000   0.2763958), wk =   0.0219479
        k(   24) = (   0.0555556  -0.5000000   0.3869541), wk =   0.0219479
        k(   25) = (   0.0555556  -0.5000000  -0.4975124), wk =   0.0109739
        k(   26) = (   0.1666667   0.1666667   0.0552792), wk =   0.0219479
        k(   27) = (   0.1666667   0.1666667   0.1658375), wk =   0.0219479
        k(   28) = (   0.1666667   0.1666667   0.2763958), wk =   0.0219479
        k(   29) = (   0.1666667   0.1666667   0.3869541), wk =   0.0219479
        k(   30) = (   0.1666667   0.1666667  -0.4975124), wk =   0.0109739
        k(   31) = (   0.1666667   0.2777778   0.0552792), wk =   0.0438957
        k(   32) = (   0.1666667   0.2777778   0.1658375), wk =   0.0438957
        k(   33) = (   0.1666667   0.2777778   0.2763958), wk =   0.0438957
        k(   34) = (   0.1666667   0.2777778   0.3869541), wk =   0.0438957
        k(   35) = (   0.1666667   0.2777778  -0.4975124), wk =   0.0219479
        k(   36) = (   0.1666667   0.3888889   0.0552792), wk =   0.0438957
        k(   37) = (   0.1666667   0.3888889   0.1658375), wk =   0.0438957
        k(   38) = (   0.1666667   0.3888889   0.2763958), wk =   0.0438957
        k(   39) = (   0.1666667   0.3888889   0.3869541), wk =   0.0438957
        k(   40) = (   0.1666667   0.3888889  -0.4975124), wk =   0.0219479
        k(   41) = (   0.1666667  -0.5000000   0.0552792), wk =   0.0219479
        k(   42) = (   0.1666667  -0.5000000   0.1658375), wk =   0.0219479
        k(   43) = (   0.1666667  -0.5000000   0.2763958), wk =   0.0219479
        k(   44) = (   0.1666667  -0.5000000   0.3869541), wk =   0.0219479
        k(   45) = (   0.1666667  -0.5000000  -0.4975124), wk =   0.0109739
        k(   46) = (   0.2777778   0.2777778   0.0552792), wk =   0.0219479
        k(   47) = (   0.2777778   0.2777778   0.1658375), wk =   0.0219479
        k(   48) = (   0.2777778   0.2777778   0.2763958), wk =   0.0219479
        k(   49) = (   0.2777778   0.2777778   0.3869541), wk =   0.0219479
        k(   50) = (   0.2777778   0.2777778  -0.4975124), wk =   0.0109739
        k(   51) = (   0.2777778   0.3888889   0.0552792), wk =   0.0438957
        k(   52) = (   0.2777778   0.3888889   0.1658375), wk =   0.0438957
        k(   53) = (   0.2777778   0.3888889   0.2763958), wk =   0.0438957
        k(   54) = (   0.2777778   0.3888889   0.3869541), wk =   0.0438957
        k(   55) = (   0.2777778   0.3888889  -0.4975124), wk =   0.0219479
        k(   56) = (   0.2777778  -0.5000000   0.0552792), wk =   0.0219479
        k(   57) = (   0.2777778  -0.5000000   0.1658375), wk =   0.0219479
        k(   58) = (   0.2777778  -0.5000000   0.2763958), wk =   0.0219479
        k(   59) = (   0.2777778  -0.5000000   0.3869541), wk =   0.0219479
        k(   60) = (   0.2777778  -0.5000000  -0.4975124), wk =   0.0109739
        k(   61) = (   0.3888889   0.3888889   0.0552792), wk =   0.0219479
        k(   62) = (   0.3888889   0.3888889   0.1658375), wk =   0.0219479
        k(   63) = (   0.3888889   0.3888889   0.2763958), wk =   0.0219479
        k(   64) = (   0.3888889   0.3888889   0.3869541), wk =   0.0219479
        k(   65) = (   0.3888889   0.3888889  -0.4975124), wk =   0.0109739
        k(   66) = (   0.3888889  -0.5000000   0.0552792), wk =   0.0219479
        k(   67) = (   0.3888889  -0.5000000   0.1658375), wk =   0.0219479
        k(   68) = (   0.3888889  -0.5000000   0.2763958), wk =   0.0219479
        k(   69) = (   0.3888889  -0.5000000   0.3869541), wk =   0.0219479
        k(   70) = (   0.3888889  -0.5000000  -0.4975124), wk =   0.0109739
        k(   71) = (  -0.5000000  -0.5000000   0.0552792), wk =   0.0054870
        k(   72) = (  -0.5000000  -0.5000000   0.1658375), wk =   0.0054870
        k(   73) = (  -0.5000000  -0.5000000   0.2763958), wk =   0.0054870
        k(   74) = (  -0.5000000  -0.5000000   0.3869541), wk =   0.0054870
        k(   75) = (  -0.5000000  -0.5000000  -0.4975124), wk =   0.0027435

     Dense  grid:   494291 G-vectors     FFT dimensions: ( 100, 100, 100)

     Smooth grid:   265261 G-vectors     FFT dimensions: (  80,  80,  81)

     Estimated max dynamical RAM per process >     894.66 MB

     Estimated total dynamical RAM >      17.47 GB

     Check: negative/imaginary core charge=   -0.000002    0.000000

     Initial potential from superposition of free atoms

     starting charge  575.98776, renormalised to  576.00000
     Starting wfcs are  320 randomized atomic wfcs +   26 random wfcs
     Checking if some PAW data can be deallocated... 

     total cpu time spent up to now is       48.1 secs

     Self-consistent Calculation

     iteration #  1     ecut=    71.00 Ry     beta= 0.10
     Davidson diagonalization with overlap
     ethr =  1.00E-02,  avg # of iterations =  3.1

     Threshold (ethr) on eigenvalues was too large:
     Diagonalizing with lowered threshold

     Davidson diagonalization with overlap
     ethr =  8.59E-05,  avg # of iterations =  3.1

     total cpu time spent up to now is      513.2 secs

     total energy              =  -16385.02305457 Ry
     Harris-Foulkes estimate   =  -16385.09286320 Ry
     estimated scf accuracy    <       0.48875355 Ry

     iteration #  2     ecut=    71.00 Ry     beta= 0.10
     Davidson diagonalization with overlap
     ethr =  8.49E-05,  avg # of iterations =  1.0

     total cpu time spent up to now is      658.1 secs

     total energy              =  -16384.92947162 Ry
     Harris-Foulkes estimate   =  -16385.03108435 Ry
     estimated scf accuracy    <       0.26522084 Ry

     iteration #  3     ecut=    71.00 Ry     beta= 0.10
     Davidson diagonalization with overlap
     ethr =  4.60E-05,  avg # of iterations =  2.0

     total cpu time spent up to now is      853.4 secs

     total energy              =  -16384.96274973 Ry
     Harris-Foulkes estimate   =  -16384.96826473 Ry
     estimated scf accuracy    <       0.07292899 Ry

     iteration #  4     ecut=    71.00 Ry     beta= 0.10
     Davidson diagonalization with overlap
     ethr =  1.27E-05,  avg # of iterations =  1.6

     total cpu time spent up to now is     1014.4 secs

     total energy              =  -16384.96331388 Ry
     Harris-Foulkes estimate   =  -16384.96548306 Ry
     estimated scf accuracy    <       0.02220795 Ry

     iteration #  5     ecut=    71.00 Ry     beta= 0.10
     Davidson diagonalization with overlap
     ethr =  3.86E-06,  avg # of iterations =  1.4

     total cpu time spent up to now is     1168.5 secs

     total energy              =  -16384.95821120 Ry
     Harris-Foulkes estimate   =  -16384.96350842 Ry
     estimated scf accuracy    <       0.01515438 Ry

     iteration #  6     ecut=    71.00 Ry     beta= 0.10
     Davidson diagonalization with overlap
     ethr =  2.63E-06,  avg # of iterations =  1.0

     total cpu time spent up to now is     1312.9 secs

     total energy              =  -16384.95922989 Ry
     Harris-Foulkes estimate   =  -16384.95923782 Ry
     estimated scf accuracy    <       0.00021966 Ry

     iteration #  7     ecut=    71.00 Ry     beta= 0.10
     Davidson diagonalization with overlap
     ethr =  3.81E-08,  avg # of iterations =  3.0

     total cpu time spent up to now is     1567.4 secs

     total energy              =  -16384.95931153 Ry
     Harris-Foulkes estimate   =  -16384.95932792 Ry
     estimated scf accuracy    <       0.00026017 Ry

     iteration #  8     ecut=    71.00 Ry     beta= 0.10
     Davidson diagonalization with overlap
     ethr =  3.81E-08,  avg # of iterations =  1.0

     total cpu time spent up to now is     1711.8 secs

     total energy              =  -16384.95931536 Ry
     Harris-Foulkes estimate   =  -16384.95931968 Ry
     estimated scf accuracy    <       0.00005382 Ry

     iteration #  9     ecut=    71.00 Ry     beta= 0.10
     Davidson diagonalization with overlap
     ethr =  9.34E-09,  avg # of iterations =  1.0

     total cpu time spent up to now is     1854.8 secs

     total energy              =  -16384.95931490 Ry
     Harris-Foulkes estimate   =  -16384.95931635 Ry
     estimated scf accuracy    <       0.00003783 Ry

     iteration # 10     ecut=    71.00 Ry     beta= 0.10
     Davidson diagonalization with overlap
     ethr =  6.57E-09,  avg # of iterations =  2.0

     total cpu time spent up to now is     2048.8 secs

     total energy              =  -16384.95932226 Ry
     Harris-Foulkes estimate   =  -16384.95931913 Ry
     estimated scf accuracy    <       0.00000433 Ry

     iteration # 11     ecut=    71.00 Ry     beta= 0.10
     Davidson diagonalization with overlap
     ethr =  7.51E-10,  avg # of iterations =  1.0

     total cpu time spent up to now is     2193.2 secs

     End of self-consistent calculation

          k = 0.0556 0.0556 0.0553 ( 33154 PWs)   bands (ev):

   -64.9845 -64.9564 -64.9560 -64.9559 -64.9510 -64.9505 -64.9504 -64.9406
   -64.9406 -64.9405 -64.9383 -64.9380 -64.9377 -64.9377 -64.9376 -64.9375
   -64.9375 -64.9374 -64.9373 -64.9368 -64.9351 -64.9350 -64.9350 -64.9229
   -64.9226 -64.9224 -64.9223 -64.9222 -64.9221 -64.9218 -64.9216 -64.9210
   -30.8658 -30.8658 -30.8657 -30.8639 -30.8462 -30.8462 -30.8443 -30.7714
   -30.7680 -30.7680 -30.7672 -30.7672 -30.7638 -30.7638 -30.7635 -30.7635
   -30.7596 -30.7559 -30.7559 -30.7538 -30.7538 -30.7514 -30.7514 -30.7507
   -30.7506 -30.7358 -30.7358 -30.7328 -30.7328 -30.7324 -30.7323 -30.6937
   -30.6937 -30.6924 -30.6699 -30.6699 -30.6683 -30.6637 -30.6637 -30.6627
   -30.6548 -30.6548 -30.6543 -30.6543 -30.6532 -30.6532 -30.6408 -30.6408
   -30.6398 -30.6398 -30.6394 -30.6394 -30.6389 -30.6389 -30.6384 -30.6373
   -30.6370 -30.6359 -30.6356 -30.6353 -30.6343 -30.5759 -30.5759 -30.5732
   -30.5731 -30.5730 -30.5727 -30.5634 -30.5634 -30.5612 -30.5611 -30.5609
   -30.5609 -30.5592 -30.5591 -30.5570 -30.5553 -30.5546 -30.5546 -30.5541
   -30.5540 -30.5540 -30.5540 -30.5532 -30.5530 -30.5523 -30.5520 -30.5516
   -30.5514 -30.5506 -30.5471 -30.5471 -30.5451 -30.5016 -30.4993 -30.4992
    12.2021  13.9618  13.9620  13.9621  14.0274  14.0410  14.0411  14.0411
    14.2142  14.2312  14.2313  14.2349  14.2352  14.2352  14.4102  14.4267
    14.4268  14.9572  14.9573  14.9740  14.9741  14.9744  14.9745  15.1095
    15.1264  15.1265  15.2662  15.2672  15.2672  15.2923  15.3128  15.3129
    15.3476  15.3476  15.3488  15.3502  15.3502  15.3507  15.3507  15.3535
    15.3536  15.6846  15.6846  15.6949  15.6949  15.6984  15.6985  15.7881
    15.8046  15.8046  15.8090  15.8090  15.8259  15.8260  15.8281  15.8282
    15.8648  15.8839  15.8840  16.0365  16.0365  16.0482  16.0482  16.0530
    16.0531  16.1478  16.1479  16.1531  16.1532  16.1536  16.1537  16.1584
    16.1607  16.1608  16.2618  16.2619  16.2644  16.3049  16.3228  16.3228
    16.3255  16.3566  16.3604  16.3605  16.3680  16.3785  16.3978  16.4087
    17.1685  17.1937  17.1937  17.2425  17.2425  17.2531  17.3144  17.3145
    17.3159  17.3160  17.3215  17.3216  17.3243  17.3243  17.3295  17.3534
    17.3809  17.3810  17.4677  17.4678  17.4861  17.5905  17.5906  17.5956
    17.7104  17.7104  17.7272  17.7682  17.7683  17.7830  17.8433  17.8433
    17.8477  17.8477  17.8482  17.8483  17.8647  17.8647  17.8668  17.8883
    17.9151  17.9151  17.9159  17.9160  17.9286  17.9286  17.9352  18.0239
    18.0239  18.0369  18.4052  18.4053  18.4260  18.5071  18.5072  18.5250
    18.8895  18.8896  18.9034  19.0154  19.0154  19.0179  19.0334  19.0525
    19.0532  19.0682  19.0682  19.2884  19.2888  19.2888  19.3360  19.3360
    19.3372  19.3372  19.3463  19.3531  19.3531  19.3619  19.3619  20.0255
    20.3289  20.3289  20.3292  20.8286  20.8286  20.8567  21.3341  21.3341
    21.3358  21.3359  21.3687  21.3687  21.8608  21.8608  21.8995  22.4041
    22.4978  22.4978  26.1851  26.1852  26.1859  26.3422  27.3025  27.3025
    27.3455  27.3455  27.3889  27.3889  27.9934  27.9934  28.0339  28.0339
    28.0803  28.0804  29.4089  29.4089  29.4269  29.4270  29.4707  29.4707
    29.5061  29.6375  29.6375  30.5094  30.5809  30.5810  30.5962  30.5963
    30.6268  30.6268

          k = 0.0556 0.0556 0.1658 ( 33159 PWs)   bands (ev):

   -64.9836 -64.9617 -64.9555 -64.9554 -64.9501 -64.9500 -64.9457 -64.9435
   -64.9434 -64.9405 -64.9400 -64.9399 -64.9384 -64.9383 -64.9376 -64.9374
   -64.9371 -64.9368 -64.9350 -64.9348 -64.9347 -64.9327 -64.9326 -64.9238
   -64.9229 -64.9228 -64.9226 -64.9226 -64.9225 -64.9218 -64.9216 -64.9210
   -30.8632 -30.8614 -30.8614 -30.8583 -30.8430 -30.8430 -30.8396 -30.7822
   -30.7773 -30.7772 -30.7713 -30.7713 -30.7699 -30.7698 -30.7695 -30.7686
   -30.7686 -30.7573 -30.7572 -30.7544 -30.7544 -30.7501 -30.7501 -30.7461
   -30.7461 -30.7353 -30.7352 -30.7295 -30.7295 -30.7216 -30.7183 -30.7183
   -30.6983 -30.6983 -30.6845 -30.6845 -30.6695 -30.6695 -30.6687 -30.6687
   -30.6570 -30.6445 -30.6445 -30.6431 -30.6431 -30.6401 -30.6400 -30.6372
   -30.6369 -30.6353 -30.6351 -30.6339 -30.6337 -30.6337 -30.6336 -30.6335
   -30.6330 -30.6322 -30.6292 -30.6255 -30.6255 -30.5849 -30.5844 -30.5786
   -30.5786 -30.5705 -30.5705 -30.5666 -30.5666 -30.5661 -30.5660 -30.5632
   -30.5632 -30.5615 -30.5588 -30.5588 -30.5579 -30.5579 -30.5569 -30.5550
   -30.5529 -30.5527 -30.5522 -30.5520 -30.5514 -30.5512 -30.5512 -30.5495
   -30.5492 -30.5490 -30.5453 -30.5425 -30.5425 -30.5076 -30.5012 -30.5005
    12.2748  13.9163  13.9954  14.0076  14.0077  14.0550  14.0823  14.0823
    14.0955  14.2622  14.2772  14.2772  14.2817  14.2817  14.4778  14.4779
    14.4819  14.8730  14.8731  14.9347  15.0079  15.0080  15.0151  15.0152
    15.0353  15.1154  15.1154  15.1524  15.1525  15.1542  15.1612  15.1612
    15.3074  15.3075  15.3346  15.3346  15.3411  15.3411  15.3786  15.3786
    15.4230  15.4230  15.4778  15.6725  15.6725  15.7010  15.7011  15.7469
    15.7470  15.7561  15.7562  15.8127  15.8128  15.9004  15.9005  15.9018
    15.9458  15.9458  15.9911  16.0071  16.0071  16.0086  16.0088  16.0575
    16.0575  16.0959  16.0959  16.1286  16.1287  16.2656  16.2924  16.2925
    16.3093  16.3094  16.3137  16.3265  16.3296  16.3297  16.3752  16.3843
    16.3907  16.4048  16.4048  16.4215  16.4338  16.4338  16.4346  16.4408
    17.0072  17.0072  17.1032  17.1169  17.1417  17.1417  17.1950  17.1950
    17.2118  17.2613  17.2649  17.2649  17.3857  17.3961  17.3962  17.4087
    17.4088  17.4460  17.4460  17.4480  17.4480  17.6649  17.6650  17.6746
    17.6880  17.6881  17.7623  17.7624  17.8435  17.8435  17.8473  17.8473
    17.8481  17.8519  17.8520  17.9365  17.9385  17.9385  17.9510  17.9784
    18.0590  18.0590  18.0724  18.0724  18.0993  18.0994  18.1627  18.1707
    18.1708  18.2013  18.3304  18.4524  18.4525  18.5812  18.5813  18.5913
    18.6247  18.6369  18.6369  18.8532  18.9530  18.9530  18.9678  18.9952
    19.0265  19.0328  19.0328  19.0544  19.0544  19.2197  19.2657  19.2657
    19.2677  19.2677  19.2858  19.3590  19.3592  19.3618  19.3620  20.0181
    20.3688  20.3689  20.4999  20.5000  20.7290  20.8277  20.8497  20.8497
    21.3456  21.3456  21.8799  21.8969  21.8970  22.0449  22.4359  22.4360
    22.7825  22.7825  26.1829  26.3418  26.3419  26.5937  26.5938  26.6338
    26.6338  26.6365  27.1866  27.1866  27.5185  27.5186  28.2032  28.2033
    28.6717  28.6717  29.5173  29.5173  29.5584  29.6235  29.6235  29.7685
    29.7686  29.8320  29.8320  29.9576  30.0613  30.0613  30.1026  30.1027
    30.6104  30.6104

          k = 0.0556 0.0556 0.2764 ( 33165 PWs)   bands (ev):

   -64.9818 -64.9668 -64.9545 -64.9544 -64.9492 -64.9491 -64.9462 -64.9461
   -64.9423 -64.9422 -64.9406 -64.9404 -64.9388 -64.9383 -64.9376 -64.9374
   -64.9368 -64.9366 -64.9352 -64.9320 -64.9319 -64.9304 -64.9303 -64.9257
   -64.9239 -64.9238 -64.9235 -64.9234 -64.9226 -64.9218 -64.9216 -64.9210
   -30.8563 -30.8533 -30.8533 -30.8488 -30.8370 -30.8370 -30.8299 -30.7985
   -30.7931 -30.7930 -30.7880 -30.7880 -30.7852 -30.7711 -30.7711 -30.7693
   -30.7693 -30.7595 -30.7595 -30.7508 -30.7508 -30.7493 -30.7488 -30.7487
   -30.7364 -30.7364 -30.7343 -30.7343 -30.7237 -30.7237 -30.7064 -30.7064
   -30.7015 -30.7015 -30.6985 -30.6985 -30.6823 -30.6823 -30.6799 -30.6799
   -30.6511 -30.6511 -30.6395 -30.6369 -30.6366 -30.6351 -30.6349 -30.6297
   -30.6282 -30.6273 -30.6273 -30.6259 -30.6259 -30.6245 -30.6245 -30.6237
   -30.6237 -30.6148 -30.6118 -30.6117 -30.6043 -30.5962 -30.5955 -30.5838
   -30.5838 -30.5759 -30.5759 -30.5741 -30.5741 -30.5716 -30.5711 -30.5711
   -30.5669 -30.5669 -30.5659 -30.5658 -30.5611 -30.5565 -30.5536 -30.5530
   -30.5529 -30.5528 -30.5521 -30.5519 -30.5513 -30.5507 -30.5507 -30.5486
   -30.5457 -30.5404 -30.5404 -30.5381 -30.5376 -30.5186 -30.5053 -30.5043
    12.4183  13.5688  14.0602  14.0964  14.0965  14.1239  14.1641  14.1641
    14.1900  14.3162  14.3609  14.3609  14.3793  14.3793  14.4531  14.5767
    14.5768  14.7284  14.7285  14.7724  14.7897  14.8667  14.8667  14.9177
    15.0236  15.0236  15.0714  15.0715  15.0949  15.0950  15.0989  15.0989
    15.2040  15.2041  15.2068  15.2069  15.3227  15.3228  15.3771  15.3772
    15.4860  15.4861  15.6315  15.6315  15.6553  15.6553  15.6605  15.6842
    15.6842  15.7026  15.7027  15.7267  15.7268  15.8379  15.8380  15.9112
    15.9113  15.9487  15.9579  15.9579  16.0229  16.0229  16.0642  16.0643
    16.0685  16.0685  16.1153  16.1541  16.1542  16.2106  16.2370  16.2515
    16.2515  16.3092  16.3346  16.3347  16.4458  16.4751  16.4751  16.4963
    16.5005  16.5043  16.6410  16.6410  16.6599  16.7080  16.8049  16.8050
    16.8498  16.8498  16.8775  16.8775  16.9492  17.0219  17.0331  17.0331
    17.0495  17.0571  17.3208  17.3483  17.3483  17.4402  17.4402  17.5144
    17.5145  17.5307  17.5308  17.5875  17.5875  17.6179  17.6181  17.6778
    17.6780  17.7706  17.8255  17.8255  17.8289  17.8290  17.8522  17.8523
    17.8549  17.8550  17.9822  18.0486  18.1041  18.1041  18.1199  18.1199
    18.1373  18.2251  18.2320  18.2405  18.2659  18.2660  18.2697  18.2697
    18.3077  18.3077  18.3398  18.3494  18.3494  18.4321  18.5993  18.5994
    18.6512  18.6575  18.6575  18.7230  18.8109  18.8110  18.8598  18.8600
    18.8600  18.9454  18.9454  18.9462  18.9549  19.0872  19.1347  19.1347
    19.1369  19.1369  19.1743  19.3599  19.3602  19.3616  19.3619  19.9448
    19.9449  20.1913  20.3924  20.3924  20.7247  20.7248  20.7682  21.1002
    21.2964  21.2964  21.4403  21.8346  22.5267  22.5267  23.0717  23.0717
    23.2620  23.2620  25.7165  25.7165  25.9149  25.9149  26.2755  26.2755
    26.3495  26.6527  26.6527  27.0569  27.7643  27.7644  28.4385  28.4386
    28.6742  29.1768  29.1768  29.2206  29.2206  29.5348  29.5348  29.5957
    29.5957  29.6690  29.6691  29.7805  29.9461  29.9462  30.1075  30.1076
    30.1154  30.1155

          k = 0.0556 0.0556 0.3870 ( 33143 PWs)   bands (ev):

   -64.9791 -64.9714 -64.9530 -64.9529 -64.9488 -64.9487 -64.9480 -64.9479
   -64.9444 -64.9443 -64.9402 -64.9392 -64.9383 -64.9376 -64.9374 -64.9368
   -64.9363 -64.9360 -64.9353 -64.9295 -64.9294 -64.9283 -64.9282 -64.9282
   -64.9253 -64.9252 -64.9247 -64.9246 -64.9226 -64.9218 -64.9216 -64.9210
   -30.8458 -30.8417 -30.8417 -30.8360 -30.8282 -30.8282 -30.8158 -30.8154
   -30.8105 -30.8105 -30.8032 -30.8032 -30.8029 -30.7746 -30.7712 -30.7711
   -30.7664 -30.7664 -30.7648 -30.7647 -30.7557 -30.7556 -30.7387 -30.7387
   -30.7314 -30.7314 -30.7210 -30.7210 -30.7166 -30.7166 -30.7160 -30.7160
   -30.7113 -30.7113 -30.6951 -30.6950 -30.6928 -30.6928 -30.6859 -30.6859
   -30.6604 -30.6604 -30.6366 -30.6362 -30.6354 -30.6350 -30.6237 -30.6224
   -30.6202 -30.6129 -30.6128 -30.6127 -30.6127 -30.6117 -30.6117 -30.6099
   -30.6099 -30.6066 -30.6057 -30.5991 -30.5991 -30.5987 -30.5914 -30.5914
   -30.5869 -30.5868 -30.5866 -30.5866 -30.5852 -30.5785 -30.5785 -30.5784
   -30.5784 -30.5778 -30.5708 -30.5607 -30.5606 -30.5559 -30.5544 -30.5528
   -30.5523 -30.5522 -30.5521 -30.5519 -30.5513 -30.5477 -30.5477 -30.5476
   -30.5460 -30.5407 -30.5406 -30.5342 -30.5279 -30.5271 -30.5112 -30.5102
    12.6288  13.2193  14.1507  14.2234  14.2235  14.2334  14.2855  14.2855
    14.3226  14.3666  14.3960  14.4860  14.4860  14.5168  14.5169  14.5552
    14.5552  14.5691  14.6265  14.6401  14.6401  14.6916  14.7160  14.7161
    14.8564  14.8564  14.8583  14.8583  15.0562  15.0563  15.1537  15.1538
    15.2097  15.2098  15.2803  15.2803  15.2920  15.2921  15.4382  15.4382
    15.4848  15.4849  15.5003  15.5003  15.5992  15.5993  15.6346  15.6346
    15.6472  15.6472  15.6936  15.6937  15.7381  15.7382  15.8340  15.8814
    15.8815  15.9078  15.9078  16.0076  16.0700  16.0701  16.0707  16.0707
    16.0835  16.0835  16.1283  16.1450  16.1820  16.2005  16.2005  16.2579
    16.2580  16.2769  16.3871  16.3872  16.5322  16.5731  16.5731  16.5966
    16.5990  16.6006  16.6266  16.6267  16.6333  16.6334  16.7886  16.8287
    16.8287  16.8701  16.8770  16.8838  17.0527  17.0581  17.0582  17.0701
    17.2913  17.2913  17.4064  17.4113  17.4113  17.4342  17.4342  17.6076
    17.6077  17.6467  17.6468  17.6529  17.6530  17.6624  17.6666  17.6667
    17.7069  17.7070  17.7962  17.7963  17.8345  17.8346  17.8358  17.8359
    17.8395  17.8615  17.8615  17.8666  17.8666  17.9610  18.0280  18.0650
    18.0650  18.1588  18.2144  18.2144  18.3060  18.3060  18.3440  18.3820
    18.4656  18.4656  18.4770  18.5244  18.5291  18.5291  18.5495  18.5496
    18.7031  18.7031  18.7149  18.8159  18.8159  18.8194  18.8425  18.8559
    18.8584  18.8584  18.8989  18.9592  18.9592  18.9592  18.9592  19.0377
    19.1536  19.1537  19.2543  19.3602  19.3607  19.3613  19.3618  19.5504
    19.5504  19.9575  19.9576  20.3823  20.6755  20.7164  20.9312  20.9313
    21.2155  21.2155  21.3981  21.7512  23.2285  23.2286  23.7751  23.7751
    23.8537  23.8537  24.8370  24.8370  25.2023  25.2023  25.3853  25.3853
    26.6950  27.1111  27.1111  27.5930  27.8828  28.1112  28.1113  28.4140
    28.4140  28.7695  28.7696  28.9682  29.0195  29.0195  29.4057  29.4058
    29.5542  29.5542  29.6311  29.6313  30.0496  30.0496  30.0922  30.0922
    30.3157  30.3158

          k = 0.0556 0.0556-0.4975 ( 33164 PWs)   bands (ev):

   -64.9760 -64.9752 -64.9515 -64.9514 -64.9507 -64.9506 -64.9467 -64.9467
   -64.9460 -64.9459 -64.9401 -64.9393 -64.9383 -64.9376 -64.9374 -64.9368
   -64.9362 -64.9354 -64.9322 -64.9314 -64.9276 -64.9275 -64.9268 -64.9267
   -64.9267 -64.9266 -64.9259 -64.9259 -64.9226 -64.9218 -64.9216 -64.9210
   -30.8322 -30.8318 -30.8277 -30.8273 -30.8269 -30.8266 -30.8206 -30.8202
   -30.8172 -30.8172 -30.8164 -30.8164 -30.7972 -30.7964 -30.7691 -30.7691
   -30.7688 -30.7687 -30.7618 -30.7617 -30.7616 -30.7615 -30.7280 -30.7280
   -30.7276 -30.7275 -30.7229 -30.7229 -30.7222 -30.7222 -30.7071 -30.7071
   -30.7068 -30.7067 -30.7067 -30.7067 -30.7060 -30.7060 -30.6724 -30.6724
   -30.6717 -30.6717 -30.6365 -30.6359 -30.6356 -30.6351 -30.6163 -30.6155
   -30.6151 -30.6143 -30.6018 -30.6016 -30.6016 -30.6015 -30.6009 -30.6008
   -30.5999 -30.5999 -30.5995 -30.5995 -30.5993 -30.5993 -30.5990 -30.5990
   -30.5936 -30.5933 -30.5928 -30.5926 -30.5882 -30.5882 -30.5875 -30.5875
   -30.5838 -30.5835 -30.5561 -30.5560 -30.5557 -30.5557 -30.5556 -30.5548
   -30.5545 -30.5538 -30.5528 -30.5521 -30.5519 -30.5512 -30.5473 -30.5465
   -30.5434 -30.5434 -30.5431 -30.5431 -30.5192 -30.5184 -30.5183 -30.5176
    12.8991  12.9001  14.2574  14.2583  14.3799  14.3803  14.3808  14.3813
    14.3824  14.3825  14.4446  14.4446  14.4454  14.4455  14.4910  14.4911
    14.4997  14.5006  14.6512  14.6512  14.6521  14.6521  14.6819  14.6820
    14.6827  14.6827  14.8825  14.8826  14.8833  14.8834  15.2347  15.2348
    15.2351  15.2351  15.3506  15.3507  15.3514  15.3514  15.3795  15.3796
    15.3802  15.3803  15.5138  15.5138  15.5145  15.5145  15.6624  15.6624
    15.6626  15.6626  15.6688  15.6689  15.6689  15.6690  15.8800  15.8801
    15.8801  15.8802  15.9918  15.9925  16.0725  16.0726  16.0732  16.0732
    16.0748  16.0753  16.1424  16.1430  16.1431  16.1436  16.2334  16.2339
    16.4229  16.4230  16.4230  16.4231  16.4848  16.4849  16.4850  16.4851
    16.6475  16.6478  16.6960  16.6962  16.6968  16.6971  16.7210  16.7218
    16.7233  16.7241  16.7313  16.7316  17.4283  17.4283  17.4288  17.4288
    17.4470  17.4470  17.4473  17.4473  17.4508  17.4511  17.4937  17.4940
    17.5341  17.5348  17.6487  17.6488  17.6493  17.6494  17.7365  17.7366
    17.7372  17.7373  17.7484  17.7486  17.7491  17.7492  17.7504  17.7504
    17.7508  17.7508  17.7898  17.7898  17.7904  17.7905  17.9640  17.9640
    17.9646  17.9646  18.0870  18.0878  18.5129  18.5134  18.5135  18.5140
    18.5399  18.5401  18.6524  18.6526  18.6531  18.6532  18.6625  18.6632
    18.6954  18.6957  18.6960  18.6962  18.7508  18.7509  18.7514  18.7514
    18.7578  18.7578  18.7583  18.7583  18.9184  18.9187  19.1850  19.1851
    19.1851  19.1852  19.3602  19.3609  19.3611  19.3618  19.5429  19.5429
    19.5430  19.5431  19.9646  19.9652  20.5465  20.5473  21.0952  21.0953
    21.0960  21.0960  21.6115  21.6123  24.0013  24.0013  24.0016  24.0016
    24.5091  24.5091  24.5098  24.5098  24.5476  24.5476  24.5479  24.5479
    27.2132  27.2133  27.7037  27.7039  27.7044  27.7045  28.2342  28.2343
    28.5368  28.5369  28.5376  28.5376  29.1745  29.1746  29.1753  29.1754
    29.4960  29.4965  29.4967  29.4971  30.2645  30.2646  30.2654  30.2654
    30.5465  30.5472

          k = 0.0556 0.1667 0.0553 ( 33153 PWs)   bands (ev):

   -64.9836 -64.9613 -64.9559 -64.9554 -64.9506 -64.9500 -64.9450 -64.9435
   -64.9434 -64.9405 -64.9401 -64.9401 -64.9384 -64.9377 -64.9376 -64.9375
   -64.9373 -64.9370 -64.9351 -64.9345 -64.9345 -64.9326 -64.9325 -64.9232
   -64.9229 -64.9228 -64.9226 -64.9224 -64.9223 -64.9221 -64.9221 -64.9214
   -30.8631 -30.8614 -30.8613 -30.8582 -30.8429 -30.8413 -30.8410 -30.7796
   -30.7746 -30.7742 -30.7731 -30.7721 -30.7702 -30.7693 -30.7691 -30.7684
   -30.7664 -30.7605 -30.7571 -30.7567 -30.7552 -30.7525 -30.7496 -30.7496
   -30.7458 -30.7382 -30.7358 -30.7324 -30.7290 -30.7231 -30.7149 -30.7146
   -30.6987 -30.6970 -30.6850 -30.6833 -30.6700 -30.6697 -30.6686 -30.6677
   -30.6577 -30.6441 -30.6437 -30.6423 -30.6397 -30.6396 -30.6391 -30.6386
   -30.6382 -30.6382 -30.6373 -30.6339 -30.6339 -30.6338 -30.6337 -30.6328
   -30.6319 -30.6315 -30.6300 -30.6249 -30.6239 -30.5882 -30.5850 -30.5759
   -30.5757 -30.5727 -30.5702 -30.5665 -30.5644 -30.5638 -30.5636 -30.5631
   -30.5614 -30.5598 -30.5598 -30.5590 -30.5583 -30.5578 -30.5567 -30.5544
   -30.5543 -30.5541 -30.5540 -30.5538 -30.5527 -30.5513 -30.5512 -30.5509
   -30.5496 -30.5493 -30.5472 -30.5425 -30.5408 -30.5079 -30.5013 -30.5006
    12.2755  13.9320  13.9964  14.0082  14.0083  14.0552  14.0823  14.0825
    14.0958  14.2630  14.2659  14.2768  14.2770  14.2823  14.4625  14.4786
    14.4965  14.8879  14.8887  14.9482  14.9928  14.9991  15.0087  15.0154
    15.0375  15.1186  15.1188  15.1360  15.1517  15.1584  15.1618  15.1630
    15.3087  15.3092  15.3147  15.3338  15.3361  15.3421  15.3701  15.3813
    15.4191  15.4231  15.5021  15.6803  15.6848  15.6875  15.6981  15.7321
    15.7416  15.7434  15.7535  15.7987  15.8168  15.8887  15.9007  15.9172
    15.9611  15.9660  16.0046  16.0109  16.0153  16.0167  16.0214  16.0410
    16.0533  16.0926  16.0994  16.1209  16.1257  16.2895  16.2926  16.3027
    16.3032  16.3214  16.3240  16.3242  16.3400  16.3484  16.3688  16.3726
    16.3768  16.3786  16.3937  16.4006  16.4075  16.4209  16.4391  16.4402
    16.9834  16.9968  17.1014  17.1157  17.1178  17.1339  17.1812  17.1814
    17.1993  17.2422  17.2682  17.2783  17.3896  17.3972  17.4063  17.4125
    17.4177  17.4510  17.4566  17.4601  17.4717  17.6673  17.6806  17.6955
    17.6978  17.7081  17.7638  17.7640  17.8402  17.8442  17.8495  17.8499
    17.8540  17.8603  17.8740  17.9255  17.9271  17.9431  17.9444  17.9635
    18.0583  18.0613  18.0637  18.0647  18.0993  18.1095  18.1546  18.1713
    18.1822  18.2114  18.3067  18.4509  18.4689  18.5802  18.5810  18.5938
    18.6099  18.6272  18.6402  18.8431  18.9555  18.9566  18.9814  18.9919
    19.0303  19.0405  19.0456  19.0561  19.0758  19.2202  19.2668  19.2671
    19.2893  19.2902  19.2910  19.3322  19.3348  19.3383  19.3426  20.0115
    20.3681  20.3909  20.4948  20.4950  20.7251  20.8004  20.8472  20.8771
    21.3122  21.3139  21.8428  21.9017  21.9384  22.1345  22.4389  22.4808
    22.6967  22.7873  26.1849  26.3444  26.3464  26.5872  26.6374  26.6401
    26.6727  26.6776  27.2276  27.2688  27.4353  27.4788  28.1168  28.1591
    28.6320  28.7143  29.4441  29.4913  29.4936  29.6225  29.6230  29.6855
    29.7781  29.7789  29.8537  29.9851  30.0568  30.0929  30.1620  30.1661
    30.5316  30.6564

          k = 0.0556 0.1667 0.1658 ( 33156 PWs)   bands (ev):

   -64.9827 -64.9611 -64.9607 -64.9549 -64.9496 -64.9469 -64.9453 -64.9447
   -64.9433 -64.9433 -64.9400 -64.9399 -64.9393 -64.9379 -64.9368 -64.9367
   -64.9366 -64.9364 -64.9348 -64.9346 -64.9328 -64.9328 -64.9306 -64.9238
   -64.9233 -64.9232 -64.9231 -64.9230 -64.9225 -64.9223 -64.9221 -64.9214
   -30.8604 -30.8603 -30.8558 -30.8511 -30.8399 -30.8383 -30.8367 -30.7846
   -30.7823 -30.7822 -30.7795 -30.7728 -30.7702 -30.7699 -30.7691 -30.7688
   -30.7673 -30.7669 -30.7660 -30.7652 -30.7591 -30.7585 -30.7581 -30.7561
   -30.7328 -30.7269 -30.7266 -30.7262 -30.7248 -30.7230 -30.7200 -30.7154
   -30.7121 -30.7036 -30.7000 -30.6762 -30.6711 -30.6706 -30.6573 -30.6568
   -30.6545 -30.6530 -30.6489 -30.6423 -30.6410 -30.6402 -30.6375 -30.6341
   -30.6337 -30.6333 -30.6333 -30.6322 -30.6318 -30.6310 -30.6307 -30.6294
   -30.6289 -30.6285 -30.6166 -30.6157 -30.6111 -30.5910 -30.5876 -30.5827
   -30.5823 -30.5753 -30.5727 -30.5720 -30.5662 -30.5662 -30.5656 -30.5640
   -30.5630 -30.5621 -30.5620 -30.5618 -30.5610 -30.5602 -30.5571 -30.5557
   -30.5550 -30.5549 -30.5537 -30.5528 -30.5517 -30.5514 -30.5498 -30.5497
   -30.5457 -30.5456 -30.5429 -30.5412 -30.5362 -30.5155 -30.5032 -30.5003
    12.3472  13.9692  13.9837  14.0420  14.0422  14.0493  14.0677  14.1088
    14.1484  14.1486  14.3039  14.3045  14.3218  14.3222  14.5160  14.5345
    14.5480  14.8967  14.9090  14.9157  14.9305  14.9492  14.9497  14.9649
    14.9781  14.9910  15.0485  15.0488  15.0616  15.0631  15.1864  15.1893
    15.1906  15.1951  15.1991  15.2512  15.3655  15.3892  15.3905  15.3928
    15.3948  15.4223  15.4246  15.4961  15.5194  15.6488  15.6588  15.7394
    15.7413  15.7517  15.8362  15.8449  15.8509  15.8578  15.9142  15.9210
    15.9273  15.9774  15.9869  15.9977  16.0046  16.0442  16.0565  16.1524
    16.1963  16.2008  16.2256  16.2378  16.2503  16.2515  16.3034  16.3097
    16.3550  16.3558  16.3572  16.3603  16.3610  16.3675  16.3784  16.3949
    16.4182  16.4282  16.4288  16.4340  16.4341  16.4536  16.4662  16.4689
    16.9034  16.9465  16.9658  17.0123  17.1028  17.1219  17.2131  17.2244
    17.2321  17.2484  17.2514  17.2921  17.3045  17.3151  17.3281  17.3675
    17.3688  17.3894  17.4594  17.5279  17.5409  17.5436  17.5584  17.5614
    17.5785  17.8387  17.8395  17.8444  17.8517  17.8611  17.9264  17.9310
    17.9337  17.9396  17.9470  17.9526  17.9549  17.9553  18.0337  18.0402
    18.0602  18.0615  18.2381  18.2457  18.2782  18.2901  18.2978  18.2989
    18.3368  18.3392  18.3444  18.3564  18.3983  18.4030  18.4301  18.4677
    18.5908  18.6989  18.7508  18.7561  18.8813  18.8872  18.8906  18.9040
    19.0054  19.0278  19.0293  19.0411  19.0475  19.0643  19.2090  19.2101
    19.2640  19.2697  19.2843  19.2885  19.2913  19.2985  19.3093  19.7346
    19.9408  20.3378  20.3593  20.3965  20.8265  20.8530  21.0201  21.0216
    21.3899  21.3956  21.8849  21.9249  22.3364  22.4175  22.4247  22.4676
    23.0188  23.0438  25.9698  26.0156  26.1811  26.1834  26.6430  26.6841
    26.7614  26.7704  26.8067  27.0437  27.3159  27.3939  27.7522  27.7922
    28.7991  28.8433  29.0390  29.1066  29.4984  29.5782  29.6040  29.6458
    29.7358  29.7405  29.9227  29.9495  29.9628  30.0826  30.3899  30.4244
    30.6753  30.7526

          k = 0.0556 0.1667 0.2764 ( 33169 PWs)   bands (ev):

   -64.9808 -64.9661 -64.9596 -64.9539 -64.9501 -64.9488 -64.9459 -64.9440
   -64.9430 -64.9421 -64.9404 -64.9402 -64.9399 -64.9384 -64.9383 -64.9362
   -64.9357 -64.9347 -64.9336 -64.9331 -64.9321 -64.9306 -64.9287 -64.9256
   -64.9242 -64.9241 -64.9239 -64.9232 -64.9231 -64.9224 -64.9221 -64.9214
   -30.8550 -30.8538 -30.8466 -30.8404 -30.8338 -30.8329 -30.8276 -30.8012
   -30.7979 -30.7879 -30.7853 -30.7850 -30.7824 -30.7820 -30.7746 -30.7726
   -30.7711 -30.7664 -30.7659 -30.7641 -30.7626 -30.7610 -30.7579 -30.7510
   -30.7439 -30.7319 -30.7280 -30.7217 -30.7179 -30.7169 -30.7141 -30.7123
   -30.7074 -30.7067 -30.6987 -30.6871 -30.6838 -30.6706 -30.6663 -30.6571
   -30.6532 -30.6517 -30.6489 -30.6402 -30.6399 -30.6332 -30.6332 -30.6325
   -30.6317 -30.6305 -30.6277 -30.6252 -30.6231 -30.6206 -30.6203 -30.6179
   -30.6155 -30.6126 -30.6039 -30.6027 -30.5990 -30.5978 -30.5964 -30.5939
   -30.5799 -30.5798 -30.5787 -30.5780 -30.5752 -30.5751 -30.5743 -30.5736
   -30.5678 -30.5667 -30.5633 -30.5631 -30.5627 -30.5607 -30.5585 -30.5571
   -30.5570 -30.5566 -30.5549 -30.5535 -30.5512 -30.5502 -30.5478 -30.5419
   -30.5410 -30.5406 -30.5404 -30.5341 -30.5322 -30.5277 -30.5073 -30.5026
    12.4889  13.6249  14.0843  14.1073  14.1205  14.1296  14.1315  14.1748
    14.2398  14.2520  14.3570  14.3874  14.3976  14.4110  14.5048  14.5863
    14.6479  14.7194  14.7406  14.7692  14.8008  14.8058  14.8181  14.8504
    14.9466  14.9522  14.9749  14.9871  15.0125  15.0377  15.1098  15.1158
    15.1273  15.1401  15.1711  15.2206  15.2655  15.2820  15.3088  15.4150
    15.4291  15.4316  15.4779  15.5521  15.5833  15.5950  15.6084  15.6745
    15.7004  15.7105  15.7317  15.7438  15.7887  15.8516  15.8551  15.8999
    15.9119  15.9256  16.0162  16.0538  16.0917  16.1080  16.1499  16.1656
    16.1734  16.1810  16.1882  16.2287  16.2360  16.2717  16.2717  16.3153
    16.3454  16.3473  16.4202  16.4517  16.4682  16.4905  16.4932  16.4988
    16.5276  16.5397  16.5530  16.5537  16.5640  16.6670  16.7569  16.7774
    16.8129  16.8177  16.8334  16.9219  16.9542  17.0508  17.0580  17.0753
    17.1445  17.1505  17.1620  17.2196  17.2310  17.3052  17.3098  17.4202
    17.4290  17.4543  17.4624  17.5089  17.5606  17.6418  17.6893  17.6999
    17.7141  17.7736  17.8064  17.8207  17.8487  17.9011  17.9278  17.9648
    17.9666  18.0199  18.0203  18.0553  18.0631  18.0739  18.0795  18.0837
    18.0980  18.1233  18.2062  18.2536  18.2610  18.2895  18.3248  18.3849
    18.3941  18.4191  18.4271  18.4295  18.4332  18.4525  18.4624  18.5427
    18.5553  18.5755  18.6715  18.7523  18.7799  18.8026  18.8799  18.8934
    18.9653  18.9997  19.0058  19.0080  19.0823  19.1021  19.1039  19.1145
    19.1339  19.1402  19.1799  19.2879  19.2923  19.2966  19.2977  19.5550
    19.7706  19.9131  20.2956  20.3698  20.4273  20.8042  20.9111  21.3124
    21.5078  21.7363  21.8924  22.0057  22.4302  22.5280  22.8864  23.0698
    23.4889  23.6524  25.1419  25.3732  25.7861  26.0617  26.1823  26.3005
    26.3499  26.8125  27.0650  27.0677  27.0837  27.5450  27.6035  28.1602
    28.3199  28.6142  28.6915  28.9364  29.0736  29.1521  29.3581  29.5593
    29.7397  29.8006  29.8405  30.0607  30.1080  30.3320  30.3717  30.4552
    30.6766  30.7405

          k = 0.0556 0.1667 0.3870 ( 33163 PWs)   bands (ev):

   -64.9782 -64.9707 -64.9579 -64.9530 -64.9525 -64.9484 -64.9476 -64.9441
   -64.9430 -64.9425 -64.9410 -64.9401 -64.9397 -64.9387 -64.9359 -64.9357
   -64.9350 -64.9349 -64.9335 -64.9307 -64.9297 -64.9285 -64.9282 -64.9270
   -64.9258 -64.9256 -64.9251 -64.9241 -64.9232 -64.9224 -64.9221 -64.9214
   -30.8460 -30.8436 -30.8341 -30.8266 -30.8251 -30.8248 -30.8181 -30.8146
   -30.8138 -30.8022 -30.8020 -30.8004 -30.7923 -30.7818 -30.7802 -30.7751
   -30.7750 -30.7745 -30.7736 -30.7703 -30.7612 -30.7576 -30.7545 -30.7470
   -30.7392 -30.7348 -30.7300 -30.7265 -30.7233 -30.7149 -30.7065 -30.7017
   -30.7006 -30.6991 -30.6955 -30.6926 -30.6834 -30.6833 -30.6786 -30.6684
   -30.6673 -30.6581 -30.6332 -30.6325 -30.6312 -30.6307 -30.6301 -30.6270
   -30.6264 -30.6218 -30.6217 -30.6139 -30.6115 -30.6100 -30.6096 -30.6094
   -30.6059 -30.6046 -30.6043 -30.6001 -30.5932 -30.5923 -30.5890 -30.5884
   -30.5880 -30.5876 -30.5870 -30.5867 -30.5858 -30.5856 -30.5855 -30.5740
   -30.5734 -30.5728 -30.5656 -30.5652 -30.5643 -30.5621 -30.5621 -30.5601
   -30.5589 -30.5581 -30.5531 -30.5524 -30.5507 -30.5492 -30.5460 -30.5439
   -30.5429 -30.5416 -30.5355 -30.5309 -30.5301 -30.5236 -30.5132 -30.5075
    12.6968  13.2797  14.1986  14.2132  14.2277  14.2460  14.2593  14.2800
    14.3683  14.3908  14.4168  14.4356  14.5001  14.5111  14.5151  14.5420
    14.5634  14.5939  14.6003  14.6036  14.6624  14.6804  14.7280  14.7382
    14.7594  14.7899  14.8769  14.8925  14.9120  14.9939  15.1039  15.1274
    15.1314  15.1433  15.1843  15.2406  15.2440  15.3682  15.3815  15.4026
    15.4298  15.4464  15.5034  15.5243  15.5381  15.5446  15.5472  15.5532
    15.5965  15.6339  15.6945  15.7218  15.7293  15.7915  15.8438  15.8861
    15.9103  15.9600  16.0672  16.0726  16.1024  16.1305  16.1393  16.1444
    16.1489  16.1627  16.2148  16.2340  16.2564  16.2660  16.2680  16.3014
    16.3272  16.3896  16.3959  16.5323  16.5352  16.5854  16.5943  16.6069
    16.6104  16.6136  16.6512  16.6686  16.6869  16.7458  16.7518  16.7551
    16.8368  16.8419  16.8731  16.9374  16.9678  16.9972  17.0335  17.0576
    17.1993  17.2051  17.2201  17.2420  17.2615  17.2718  17.3697  17.4546
    17.4632  17.4842  17.5501  17.5979  17.6439  17.6712  17.6721  17.6742
    17.6830  17.7071  17.7489  17.7794  17.8173  17.8392  17.8502  17.8608
    17.9065  17.9117  17.9607  18.0148  18.0155  18.0665  18.0963  18.1076
    18.1395  18.1432  18.1612  18.2773  18.2975  18.3020  18.3270  18.3336
    18.4506  18.4835  18.5231  18.5577  18.5886  18.6152  18.6155  18.6239
    18.6255  18.6326  18.6566  18.7166  18.7223  18.8239  18.8260  18.8512
    18.8725  18.9125  18.9167  18.9603  18.9614  18.9624  18.9639  19.0574
    19.1307  19.2044  19.2878  19.2910  19.2934  19.2961  19.5189  19.5389
    19.6328  19.9205  19.9363  20.1996  20.4415  20.5245  20.7306  21.0275
    21.5511  21.8298  21.9043  22.3459  22.6978  23.2455  23.4556  23.7843
    24.0517  24.2855  24.3484  24.7220  24.8882  25.3618  25.4155  25.9380
    26.3775  26.6999  27.3516  27.3948  27.4374  27.6075  27.8970  27.9011
    28.1359  28.1498  28.3909  28.6901  28.8105  28.9870  29.3922  29.4596
    29.5585  29.7561  29.7860  29.9378  30.0211  30.2142  30.2300  30.2563
    30.3358  30.6217

          k = 0.0556 0.1667-0.4975 ( 33164 PWs)   bands (ev):

   -64.9752 -64.9744 -64.9560 -64.9553 -64.9510 -64.9503 -64.9464 -64.9456
   -64.9422 -64.9421 -64.9414 -64.9413 -64.9396 -64.9388 -64.9357 -64.9350
   -64.9346 -64.9338 -64.9320 -64.9313 -64.9284 -64.9278 -64.9277 -64.9271
   -64.9270 -64.9263 -64.9258 -64.9250 -64.9232 -64.9224 -64.9221 -64.9214
   -30.8336 -30.8333 -30.8305 -30.8301 -30.8192 -30.8188 -30.8148 -30.8142
   -30.8140 -30.8135 -30.8104 -30.8100 -30.7966 -30.7959 -30.7789 -30.7788
   -30.7760 -30.7760 -30.7759 -30.7755 -30.7568 -30.7566 -30.7472 -30.7468
   -30.7354 -30.7351 -30.7350 -30.7347 -30.7155 -30.7151 -30.7063 -30.7058
   -30.6955 -30.6950 -30.6901 -30.6893 -30.6851 -30.6848 -30.6794 -30.6789
   -30.6700 -30.6693 -30.6332 -30.6325 -30.6304 -30.6299 -30.6194 -30.6186
   -30.6148 -30.6143 -30.6140 -30.6135 -30.6113 -30.6110 -30.6040 -30.6037
   -30.6013 -30.6008 -30.5998 -30.5996 -30.5982 -30.5978 -30.5977 -30.5974
   -30.5958 -30.5951 -30.5856 -30.5852 -30.5824 -30.5816 -30.5754 -30.5751
   -30.5751 -30.5744 -30.5694 -30.5690 -30.5641 -30.5637 -30.5610 -30.5603
   -30.5596 -30.5588 -30.5571 -30.5567 -30.5519 -30.5511 -30.5446 -30.5446
   -30.5443 -30.5439 -30.5323 -30.5320 -30.5213 -30.5205 -30.5148 -30.5144
    12.9636  12.9646  14.3064  14.3072  14.3452  14.3453  14.3930  14.3937
    14.4037  14.4045  14.4171  14.4180  14.4234  14.4235  14.5319  14.5319
    14.5377  14.5385  14.5616  14.5617  14.6177  14.6183  14.6744  14.6753
    14.7106  14.7113  14.7864  14.7869  14.9613  14.9620  15.0461  15.0463
    15.2386  15.2387  15.2481  15.2487  15.2798  15.2806  15.3819  15.3827
    15.4560  15.4561  15.4854  15.4862  15.5361  15.5365  15.5585  15.5588
    15.6055  15.6056  15.6462  15.6468  15.6483  15.6488  15.9842  15.9848
    15.9976  15.9982  16.0148  16.0154  16.0290  16.0296  16.1011  16.1013
    16.1905  16.1911  16.2154  16.2158  16.2979  16.2984  16.3571  16.3577
    16.4219  16.4220  16.4624  16.4625  16.4798  16.4800  16.5946  16.5947
    16.6388  16.6390  16.6987  16.6990  16.7168  16.7176  16.7234  16.7243
    16.7809  16.7812  16.8067  16.8070  17.2285  17.2290  17.2376  17.2382
    17.3057  17.3058  17.3182  17.3184  17.3433  17.3436  17.3911  17.3913
    17.4201  17.4206  17.5556  17.5562  17.5737  17.5743  17.6528  17.6531
    17.6626  17.6632  17.7029  17.7032  17.7056  17.7062  17.7739  17.7746
    17.8818  17.8825  17.9211  17.9217  17.9919  17.9926  18.0806  18.0814
    18.1884  18.1891  18.2379  18.2385  18.3095  18.3100  18.4757  18.4764
    18.5169  18.5170  18.5337  18.5343  18.6732  18.6735  18.6920  18.6921
    18.7514  18.7520  18.7753  18.7757  18.7821  18.7822  18.7869  18.7871
    18.7953  18.7957  18.7974  18.7978  18.8899  18.8901  18.9415  18.9417
    19.1533  19.1535  19.2883  19.2890  19.2942  19.2950  19.5224  19.5225
    19.9837  19.9839  20.0720  20.0727  20.3034  20.3040  20.6339  20.6346
    21.7211  21.7218  22.1808  22.1815  23.4619  23.4623  24.0350  24.0354
    24.0764  24.0770  24.5682  24.5685  24.6852  24.6858  25.1108  25.1110
    26.7870  26.7871  27.2232  27.2233  27.7232  27.7239  27.8834  27.8841
    28.2513  28.2514  28.2683  28.2691  28.8097  28.8098  29.2209  29.2211
    29.7793  29.7801  29.9272  29.9278  29.9428  29.9433  30.0618  30.0627
    30.6952  30.6956

          k = 0.0556 0.2778 0.0553 ( 33147 PWs)   bands (ev):

   -64.9817 -64.9665 -64.9548 -64.9544 -64.9497 -64.9492 -64.9464 -64.9462
   -64.9425 -64.9423 -64.9403 -64.9399 -64.9389 -64.9377 -64.9376 -64.9375
   -64.9373 -64.9366 -64.9353 -64.9318 -64.9317 -64.9303 -64.9301 -64.9248
   -64.9237 -64.9236 -64.9233 -64.9231 -64.9228 -64.9225 -64.9220 -64.9216
   -30.8561 -30.8531 -30.8530 -30.8485 -30.8367 -30.8352 -30.8314 -30.7966
   -30.7911 -30.7908 -30.7864 -30.7853 -30.7828 -30.7744 -30.7722 -30.7720
   -30.7699 -30.7620 -30.7609 -30.7529 -30.7518 -30.7509 -30.7508 -30.7480
   -30.7388 -30.7375 -30.7365 -30.7338 -30.7265 -30.7233 -30.7073 -30.7051
   -30.6995 -30.6976 -30.6976 -30.6975 -30.6838 -30.6815 -30.6810 -30.6790
   -30.6476 -30.6463 -30.6397 -30.6395 -30.6386 -30.6374 -30.6344 -30.6342
   -30.6296 -30.6275 -30.6272 -30.6245 -30.6242 -30.6238 -30.6231 -30.6225
   -30.6222 -30.6147 -30.6108 -30.6100 -30.6052 -30.5999 -30.5963 -30.5812
   -30.5810 -30.5757 -30.5739 -30.5737 -30.5725 -30.5698 -30.5689 -30.5688
   -30.5674 -30.5657 -30.5656 -30.5651 -30.5595 -30.5587 -30.5556 -30.5543
   -30.5541 -30.5540 -30.5539 -30.5534 -30.5527 -30.5507 -30.5504 -30.5495
   -30.5476 -30.5404 -30.5395 -30.5390 -30.5380 -30.5190 -30.5055 -30.5044
    12.4205  13.5818  14.0624  14.0984  14.0985  14.1243  14.1644  14.1647
    14.1906  14.3180  14.3598  14.3610  14.3659  14.3811  14.4650  14.5638
    14.5788  14.7404  14.7413  14.7828  14.7918  14.8695  14.8695  14.9211
    15.0236  15.0279  15.0598  15.0727  15.0811  15.0923  15.0960  15.1010
    15.1886  15.2018  15.2083  15.2117  15.3191  15.3257  15.3587  15.3748
    15.4827  15.4889  15.6211  15.6261  15.6587  15.6654  15.6721  15.6781
    15.6885  15.6901  15.7008  15.7235  15.7261  15.8322  15.8399  15.9057
    15.9074  15.9636  15.9643  15.9679  16.0360  16.0429  16.0477  16.0572
    16.0610  16.0661  16.1362  16.1387  16.1418  16.2371  16.2591  16.2754
    16.2835  16.3200  16.3208  16.3345  16.4194  16.4415  16.4620  16.4666
    16.4680  16.5022  16.6337  16.6405  16.6539  16.7037  16.7816  16.7897
    16.8365  16.8550  16.8582  16.8655  16.9295  17.0052  17.0147  17.0151
    17.0325  17.0421  17.3472  17.3573  17.3647  17.4551  17.4631  17.5203
    17.5264  17.5371  17.5403  17.5952  17.5987  17.6235  17.6330  17.6874
    17.6972  17.8032  17.8285  17.8299  17.8319  17.8368  17.8531  17.8569
    17.8625  17.8627  17.9507  18.0596  18.1091  18.1107  18.1251  18.1256
    18.1329  18.2143  18.2162  18.2192  18.2602  18.2612  18.2641  18.2691
    18.3098  18.3151  18.3369  18.3520  18.3588  18.4258  18.5971  18.6075
    18.6543  18.6779  18.6826  18.7117  18.8133  18.8145  18.8627  18.8627
    18.8709  18.9414  18.9479  18.9594  18.9671  19.0878  19.1367  19.1368
    19.1545  19.1560  19.1761  19.3303  19.3335  19.3392  19.3418  19.9439
    19.9611  20.1787  20.3896  20.4146  20.7130  20.7141  20.7425  21.0908
    21.2652  21.2671  21.5229  21.8006  22.5361  22.5755  23.0792  23.1231
    23.1857  23.2732  25.7549  25.7948  25.8640  25.9490  26.3117  26.3546
    26.3577  26.6608  26.6640  27.0663  27.6806  27.7286  28.3533  28.3991
    28.7266  29.1405  29.1681  29.2683  29.2725  29.4579  29.4693  29.5249
    29.5939  29.6334  29.6540  29.8275  29.8388  29.9441  30.0118  30.0357
    30.1021  30.1046

          k = 0.0556 0.2778 0.1658 ( 33158 PWs)   bands (ev):

   -64.9808 -64.9658 -64.9599 -64.9539 -64.9502 -64.9488 -64.9460 -64.9446
   -64.9429 -64.9422 -64.9403 -64.9397 -64.9396 -64.9388 -64.9384 -64.9362
   -64.9357 -64.9349 -64.9332 -64.9331 -64.9320 -64.9306 -64.9286 -64.9248
   -64.9241 -64.9240 -64.9237 -64.9235 -64.9231 -64.9229 -64.9223 -64.9217
   -30.8550 -30.8536 -30.8465 -30.8402 -30.8337 -30.8310 -30.8290 -30.7995
   -30.7958 -30.7855 -30.7846 -30.7844 -30.7837 -30.7831 -30.7750 -30.7724
   -30.7723 -30.7674 -30.7662 -30.7643 -30.7641 -30.7604 -30.7600 -30.7526
   -30.7466 -30.7305 -30.7302 -30.7221 -30.7176 -30.7167 -30.7146 -30.7128
   -30.7099 -30.7044 -30.6950 -30.6877 -30.6836 -30.6703 -30.6682 -30.6560
   -30.6526 -30.6515 -30.6440 -30.6400 -30.6379 -30.6379 -30.6334 -30.6331
   -30.6330 -30.6320 -30.6289 -30.6241 -30.6215 -30.6206 -30.6193 -30.6163
   -30.6159 -30.6134 -30.6028 -30.6028 -30.6028 -30.5974 -30.5945 -30.5931
   -30.5795 -30.5784 -30.5777 -30.5768 -30.5746 -30.5741 -30.5730 -30.5719
   -30.5692 -30.5654 -30.5651 -30.5628 -30.5625 -30.5615 -30.5586 -30.5574
   -30.5568 -30.5560 -30.5554 -30.5550 -30.5518 -30.5500 -30.5496 -30.5436
   -30.5420 -30.5404 -30.5397 -30.5342 -30.5321 -30.5278 -30.5075 -30.5026
    12.4904  13.6370  14.0719  14.1088  14.1207  14.1308  14.1328  14.1752
    14.2400  14.2525  14.3587  14.3870  14.3986  14.4103  14.5157  14.5875
    14.6368  14.7205  14.7496  14.7814  14.8001  14.8159  14.8200  14.8517
    14.9388  14.9553  14.9782  14.9876  14.9993  15.0253  15.1106  15.1175
    15.1278  15.1365  15.1725  15.2173  15.2642  15.2781  15.3101  15.4134
    15.4276  15.4324  15.4759  15.5308  15.5820  15.6013  15.6014  15.6985
    15.7010  15.7100  15.7275  15.7409  15.7945  15.8473  15.8650  15.9054
    15.9059  15.9148  16.0015  16.0597  16.0969  16.1133  16.1526  16.1653
    16.1710  16.1819  16.2067  16.2283  16.2596  16.2795  16.2901  16.3083
    16.3344  16.3740  16.4154  16.4224  16.4632  16.4712  16.4745  16.4831
    16.5269  16.5368  16.5420  16.5472  16.5696  16.6689  16.7473  16.7660
    16.7917  16.8100  16.8411  16.9305  16.9307  17.0209  17.0388  17.0540
    17.1277  17.1455  17.1721  17.2384  17.2453  17.3190  17.3227  17.4320
    17.4433  17.4588  17.4746  17.5155  17.5636  17.6472  17.7010  17.7030
    17.7205  17.7959  17.8080  17.8240  17.8578  17.8989  17.9426  17.9432
    17.9679  18.0148  18.0219  18.0575  18.0684  18.0755  18.0799  18.0891
    18.0936  18.1257  18.1955  18.2310  18.2602  18.2907  18.3199  18.3874
    18.3966  18.4211  18.4247  18.4332  18.4450  18.4590  18.4593  18.5420
    18.5671  18.5735  18.6717  18.7454  18.7820  18.8035  18.8795  18.9042
    18.9693  19.0059  19.0068  19.0137  19.0977  19.1035  19.1038  19.1107
    19.1543  19.1582  19.1893  19.2627  19.2718  19.2801  19.2814  19.5548
    19.7603  19.9290  20.2752  20.3912  20.4198  20.7796  20.9049  21.3033
    21.5032  21.8094  21.8555  22.0163  22.3915  22.5748  22.8150  23.1188
    23.4956  23.6569  25.1824  25.3244  25.8607  26.0929  26.1865  26.3600
    26.3609  26.8404  27.0014  27.0580  27.0730  27.5240  27.5505  28.2161
    28.2832  28.5439  28.7477  28.9310  29.0325  29.0812  29.3880  29.5577
    29.7371  29.8396  29.8427  29.9329  30.0550  30.3300  30.4128  30.4530
    30.6596  30.6727

          k = 0.0556 0.2778 0.2764 ( 33163 PWs)   bands (ev):

   -64.9791 -64.9647 -64.9645 -64.9538 -64.9530 -64.9480 -64.9455 -64.9455
   -64.9419 -64.9418 -64.9415 -64.9398 -64.9392 -64.9391 -64.9352 -64.9349
   -64.9349 -64.9346 -64.9324 -64.9323 -64.9310 -64.9310 -64.9272 -64.9255
   -64.9250 -64.9249 -64.9247 -64.9245 -64.9237 -64.9228 -64.9227 -64.9217
   -30.8501 -30.8498 -30.8364 -30.8285 -30.8279 -30.8245 -30.8230 -30.8009
   -30.7997 -30.7996 -30.7977 -30.7876 -30.7853 -30.7799 -30.7786 -30.7761
   -30.7757 -30.7746 -30.7728 -30.7709 -30.7696 -30.7615 -30.7615 -30.7595
   -30.7559 -30.7543 -30.7279 -30.7226 -30.7167 -30.7145 -30.7076 -30.7073
   -30.6999 -30.6994 -30.6935 -30.6899 -30.6660 -30.6638 -30.6634 -30.6533
   -30.6532 -30.6530 -30.6509 -30.6443 -30.6396 -30.6285 -30.6283 -30.6275
   -30.6272 -30.6265 -30.6258 -30.6250 -30.6229 -30.6213 -30.6138 -30.6133
   -30.6084 -30.6050 -30.6047 -30.6043 -30.5917 -30.5914 -30.5913 -30.5908
   -30.5871 -30.5867 -30.5851 -30.5845 -30.5760 -30.5758 -30.5742 -30.5737
   -30.5724 -30.5719 -30.5711 -30.5710 -30.5619 -30.5614 -30.5605 -30.5603
   -30.5584 -30.5580 -30.5534 -30.5521 -30.5508 -30.5500 -30.5466 -30.5453
   -30.5422 -30.5415 -30.5408 -30.5291 -30.5290 -30.5265 -30.5116 -30.5028
    12.6285  13.7347  13.7449  14.1545  14.1963  14.1990  14.1991  14.2225
    14.3493  14.3494  14.4317  14.4385  14.4399  14.5080  14.5602  14.6054
    14.6063  14.6143  14.6537  14.6537  14.7659  14.7698  14.7705  14.7710
    14.8486  14.8594  14.8727  14.8823  15.0411  15.0438  15.0446  15.0472
    15.0503  15.1494  15.1503  15.1835  15.1839  15.2203  15.2206  15.3015
    15.3017  15.3842  15.4964  15.4975  15.5015  15.5046  15.5319  15.6996
    15.7230  15.7393  15.7443  15.7525  15.7530  15.7621  15.7634  16.0077
    16.0181  16.0737  16.0808  16.1678  16.1700  16.1727  16.1866  16.2087
    16.2100  16.2296  16.2445  16.2468  16.2741  16.3665  16.3924  16.3937
    16.3962  16.4791  16.4869  16.4874  16.5190  16.5402  16.5750  16.5845
    16.5906  16.5926  16.6366  16.6409  16.6447  16.6495  16.6670  16.7024
    16.7984  16.8046  16.8164  16.8310  16.9693  16.9945  17.0197  17.0473
    17.1058  17.1273  17.1649  17.2021  17.2575  17.2720  17.2890  17.3026
    17.3030  17.3172  17.3737  17.3750  17.5196  17.5220  17.6537  17.7451
    17.7471  17.7542  17.7570  17.7578  17.7910  17.8713  17.8746  17.9584
    17.9890  18.0410  18.0445  18.0974  18.1013  18.1427  18.1439  18.1820
    18.1915  18.2923  18.2935  18.2939  18.3073  18.3187  18.3189  18.3194
    18.3276  18.3656  18.3659  18.5210  18.5635  18.5888  18.5931  18.5994
    18.6008  18.6009  18.6030  18.7031  18.7046  18.7493  18.8640  18.8666
    18.9429  19.0104  19.0140  19.0364  19.0420  19.0428  19.1358  19.1442
    19.1561  19.1611  19.1705  19.1828  19.2108  19.2265  19.5356  19.5441
    19.5586  19.8503  19.8656  20.2429  20.3264  20.3465  21.4993  21.5107
    21.8904  21.8942  22.2063  22.2696  22.5209  22.5637  23.0479  23.0913
    23.8946  24.2808  24.5516  24.5946  25.8199  25.8634  26.1822  26.1866
    26.3390  26.3648  26.7691  26.8133  27.3856  27.4149  27.5808  27.6804
    27.7388  28.1086  28.1958  28.2554  28.3375  29.4315  29.6071  29.6454
    29.7808  29.7808  30.1665  30.2172  30.4174  30.4526  30.6107  30.6170
    30.7232  30.8488

          k = 0.0556 0.2778 0.3870 ( 33175 PWs)   bands (ev):

   -64.9765 -64.9692 -64.9626 -64.9571 -64.9517 -64.9478 -64.9469 -64.9448
   -64.9437 -64.9427 -64.9415 -64.9400 -64.9383 -64.9360 -64.9353 -64.9341
   -64.9337 -64.9327 -64.9318 -64.9317 -64.9301 -64.9291 -64.9280 -64.9264
   -64.9262 -64.9259 -64.9258 -64.9247 -64.9238 -64.9235 -64.9226 -64.9217
   -30.8423 -30.8415 -30.8233 -30.8192 -30.8179 -30.8172 -30.8153 -30.8138
   -30.8107 -30.7993 -30.7970 -30.7965 -30.7949 -30.7912 -30.7852 -30.7846
   -30.7843 -30.7791 -30.7768 -30.7760 -30.7715 -30.7681 -30.7609 -30.7601
   -30.7586 -30.7450 -30.7363 -30.7347 -30.7252 -30.7138 -30.7030 -30.6971
   -30.6934 -30.6826 -30.6813 -30.6783 -30.6773 -30.6750 -30.6663 -30.6628
   -30.6533 -30.6441 -30.6426 -30.6393 -30.6346 -30.6332 -30.6277 -30.6262
   -30.6250 -30.6217 -30.6210 -30.6166 -30.6155 -30.6154 -30.6120 -30.6048
   -30.6048 -30.6031 -30.6023 -30.6018 -30.6001 -30.5951 -30.5927 -30.5910
   -30.5896 -30.5871 -30.5839 -30.5834 -30.5817 -30.5790 -30.5790 -30.5788
   -30.5727 -30.5702 -30.5695 -30.5680 -30.5656 -30.5651 -30.5650 -30.5648
   -30.5588 -30.5587 -30.5558 -30.5546 -30.5534 -30.5523 -30.5520 -30.5474
   -30.5433 -30.5424 -30.5348 -30.5249 -30.5232 -30.5192 -30.5177 -30.5056
    12.8309  13.3981  13.9005  14.2257  14.2920  14.2956  14.3063  14.3204
    14.3284  14.4769  14.4776  14.4797  14.4895  14.5146  14.5147  14.5610
    14.5813  14.5875  14.5904  14.6360  14.6468  14.6687  14.7214  14.7344
    14.7547  14.8082  14.8321  14.8446  14.9179  14.9425  14.9702  14.9825
    15.0136  15.1130  15.1179  15.1533  15.1995  15.2244  15.2275  15.2796
    15.2925  15.3376  15.3690  15.4051  15.4441  15.5537  15.5938  15.6142
    15.6278  15.6835  15.7486  15.7758  15.7934  15.8191  15.8587  15.9727
    15.9905  15.9962  16.0821  16.1216  16.1377  16.1967  16.2451  16.2511
    16.2863  16.2960  16.2968  16.3169  16.3568  16.3927  16.4051  16.4818
    16.4970  16.5390  16.5633  16.5666  16.5685  16.5888  16.6029  16.6326
    16.6436  16.6500  16.6537  16.7449  16.7499  16.7612  16.7727  16.7735
    16.7928  16.8663  16.8720  16.8763  16.9494  16.9729  17.0134  17.0284
    17.0550  17.1026  17.1041  17.1208  17.1364  17.1584  17.1981  17.2809
    17.3978  17.3985  17.4287  17.4329  17.4494  17.4616  17.5062  17.5298
    17.5729  17.5970  17.6602  17.6726  17.6759  17.7692  17.9301  17.9752
    17.9897  18.0077  18.0099  18.0172  18.1389  18.1434  18.1591  18.1744
    18.1887  18.2193  18.3266  18.3467  18.3486  18.3570  18.4158  18.4300
    18.4316  18.5042  18.5298  18.5644  18.5681  18.6309  18.6518  18.7256
    18.7347  18.7352  18.7482  18.7492  18.7628  18.7631  18.7913  18.8120
    18.9058  18.9574  18.9582  18.9599  18.9636  18.9681  18.9709  18.9759
    19.0326  19.1030  19.1611  19.1647  19.1752  19.1914  19.4577  19.5486
    19.7731  19.8988  20.0357  20.1123  20.1913  20.2859  21.0134  21.4970
    22.1745  22.2076  22.4067  22.5206  22.8144  22.9994  23.2624  23.7267
    23.7714  23.9966  24.4149  24.9413  24.9606  25.3440  25.6624  26.1962
    26.3822  26.4832  26.6476  26.7888  26.9579  27.0521  27.3014  27.4216
    27.7650  27.8012  27.9681  28.1762  28.7363  29.0684  29.6030  29.7601
    29.8383  29.8667  29.9659  30.0451  30.1068  30.1864  30.7568  30.7761
    30.9212  31.0109

          k = 0.0556 0.2778-0.4975 ( 33184 PWs)   bands (ev):

   -64.9735 -64.9728 -64.9605 -64.9597 -64.9503 -64.9495 -64.9458 -64.9451
   -64.9442 -64.9435 -64.9412 -64.9404 -64.9377 -64.9369 -64.9337 -64.9330
   -64.9330 -64.9322 -64.9317 -64.9310 -64.9293 -64.9285 -64.9284 -64.9278
   -64.9276 -64.9270 -64.9250 -64.9247 -64.9242 -64.9239 -64.9225 -64.9218
   -30.8314 -30.8312 -30.8299 -30.8295 -30.8098 -30.8091 -30.8085 -30.8081
   -30.8077 -30.8077 -30.7972 -30.7968 -30.7953 -30.7946 -30.7923 -30.7923
   -30.7919 -30.7917 -30.7818 -30.7813 -30.7646 -30.7641 -30.7637 -30.7630
   -30.7481 -30.7477 -30.7340 -30.7340 -30.7297 -30.7293 -30.6899 -30.6896
   -30.6863 -30.6860 -30.6799 -30.6795 -30.6739 -30.6731 -30.6652 -30.6644
   -30.6626 -30.6624 -30.6274 -30.6273 -30.6267 -30.6266 -30.6255 -30.6247
   -30.6230 -30.6227 -30.6220 -30.6218 -30.6166 -30.6163 -30.6128 -30.6121
   -30.6033 -30.6028 -30.6018 -30.6017 -30.5948 -30.5946 -30.5943 -30.5942
   -30.5867 -30.5859 -30.5830 -30.5825 -30.5792 -30.5790 -30.5786 -30.5783
   -30.5732 -30.5725 -30.5681 -30.5679 -30.5678 -30.5675 -30.5673 -30.5671
   -30.5626 -30.5619 -30.5593 -30.5589 -30.5541 -30.5534 -30.5471 -30.5468
   -30.5451 -30.5443 -30.5258 -30.5251 -30.5229 -30.5228 -30.5114 -30.5111
    13.0905  13.0915  14.0955  14.0964  14.3338  14.3339  14.4018  14.4026
    14.4262  14.4263  14.4271  14.4276  14.4885  14.4894  14.5306  14.5311
    14.6135  14.6144  14.6415  14.6416  14.6566  14.6567  14.6753  14.6755
    14.7206  14.7215  14.8185  14.8189  14.8644  14.8645  14.9258  14.9264
    15.1015  15.1023  15.1184  15.1190  15.1924  15.1926  15.2583  15.2585
    15.2677  15.2685  15.4462  15.4469  15.4781  15.4781  15.4966  15.4973
    15.7624  15.7625  15.7689  15.7695  15.8733  15.8736  15.8756  15.8762
    15.9006  15.9012  16.0016  16.0021  16.2242  16.2248  16.3073  16.3079
    16.3243  16.3245  16.3423  16.3429  16.3949  16.3951  16.4214  16.4215
    16.4688  16.4690  16.6077  16.6078  16.6569  16.6575  16.6650  16.6652
    16.6926  16.6927  16.7181  16.7187  16.7268  16.7275  16.7277  16.7280
    16.8873  16.8877  16.9187  16.9190  17.0541  17.0545  17.0616  17.0621
    17.0686  17.0686  17.1465  17.1466  17.1643  17.1645  17.1755  17.1758
    17.2138  17.2143  17.4730  17.4736  17.4859  17.4862  17.5367  17.5372
    17.5653  17.5657  17.5761  17.5767  17.6019  17.6021  17.8811  17.8818
    17.8833  17.8838  18.0883  18.0890  18.0968  18.0974  18.1119  18.1126
    18.2722  18.2728  18.4011  18.4018  18.4022  18.4029  18.5259  18.5266
    18.5473  18.5479  18.5912  18.5912  18.6412  18.6415  18.6423  18.6424
    18.7583  18.7588  18.7868  18.7868  18.8077  18.8080  18.8555  18.8558
    18.8575  18.8579  18.8728  18.8730  18.8795  18.8797  18.8978  18.8978
    19.0926  19.0927  19.1688  19.1695  19.1714  19.1719  19.4913  19.4914
    19.6587  19.6595  20.2232  20.2239  20.5215  20.5217  20.7785  20.7791
    22.4127  22.4134  22.7840  22.7847  22.9227  22.9232  23.3979  23.3985
    24.0740  24.0742  24.5522  24.5524  25.0136  25.0142  25.7012  25.7014
    26.4475  26.4476  26.8023  26.8025  26.9200  26.9206  27.2344  27.2352
    27.3944  27.3951  28.5312  28.5312  28.8526  28.8528  29.4305  29.4306
    29.7774  29.7783  29.9223  29.9232  30.3474  30.3483  30.5110  30.5111
    31.1668  31.1675

          k = 0.0556 0.3889 0.0553 ( 33157 PWs)   bands (ev):

   -64.9790 -64.9712 -64.9533 -64.9529 -64.9490 -64.9488 -64.9484 -64.9479
   -64.9448 -64.9445 -64.9400 -64.9393 -64.9377 -64.9376 -64.9375 -64.9373
   -64.9362 -64.9355 -64.9352 -64.9293 -64.9291 -64.9282 -64.9279 -64.9275
   -64.9252 -64.9248 -64.9248 -64.9243 -64.9228 -64.9226 -64.9220 -64.9217
   -30.8453 -30.8412 -30.8410 -30.8353 -30.8276 -30.8262 -30.8172 -30.8146
   -30.8091 -30.8088 -30.8021 -30.8013 -30.8009 -30.7763 -30.7740 -30.7723
   -30.7689 -30.7675 -30.7668 -30.7666 -30.7575 -30.7569 -30.7414 -30.7378
   -30.7335 -30.7310 -30.7239 -30.7203 -30.7185 -30.7183 -30.7155 -30.7154
   -30.7127 -30.7105 -30.6969 -30.6947 -30.6943 -30.6920 -30.6819 -30.6817
   -30.6564 -30.6557 -30.6397 -30.6392 -30.6365 -30.6349 -30.6281 -30.6235
   -30.6196 -30.6120 -30.6117 -30.6110 -30.6107 -30.6106 -30.6106 -30.6103
   -30.6093 -30.6091 -30.6066 -30.5981 -30.5977 -30.5972 -30.5890 -30.5889
   -30.5865 -30.5861 -30.5851 -30.5848 -30.5836 -30.5786 -30.5773 -30.5770
   -30.5764 -30.5763 -30.5694 -30.5614 -30.5604 -30.5580 -30.5566 -30.5542
   -30.5540 -30.5539 -30.5536 -30.5523 -30.5518 -30.5495 -30.5482 -30.5479
   -30.5476 -30.5406 -30.5399 -30.5347 -30.5288 -30.5274 -30.5115 -30.5104
    12.6331  13.2293  14.1548  14.2273  14.2276  14.2342  14.2863  14.2866
    14.3238  14.3756  14.3993  14.4839  14.4865  14.5068  14.5200  14.5641
    14.5649  14.5708  14.6341  14.6422  14.6424  14.6942  14.7067  14.7200
    14.8514  14.8558  14.8578  14.8634  15.0551  15.0627  15.1475  15.1554
    15.1994  15.2120  15.2664  15.2761  15.2908  15.2957  15.4219  15.4338
    15.4861  15.4888  15.4916  15.4920  15.5893  15.5897  15.6278  15.6320
    15.6445  15.6549  15.6836  15.6931  15.7278  15.7442  15.8656  15.8740
    15.8778  15.9089  15.9115  16.0254  16.0534  16.0539  16.0681  16.0691
    16.0964  16.1055  16.1656  16.1689  16.2036  16.2125  16.2295  16.2386
    16.2419  16.3023  16.3674  16.3692  16.5050  16.5415  16.5579  16.5594
    16.5738  16.5961  16.6035  16.6086  16.6116  16.6186  16.7654  16.8050
    16.8195  16.8382  16.8623  16.8696  17.0480  17.0487  17.0518  17.0660
    17.2783  17.3021  17.4251  17.4295  17.4391  17.4507  17.4548  17.6187
    17.6208  17.6537  17.6559  17.6620  17.6662  17.6777  17.6841  17.6962
    17.7154  17.7179  17.7990  17.8016  17.8326  17.8402  17.8433  17.8455
    17.8463  17.8536  17.8594  17.8724  17.8756  17.9561  17.9964  18.0715
    18.0731  18.1303  18.2059  18.2315  18.3111  18.3125  18.3442  18.3839
    18.4644  18.4668  18.4690  18.5263  18.5339  18.5347  18.5554  18.5567
    18.7070  18.7071  18.7230  18.8107  18.8189  18.8276  18.8485  18.8521
    18.8591  18.8607  18.9000  18.9600  18.9625  18.9737  18.9743  19.0359
    19.1528  19.1606  19.3053  19.3305  19.3323  19.3399  19.3412  19.5496
    19.5611  19.9548  19.9745  20.3654  20.6521  20.7904  20.9133  20.9151
    21.1877  21.1897  21.3820  21.7220  23.2442  23.2849  23.7855  23.7886
    23.8334  23.8712  24.8680  24.9085  25.1464  25.2311  25.4139  25.4579
    26.7124  27.1272  27.1311  27.6102  27.9233  28.0293  28.0815  28.4506
    28.4548  28.6859  28.7362  28.9413  29.0033  29.0044  29.3237  29.3858
    29.4343  29.5499  29.5505  29.6116  29.9792  30.0278  30.0770  30.0865
    30.2098  30.3057

          k = 0.0556 0.3889 0.1658 ( 33169 PWs)   bands (ev):

   -64.9781 -64.9705 -64.9581 -64.9532 -64.9525 -64.9484 -64.9476 -64.9442
   -64.9436 -64.9425 -64.9411 -64.9406 -64.9395 -64.9388 -64.9358 -64.9351
   -64.9350 -64.9349 -64.9336 -64.9302 -64.9295 -64.9285 -64.9274 -64.9268
   -64.9255 -64.9253 -64.9252 -64.9239 -64.9236 -64.9233 -64.9221 -64.9218
   -30.8458 -30.8430 -30.8337 -30.8260 -30.8248 -30.8228 -30.8171 -30.8156
   -30.8131 -30.8009 -30.7997 -30.7993 -30.7908 -30.7839 -30.7818 -30.7769
   -30.7768 -30.7759 -30.7750 -30.7709 -30.7619 -30.7590 -30.7533 -30.7492
   -30.7378 -30.7366 -30.7324 -30.7273 -30.7245 -30.7151 -30.7062 -30.7020
   -30.7020 -30.7013 -30.6955 -30.6898 -30.6831 -30.6809 -30.6792 -30.6678
   -30.6653 -30.6533 -30.6330 -30.6327 -30.6326 -30.6323 -30.6316 -30.6304
   -30.6241 -30.6227 -30.6212 -30.6138 -30.6131 -30.6104 -30.6095 -30.6080
   -30.6053 -30.6043 -30.6013 -30.5998 -30.5920 -30.5910 -30.5886 -30.5880
   -30.5876 -30.5873 -30.5871 -30.5847 -30.5847 -30.5841 -30.5839 -30.5737
   -30.5718 -30.5714 -30.5652 -30.5642 -30.5641 -30.5629 -30.5629 -30.5617
   -30.5608 -30.5593 -30.5542 -30.5525 -30.5524 -30.5496 -30.5478 -30.5447
   -30.5442 -30.5407 -30.5354 -30.5312 -30.5308 -30.5237 -30.5137 -30.5075
    12.7003  13.2887  14.2019  14.2138  14.2182  14.2486  14.2627  14.2808
    14.3690  14.3919  14.4250  14.4387  14.5023  14.5111  14.5162  14.5407
    14.5698  14.5974  14.6029  14.6053  14.6698  14.6828  14.7303  14.7408
    14.7619  14.7819  14.8780  14.8946  14.9095  14.9910  15.1059  15.1162
    15.1205  15.1423  15.1857  15.2421  15.2426  15.3647  15.3791  15.3968
    15.4248  15.4459  15.4989  15.5212  15.5334  15.5466  15.5483  15.5563
    15.5783  15.6341  15.6853  15.7187  15.7217  15.7848  15.8730  15.8880
    15.9222  15.9654  16.0724  16.0827  16.1051  16.1321  16.1517  16.1538
    16.1607  16.1665  16.1984  16.2509  16.2557  16.2577  16.2837  16.3006
    16.3587  16.3712  16.3925  16.4995  16.5178  16.5602  16.5624  16.5913
    16.5976  16.6121  16.6479  16.6505  16.6649  16.7274  16.7299  16.7400
    16.8335  16.8444  16.8535  16.9366  16.9601  16.9801  17.0162  17.0359
    17.1941  17.2205  17.2425  17.2549  17.2711  17.2867  17.3864  17.4742
    17.4793  17.4946  17.5602  17.6086  17.6559  17.6704  17.6781  17.6787
    17.7001  17.7014  17.7534  17.7855  17.8235  17.8471  17.8507  17.8559
    17.9154  17.9248  17.9655  17.9884  18.0209  18.0749  18.0986  18.1014
    18.1362  18.1438  18.1563  18.2828  18.3008  18.3032  18.3295  18.3368
    18.4457  18.4876  18.5279  18.5522  18.5940  18.6128  18.6198  18.6287
    18.6309  18.6330  18.6594  18.7234  18.7264  18.8225  18.8265  18.8555
    18.8823  18.9162  18.9185  18.9622  18.9629  18.9760  18.9791  19.0610
    19.1374  19.2045  19.2624  19.2684  19.2740  19.2786  19.5294  19.5330
    19.6676  19.9059  19.9528  20.1806  20.4351  20.5108  20.7086  21.0901
    21.5335  21.7977  21.8910  22.3137  22.7150  23.2995  23.3920  23.8395
    24.0652  24.3186  24.3588  24.6694  24.9565  25.3874  25.4821  25.9633
    26.3927  26.7204  27.2772  27.4125  27.4377  27.6200  27.8229  27.9414
    28.0773  28.1487  28.3793  28.6163  28.7802  29.0183  29.3568  29.4531
    29.5893  29.7257  29.7830  29.9047  29.9350  30.1917  30.2268  30.2456
    30.3183  30.6055

          k = 0.0556 0.3889 0.2764 ( 33182 PWs)   bands (ev):

   -64.9764 -64.9690 -64.9628 -64.9572 -64.9517 -64.9478 -64.9469 -64.9448
   -64.9438 -64.9428 -64.9413 -64.9400 -64.9389 -64.9366 -64.9346 -64.9341
   -64.9337 -64.9329 -64.9317 -64.9312 -64.9300 -64.9291 -64.9273 -64.9262
   -64.9260 -64.9257 -64.9257 -64.9253 -64.9248 -64.9235 -64.9225 -64.9220
   -30.8423 -30.8411 -30.8230 -30.8189 -30.8165 -30.8162 -30.8141 -30.8135
   -30.8125 -30.7982 -30.7980 -30.7971 -30.7939 -30.7901 -30.7863 -30.7860
   -30.7847 -30.7784 -30.7777 -30.7776 -30.7725 -30.7666 -30.7624 -30.7589
   -30.7585 -30.7466 -30.7367 -30.7354 -30.7265 -30.7145 -30.7011 -30.6974
   -30.6934 -30.6860 -30.6813 -30.6765 -30.6755 -30.6743 -30.6665 -30.6656
   -30.6488 -30.6435 -30.6419 -30.6378 -30.6365 -30.6341 -30.6272 -30.6263
   -30.6257 -30.6232 -30.6217 -30.6196 -30.6149 -30.6131 -30.6110 -30.6048
   -30.6038 -30.6028 -30.6023 -30.6023 -30.5999 -30.5941 -30.5925 -30.5909
   -30.5894 -30.5868 -30.5824 -30.5821 -30.5811 -30.5789 -30.5787 -30.5778
   -30.5723 -30.5720 -30.5708 -30.5667 -30.5660 -30.5658 -30.5653 -30.5647
   -30.5589 -30.5574 -30.5573 -30.5539 -30.5534 -30.5525 -30.5524 -30.5489
   -30.5439 -30.5424 -30.5357 -30.5249 -30.5233 -30.5192 -30.5180 -30.5057
    12.8329  13.4056  13.8928  14.2259  14.2937  14.2968  14.3067  14.3184
    14.3306  14.4778  14.4782  14.4802  14.4901  14.5174  14.5211  14.5601
    14.5822  14.5909  14.5913  14.6369  14.6464  14.6764  14.7218  14.7413
    14.7485  14.8065  14.8342  14.8466  14.9183  14.9431  14.9615  14.9741
    15.0138  15.1118  15.1165  15.1505  15.1994  15.2220  15.2290  15.2787
    15.2892  15.3343  15.3688  15.4047  15.4440  15.5529  15.5956  15.6121
    15.6244  15.6821  15.7299  15.7699  15.8002  15.8197  15.8831  15.9813
    15.9881  15.9971  16.0773  16.1378  16.1442  16.2132  16.2447  16.2623
    16.2775  16.2806  16.2841  16.3436  16.3739  16.3745  16.3974  16.4881
    16.4897  16.5382  16.5509  16.5552  16.5570  16.5858  16.5922  16.6211
    16.6398  16.6431  16.6468  16.7332  16.7405  16.7621  16.7647  16.7870
    16.7988  16.8441  16.8528  16.8744  16.9356  16.9487  17.0364  17.0466
    17.0507  17.0849  17.1104  17.1186  17.1305  17.1773  17.2056  17.2884
    17.4049  17.4092  17.4259  17.4432  17.4484  17.4596  17.5186  17.5370
    17.5706  17.6054  17.6628  17.6796  17.6871  17.7704  17.9256  17.9738
    17.9959  17.9960  18.0137  18.0179  18.1433  18.1441  18.1669  18.1714
    18.1786  18.2232  18.3262  18.3457  18.3497  18.3614  18.4157  18.4278
    18.4368  18.5036  18.5336  18.5684  18.5695  18.6300  18.6554  18.7238
    18.7381  18.7383  18.7463  18.7476  18.7632  18.7649  18.7948  18.8192
    18.9062  18.9597  18.9604  18.9630  18.9670  18.9687  18.9807  18.9903
    19.0398  19.1089  19.1418  19.1488  19.1613  19.1805  19.4679  19.5385
    19.7588  19.9142  20.0221  20.1398  20.1829  20.2681  21.0013  21.5496
    22.1926  22.1929  22.4004  22.4844  22.7586  22.9655  23.3111  23.7618
    23.8188  23.9505  24.4220  24.9665  24.9983  25.3779  25.6827  26.2038
    26.3995  26.4989  26.6100  26.7746  26.9899  27.0010  27.2421  27.4682
    27.7390  27.7588  27.9443  28.1832  28.7433  29.0611  29.6279  29.7596
    29.8372  29.8651  29.9299  30.0440  30.1314  30.2107  30.6665  30.7500
    30.8900  30.9886

          k = 0.0556 0.3889 0.3870 ( 33199 PWs)   bands (ev):

   -64.9740 -64.9670 -64.9669 -64.9609 -64.9504 -64.9470 -64.9469 -64.9459
   -64.9443 -64.9432 -64.9430 -64.9411 -64.9347 -64.9340 -64.9330 -64.9326
   -64.9325 -64.9322 -64.9308 -64.9306 -64.9300 -64.9300 -64.9278 -64.9273
   -64.9272 -64.9270 -64.9269 -64.9260 -64.9248 -64.9231 -64.9230 -64.9221
   -30.8353 -30.8352 -30.8130 -30.8126 -30.8125 -30.8116 -30.8104 -30.8096
   -30.8080 -30.8061 -30.7984 -30.7968 -30.7964 -30.7947 -30.7927 -30.7868
   -30.7861 -30.7794 -30.7786 -30.7781 -30.7776 -30.7773 -30.7770 -30.7657
   -30.7638 -30.7628 -30.7489 -30.7341 -30.7301 -30.7142 -30.7131 -30.6887
   -30.6798 -30.6797 -30.6711 -30.6673 -30.6606 -30.6544 -30.6538 -30.6513
   -30.6484 -30.6482 -30.6481 -30.6466 -30.6422 -30.6279 -30.6241 -30.6203
   -30.6202 -30.6201 -30.6201 -30.6197 -30.6170 -30.6167 -30.6157 -30.6154
   -30.6136 -30.6129 -30.5997 -30.5993 -30.5980 -30.5978 -30.5974 -30.5925
   -30.5924 -30.5830 -30.5828 -30.5808 -30.5803 -30.5796 -30.5793 -30.5769
   -30.5717 -30.5712 -30.5709 -30.5704 -30.5704 -30.5684 -30.5646 -30.5615
   -30.5609 -30.5585 -30.5568 -30.5560 -30.5559 -30.5547 -30.5513 -30.5459
   -30.5449 -30.5422 -30.5416 -30.5241 -30.5184 -30.5163 -30.5163 -30.5065
    13.0271  13.5703  13.5755  14.0437  14.2708  14.3643  14.3766  14.4253
    14.4258  14.4561  14.4563  14.4582  14.5729  14.5731  14.6003  14.6171
    14.6171  14.6326  14.6345  14.6349  14.6358  14.6544  14.6585  14.7738
    14.7796  14.7908  14.8106  14.8428  14.8488  14.9474  14.9484  14.9501
    14.9519  14.9788  14.9794  15.0193  15.0198  15.1499  15.1515  15.1680
    15.1702  15.1945  15.1964  15.4320  15.4340  15.4761  15.6659  15.6695
    15.6712  15.6730  15.7713  15.8343  15.8693  15.8697  15.8737  15.8867
    15.8986  16.0818  16.1976  16.1999  16.2560  16.3759  16.3764  16.3926
    16.4146  16.4153  16.4157  16.4205  16.4250  16.4306  16.4543  16.4627
    16.4950  16.5083  16.6317  16.6451  16.6644  16.6732  16.6862  16.7085
    16.7106  16.7310  16.7359  16.7570  16.7604  16.7654  16.8596  16.8605
    16.8637  16.8673  16.8821  16.8835  16.8977  16.9059  16.9786  16.9936
    16.9978  17.0078  17.0950  17.0955  17.1002  17.1456  17.1903  17.1997
    17.2032  17.2137  17.2161  17.2274  17.2379  17.2523  17.2624  17.4068
    17.5127  17.5137  17.5402  17.5405  17.6362  17.7043  17.7087  17.7502
[...]
    23.8313  23.8313  23.8314  23.8314  25.9179  25.9183  25.9183  25.9186
    26.2902  26.2903  26.2904  26.2904  26.2904  26.2904  26.2904  26.2904
    27.1029  27.1032  27.1033  27.1033  29.6549  29.6551  29.6551  29.6553
    30.2455  30.2457  30.2457  30.2457  30.8338  30.8340  30.8340  30.8340
    31.3710  31.3713

          k =-0.5000-0.5000 0.1658 ( 33204 PWs)   bands (ev):

   -64.9672 -64.9670 -64.9670 -64.9668 -64.9516 -64.9514 -64.9514 -64.9512
   -64.9402 -64.9401 -64.9400 -64.9399 -64.9306 -64.9304 -64.9304 -64.9303
   -64.9300 -64.9298 -64.9297 -64.9296 -64.9296 -64.9295 -64.9294 -64.9293
   -64.9291 -64.9289 -64.9289 -64.9288 -64.9247 -64.9245 -64.9244 -64.9243
   -30.8164 -30.8164 -30.8164 -30.8164 -30.8163 -30.8163 -30.8163 -30.8163
   -30.7943 -30.7943 -30.7942 -30.7942 -30.7941 -30.7941 -30.7940 -30.7940
   -30.7917 -30.7915 -30.7914 -30.7913 -30.7892 -30.7891 -30.7891 -30.7890
   -30.7457 -30.7457 -30.7457 -30.7456 -30.7037 -30.7037 -30.7036 -30.7036
   -30.6485 -30.6485 -30.6485 -30.6485 -30.6485 -30.6485 -30.6484 -30.6483
   -30.6460 -30.6460 -30.6459 -30.6459 -30.6459 -30.6458 -30.6457 -30.6457
   -30.6294 -30.6294 -30.6293 -30.6293 -30.6084 -30.6083 -30.6083 -30.6082
   -30.6082 -30.6082 -30.6081 -30.6081 -30.6054 -30.6054 -30.6054 -30.6054
   -30.5873 -30.5872 -30.5872 -30.5871 -30.5855 -30.5855 -30.5854 -30.5854
   -30.5853 -30.5853 -30.5852 -30.5852 -30.5715 -30.5715 -30.5714 -30.5714
   -30.5465 -30.5465 -30.5465 -30.5465 -30.5427 -30.5426 -30.5426 -30.5425
   -30.5362 -30.5361 -30.5360 -30.5359 -30.5124 -30.5124 -30.5124 -30.5124
    13.5522  13.5526  13.5527  13.5530  14.2500  14.2501  14.2501  14.2503
    14.5921  14.5921  14.5921  14.5921  14.5991  14.5992  14.5992  14.5992
    14.6733  14.6733  14.6734  14.6735  14.6737  14.6737  14.6738  14.6738
    14.8706  14.8707  14.8707  14.8707  14.8708  14.8709  14.8709  14.8709
    14.9756  14.9756  14.9757  14.9757  14.9760  14.9760  14.9761  14.9761
    15.1698  15.1699  15.1700  15.1700  15.6655  15.6655  15.6658  15.6658
    15.6659  15.6659  15.6661  15.6661  15.9790  15.9793  15.9793  15.9795
    16.0012  16.0015  16.0015  16.0016  16.4667  16.4668  16.4668  16.4669
    16.5415  16.5415  16.5416  16.5416  16.5466  16.5468  16.5469  16.5469
    16.7044  16.7046  16.7046  16.7048  16.7188  16.7188  16.7188  16.7188
    16.7188  16.7188  16.7190  16.7190  16.7619  16.7619  16.7619  16.7620
    16.7941  16.7942  16.7942  16.7945  17.0382  17.0382  17.0383  17.0383
    17.0384  17.0384  17.0384  17.0386  17.0773  17.0774  17.0774  17.0775
    17.1475  17.1477  17.1477  17.1479  17.2684  17.2684  17.2684  17.2685
    17.2686  17.2686  17.2686  17.2687  17.6094  17.6095  17.6096  17.6097
    18.0789  18.0790  18.0791  18.0792  18.2151  18.2151  18.2152  18.2152
    18.2152  18.2153  18.2154  18.2154  18.2167  18.2168  18.2169  18.2169
    18.5459  18.5460  18.5461  18.5461  18.6086  18.6087  18.6087  18.6088
    18.9571  18.9571  18.9572  18.9572  18.9572  18.9572  18.9573  18.9573
    18.9853  18.9853  18.9853  18.9853  18.9854  18.9854  18.9854  18.9855
    18.9929  18.9931  18.9931  18.9932  19.0146  19.0147  19.0147  19.0147
    20.2567  20.2570  20.2570  20.2571  21.9876  21.9876  21.9877  21.9877
    21.9879  21.9879  21.9880  21.9880  23.6590  23.6590  23.6591  23.6591
    23.6592  23.6592  23.6593  23.6593  25.3268  25.3272  25.3272  25.3274
    26.5275  26.5276  26.5277  26.5277  26.5278  26.5278  26.5278  26.5278
    27.2318  27.2321  27.2321  27.2321  29.6763  29.6765  29.6765  29.6765
    30.2892  30.2894  30.2894  30.2896  30.4850  30.4850  30.4852  30.4853
    30.4853  30.4853

          k =-0.5000-0.5000 0.2764 ( 33136 PWs)   bands (ev):

   -64.9659 -64.9657 -64.9656 -64.9655 -64.9552 -64.9550 -64.9550 -64.9548
   -64.9366 -64.9365 -64.9364 -64.9363 -64.9306 -64.9304 -64.9304 -64.9303
   -64.9300 -64.9297 -64.9297 -64.9296 -64.9296 -64.9295 -64.9294 -64.9293
   -64.9291 -64.9289 -64.9289 -64.9288 -64.9260 -64.9258 -64.9257 -64.9256
   -30.8137 -30.8137 -30.8137 -30.8137 -30.8136 -30.8136 -30.8136 -30.8135
   -30.7976 -30.7975 -30.7974 -30.7974 -30.7973 -30.7973 -30.7973 -30.7973
   -30.7972 -30.7972 -30.7972 -30.7971 -30.7971 -30.7971 -30.7971 -30.7970
   -30.7265 -30.7264 -30.7264 -30.7263 -30.6880 -30.6880 -30.6880 -30.6879
   -30.6484 -30.6484 -30.6483 -30.6483 -30.6483 -30.6483 -30.6482 -30.6482
   -30.6467 -30.6467 -30.6466 -30.6466 -30.6466 -30.6465 -30.6465 -30.6465
   -30.6448 -30.6447 -30.6447 -30.6447 -30.6067 -30.6066 -30.6066 -30.6065
   -30.6047 -30.6047 -30.6047 -30.6047 -30.6046 -30.6045 -30.6045 -30.6045
   -30.6026 -30.6026 -30.6026 -30.6026 -30.5879 -30.5879 -30.5878 -30.5878
   -30.5877 -30.5877 -30.5877 -30.5876 -30.5792 -30.5792 -30.5792 -30.5792
   -30.5386 -30.5386 -30.5385 -30.5385 -30.5338 -30.5337 -30.5337 -30.5336
   -30.5312 -30.5311 -30.5311 -30.5310 -30.5152 -30.5152 -30.5152 -30.5152
    13.6192  13.6196  13.6196  13.6200  14.1077  14.1079  14.1079  14.1081
    14.6283  14.6284  14.6284  14.6284  14.6503  14.6503  14.6504  14.6504
    14.6507  14.6507  14.6507  14.6507  14.6524  14.6524  14.6524  14.6524
    14.8022  14.8022  14.8023  14.8023  14.8024  14.8025  14.8025  14.8025
    15.1136  15.1136  15.1136  15.1137  15.1140  15.1140  15.1141  15.1141
    15.2252  15.2253  15.2254  15.2254  15.6532  15.6532  15.6535  15.6535
    15.6536  15.6537  15.6538  15.6539  15.7778  15.7781  15.7781  15.7782
    16.0931  16.0933  16.0933  16.0934  16.4826  16.4827  16.4827  16.4828
    16.6146  16.6147  16.6147  16.6147  16.6196  16.6198  16.6198  16.6199
    16.6877  16.6878  16.6878  16.6880  16.7046  16.7046  16.7046  16.7046
    16.7046  16.7046  16.7048  16.7048  16.7092  16.7093  16.7093  16.7094
    16.7478  16.7479  16.7479  16.7481  17.0061  17.0062  17.0062  17.0063
    17.0063  17.0064  17.0064  17.0065  17.0648  17.0650  17.0650  17.0652
    17.2282  17.2283  17.2283  17.2284  17.3431  17.3432  17.3432  17.3433
    17.3433  17.3433  17.3433  17.3434  17.7361  17.7362  17.7363  17.7364
    17.9311  17.9312  17.9312  17.9313  17.9591  17.9591  17.9592  17.9592
    17.9592  17.9593  17.9593  17.9594  18.1649  18.1650  18.1651  18.1652
    18.2293  18.2293  18.2294  18.2295  18.4348  18.4349  18.4350  18.4351
    19.0469  19.0469  19.0470  19.0470  19.0470  19.0470  19.0471  19.0471
    19.0594  19.0596  19.0596  19.0597  19.0826  19.0826  19.0826  19.0826
    19.0827  19.0827  19.0827  19.0828  19.0926  19.0927  19.0927  19.0927
    21.0048  21.0051  21.0051  21.0053  22.1679  22.1679  22.1680  22.1680
    22.1682  22.1682  22.1683  22.1683  23.3795  23.3795  23.3795  23.3796
    23.3797  23.3797  23.3798  23.3798  24.4879  24.4882  24.4882  24.4884
    26.9428  26.9428  26.9430  26.9430  26.9431  26.9431  26.9432  26.9432
    27.4585  27.4588  27.4588  27.4588  29.1331  29.1333  29.1334  29.1334
    29.6352  29.6352  29.6352  29.6352  29.6354  29.6355  29.6355  29.6355
    31.2360  31.2362

          k =-0.5000-0.5000 0.3870 ( 33208 PWs)   bands (ev):

   -64.9640 -64.9638 -64.9637 -64.9636 -64.9585 -64.9584 -64.9583 -64.9582
   -64.9333 -64.9332 -64.9331 -64.9330 -64.9306 -64.9304 -64.9304 -64.9303
   -64.9300 -64.9297 -64.9297 -64.9296 -64.9296 -64.9295 -64.9294 -64.9293
   -64.9291 -64.9289 -64.9289 -64.9288 -64.9279 -64.9277 -64.9276 -64.9275
   -30.8101 -30.8100 -30.8100 -30.8100 -30.8099 -30.8099 -30.8099 -30.8099
   -30.8024 -30.8023 -30.8023 -30.8022 -30.8019 -30.8018 -30.8018 -30.8017
   -30.8013 -30.8013 -30.8012 -30.8012 -30.8012 -30.8012 -30.8011 -30.8011
   -30.7059 -30.7058 -30.7058 -30.7057 -30.6690 -30.6690 -30.6690 -30.6689
   -30.6639 -30.6639 -30.6639 -30.6638 -30.6483 -30.6483 -30.6483 -30.6482
   -30.6482 -30.6482 -30.6481 -30.6481 -30.6474 -30.6473 -30.6473 -30.6473
   -30.6473 -30.6472 -30.6472 -30.6472 -30.6273 -30.6272 -30.6272 -30.6272
   -30.6003 -30.6003 -30.6003 -30.6003 -30.6002 -30.6001 -30.6001 -30.6001
   -30.5984 -30.5984 -30.5984 -30.5984 -30.5914 -30.5914 -30.5914 -30.5913
   -30.5912 -30.5912 -30.5912 -30.5912 -30.5865 -30.5865 -30.5865 -30.5865
   -30.5313 -30.5313 -30.5313 -30.5313 -30.5284 -30.5283 -30.5282 -30.5282
   -30.5275 -30.5274 -30.5274 -30.5273 -30.5195 -30.5195 -30.5195 -30.5194
    13.7144  13.7148  13.7148  13.7152  13.9658  13.9661  13.9661  13.9663
    14.6537  14.6537  14.6537  14.6537  14.6540  14.6540  14.6540  14.6540
    14.6593  14.6593  14.6594  14.6594  14.6805  14.6805  14.6805  14.6806
    14.7351  14.7351  14.7351  14.7352  14.7353  14.7354  14.7354  14.7354
    15.2716  15.2716  15.2717  15.2717  15.2720  15.2720  15.2720  15.2721
    15.3133  15.3135  15.3135  15.3135  15.5712  15.5713  15.5715  15.5715
    15.5717  15.5717  15.5718  15.5719  15.5935  15.5938  15.5938  15.5939
    16.2200  16.2202  16.2202  16.2202  16.4574  16.4575  16.4576  16.4576
    16.6349  16.6349  16.6350  16.6350  16.6657  16.6658  16.6658  16.6660
    16.6837  16.6837  16.6838  16.6839  16.7074  16.7074  16.7074  16.7076
    16.7153  16.7154  16.7155  16.7155  16.7589  16.7589  16.7590  16.7590
    16.7590  16.7590  16.7591  16.7592  16.9464  16.9464  16.9465  16.9466
    16.9466  16.9466  16.9467  16.9468  16.9553  16.9555  16.9555  16.9557
    17.3959  17.3960  17.3960  17.3961  17.4331  17.4331  17.4331  17.4332
    17.4333  17.4333  17.4333  17.4334  17.7309  17.7309  17.7310  17.7310
    17.7311  17.7311  17.7311  17.7312  17.7570  17.7571  17.7571  17.7572
    17.8944  17.8945  17.8945  17.8946  18.0772  18.0773  18.0774  18.0774
    18.1027  18.1028  18.1029  18.1029  18.2528  18.2529  18.2530  18.2531
    19.1094  19.1094  19.1095  19.1095  19.1095  19.1095  19.1096  19.1096
    19.1141  19.1142  19.1142  19.1143  19.1353  19.1354  19.1354  19.1354
    19.1450  19.1450  19.1450  19.1450  19.1451  19.1451  19.1451  19.1451
    21.8180  21.8183  21.8184  21.8185  22.4208  22.4208  22.4209  22.4209
    22.4211  22.4211  22.4211  22.4211  23.0544  23.0544  23.0545  23.0545
    23.0546  23.0547  23.0547  23.0547  23.5837  23.5840  23.5840  23.5842
    27.4838  27.4838  27.4840  27.4840  27.4841  27.4841  27.4842  27.4842
    27.7746  27.7748  27.7749  27.7749  28.6262  28.6265  28.6265  28.6265
    28.8435  28.8435  28.8436  28.8436  28.8438  28.8438  28.8439  28.8439
    32.3013  32.3014

          k =-0.5000-0.5000-0.4975 ( 33152 PWs)   bands (ev):

   -64.9619 -64.9617 -64.9616 -64.9615 -64.9611 -64.9609 -64.9609 -64.9607
   -64.9308 -64.9306 -64.9306 -64.9305 -64.9305 -64.9304 -64.9304 -64.9303
   -64.9300 -64.9300 -64.9298 -64.9298 -64.9297 -64.9297 -64.9296 -64.9296
   -64.9296 -64.9295 -64.9294 -64.9293 -64.9291 -64.9289 -64.9289 -64.9288
   -30.8063 -30.8062 -30.8062 -30.8062 -30.8058 -30.8058 -30.8057 -30.8057
   -30.8055 -30.8055 -30.8055 -30.8055 -30.8051 -30.8050 -30.8050 -30.8050
   -30.8039 -30.8038 -30.8038 -30.8037 -30.8037 -30.8036 -30.8035 -30.8034
   -30.6848 -30.6847 -30.6847 -30.6847 -30.6845 -30.6845 -30.6844 -30.6844
   -30.6485 -30.6485 -30.6485 -30.6484 -30.6482 -30.6482 -30.6482 -30.6482
   -30.6482 -30.6482 -30.6481 -30.6481 -30.6479 -30.6479 -30.6479 -30.6478
   -30.6478 -30.6478 -30.6478 -30.6477 -30.6477 -30.6476 -30.6476 -30.6475
   -30.5958 -30.5958 -30.5957 -30.5957 -30.5957 -30.5957 -30.5956 -30.5956
   -30.5954 -30.5954 -30.5953 -30.5953 -30.5953 -30.5953 -30.5952 -30.5952
   -30.5934 -30.5934 -30.5933 -30.5933 -30.5926 -30.5926 -30.5926 -30.5925
   -30.5264 -30.5263 -30.5263 -30.5262 -30.5261 -30.5260 -30.5260 -30.5259
   -30.5252 -30.5252 -30.5252 -30.5252 -30.5245 -30.5245 -30.5245 -30.5244
    13.8318  13.8322  13.8322  13.8325  13.8326  13.8329  13.8329  13.8332
    14.6799  14.6800  14.6800  14.6800  14.6806  14.6807  14.6807  14.6807
    14.6830  14.6830  14.6830  14.6832  14.6832  14.6832  14.6833  14.6833
    14.6834  14.6834  14.6834  14.6834  14.6836  14.6836  14.6836  14.6836
    15.4324  15.4325  15.4327  15.4327  15.4328  15.4329  15.4330  15.4330
    15.4330  15.4330  15.4330  15.4332  15.4333  15.4334  15.4334  15.4335
    15.4361  15.4364  15.4364  15.4365  15.4370  15.4372  15.4373  15.4373
    16.3579  16.3581  16.3581  16.3581  16.3581  16.3582  16.3582  16.3582
    16.6443  16.6444  16.6444  16.6445  16.6447  16.6448  16.6448  16.6449
    16.6839  16.6840  16.6840  16.6842  16.6843  16.6843  16.6843  16.6845
    16.8334  16.8335  16.8335  16.8336  16.8339  16.8340  16.8340  16.8342
    16.8559  16.8559  16.8559  16.8560  16.8560  16.8561  16.8561  16.8561
    16.8562  16.8562  16.8562  16.8562  16.8563  16.8563  16.8564  16.8564
    17.5550  17.5550  17.5552  17.5553  17.5554  17.5555  17.5555  17.5555
    17.5555  17.5556  17.5556  17.5557  17.5558  17.5559  17.5560  17.5561
    17.5746  17.5747  17.5747  17.5748  17.5749  17.5750  17.5750  17.5751
    18.0566  18.0567  18.0568  18.0568  18.0572  18.0572  18.0574  18.0574
    18.0699  18.0699  18.0700  18.0701  18.0702  18.0703  18.0703  18.0705
    19.1417  19.1417  19.1417  19.1418  19.1418  19.1419  19.1419  19.1420
    19.1487  19.1487  19.1487  19.1488  19.1489  19.1490  19.1490  19.1490
    19.1491  19.1491  19.1491  19.1492  19.1494  19.1494  19.1494  19.1495
    22.6833  22.6836  22.6836  22.6837  22.6838  22.6840  22.6840  22.6842
    22.7244  22.7245  22.7245  22.7247  22.7247  22.7249  22.7249  22.7249
    22.7250  22.7251  22.7252  22.7253  22.7253  22.7255  22.7256  22.7256
    28.1222  28.1222  28.1224  28.1224  28.1224  28.1225  28.1225  28.1226
    28.1228  28.1229  28.1229  28.1229  28.1229  28.1231  28.1231  28.1231
    28.1682  28.1684  28.1685  28.1685  28.1690  28.1692  28.1693  28.1693
    33.3971  33.3974

     the Fermi energy is    19.1688 ev

!    total energy              =  -16384.95933359 Ry
     Harris-Foulkes estimate   =  -16384.95932257 Ry
     estimated scf accuracy    <       0.00000050 Ry

     total all-electron energy =   -322945.813041 Ry

     The total energy is the sum of the following terms:

     one-electron contribution =   -2501.10134456 Ry
     hartree contribution      =    1665.99467415 Ry
     xc contribution           =    -986.41168277 Ry
     ewald contribution        =   -6396.05433137 Ry
     one-center paw contrib.   =   -8167.42124253 Ry
     smearing contrib. (-TS)   =       0.03459349 Ry

     convergence has been achieved in  11 iterations

     Forces acting on atoms (cartesian axes, Ry/au):

     atom    1 type  1   force =     0.00000000    0.00000000    0.00000000
     atom    2 type  1   force =     0.00009257    0.00009257    0.00000000
     atom    3 type  1   force =     0.00005372    0.00000000   -0.00001117
     atom    4 type  1   force =     0.00000000    0.00005372   -0.00001117
     atom    5 type  1   force =     0.00000000    0.00000000    0.00000000
     atom    6 type  1   force =     0.00012377    0.00012377    0.00000000
     atom    7 type  1   force =     0.00005372    0.00000000    0.00001117
     atom    8 type  1   force =     0.00000000    0.00005372    0.00001117
     atom    9 type  1   force =     0.00000000    0.00000000    0.00000000
     atom   10 type  1   force =     0.00009257   -0.00009257    0.00000000
     atom   11 type  1   force =     0.00015661    0.00000000   -0.00001276
     atom   12 type  1   force =     0.00000000   -0.00005372   -0.00001117
     atom   13 type  1   force =     0.00000000    0.00000000    0.00000000
     atom   14 type  1   force =     0.00012377   -0.00012377    0.00000000
     atom   15 type  1   force =     0.00015661    0.00000000    0.00001276
     atom   16 type  1   force =     0.00000000   -0.00005372    0.00001117
     atom   17 type  1   force =     0.00000000    0.00000000    0.00000000
     atom   18 type  1   force =    -0.00009257    0.00009257    0.00000000
     atom   19 type  1   force =    -0.00005372   -0.00000000   -0.00001117
     atom   20 type  1   force =     0.00000000    0.00015661   -0.00001276
     atom   21 type  1   force =     0.00000000    0.00000000    0.00000000
     atom   22 type  1   force =    -0.00012377    0.00012377    0.00000000
     atom   23 type  1   force =    -0.00005372    0.00000000    0.00001117
     atom   24 type  1   force =     0.00000000    0.00015661    0.00001276
     atom   25 type  1   force =     0.00000000    0.00000000    0.00000000
     atom   26 type  1   force =    -0.00009257   -0.00009257    0.00000000
     atom   27 type  1   force =    -0.00015661    0.00000000   -0.00001276
     atom   28 type  1   force =     0.00000000   -0.00015661   -0.00001276
     atom   29 type  1   force =     0.00000000    0.00000000    0.00000000
     atom   30 type  1   force =    -0.00012377   -0.00012377    0.00000000
     atom   31 type  1   force =    -0.00015661    0.00000000    0.00001276
     atom   32 type  1   force =     0.00000000   -0.00015661    0.00001276

     Total force =     0.000642     Total SCF correction =     0.005416
     SCF correction compared to forces is large: reduce conv_thr to get better values


     Computing stress (Cartesian axis) and pressure

          total   stress  (Ry/bohr**3)                   (kbar)     P=   -7.40
  -0.00004182   0.00000000   0.00000000         -6.15      0.00      0.00
   0.00000000  -0.00004182   0.00000000          0.00     -6.15      0.00
   0.00000000   0.00000000  -0.00006721          0.00      0.00     -9.89


     Writing output data file umRKBLJjGULJwsJH.save/
 
     init_run     :     43.80s CPU     47.39s WALL (       1 calls)
     electrons    :   2034.36s CPU   2145.23s WALL (       1 calls)
     forces       :     18.67s CPU     19.37s WALL (       1 calls)
     stress       :    186.00s CPU    186.77s WALL (       1 calls)

     Called by init_run:
     wfcinit      :     43.03s CPU     46.55s WALL (       1 calls)
     potinit      :      0.37s CPU      0.39s WALL (       1 calls)
     hinit0       :      0.21s CPU      0.23s WALL (       1 calls)

     Called by electrons:
     c_bands      :   1837.85s CPU   1928.48s WALL (      12 calls)
     sum_band     :    192.48s CPU    212.29s WALL (      12 calls)
     v_of_rho     :      0.34s CPU      0.37s WALL (      12 calls)
     newd         :      0.82s CPU      1.11s WALL (      12 calls)
     PAW_pot      :      3.04s CPU      3.10s WALL (      12 calls)
     mix_rho      :      0.09s CPU      0.10s WALL (      12 calls)

     Called by c_bands:
     init_us_2    :     10.67s CPU     10.71s WALL (    2025 calls)
     cegterg      :   1777.62s CPU   1867.97s WALL (     900 calls)

     Called by sum_band:
     sum_band:bec :      1.36s CPU      1.37s WALL (     900 calls)
     addusdens    :      0.87s CPU      1.17s WALL (      12 calls)

     Called by *egterg:
     h_psi        :    780.18s CPU    862.44s WALL (    2567 calls)
     s_psi        :     85.65s CPU     85.93s WALL (    2567 calls)
     g_psi        :      2.48s CPU      2.50s WALL (    1592 calls)
     cdiaghg      :    639.44s CPU    641.32s WALL (    2417 calls)

     Called by h_psi:
     h_psi:pot    :    773.59s CPU    855.61s WALL (    2567 calls)
     h_psi:calbec :     88.39s CPU     92.63s WALL (    2567 calls)
     vloc_psi     :    600.40s CPU    677.82s WALL (    2567 calls)
     add_vuspsi   :     84.78s CPU     85.14s WALL (    2567 calls)

     General routines
     calbec       :    148.51s CPU    155.49s WALL (    3842 calls)
     fft          :      0.33s CPU      0.37s WALL (     181 calls)
     ffts         :      0.03s CPU      0.03s WALL (      24 calls)
     fftw         :    691.01s CPU    779.43s WALL ( 1703408 calls)
     interpolate  :      0.05s CPU      0.05s WALL (      12 calls)
 
     Parallel routines
     fft_scatt_xy :     62.29s CPU     70.01s WALL ( 1703613 calls)
     fft_scatt_yz :    417.58s CPU    472.20s WALL ( 1703613 calls)
 
     PWSCF        : 38m10.14s CPU    41m36.90s WALL

 
   This run was terminated on:  22: 2:57  11Nov2020            

=------------------------------------------------------------------------------=
   JOB DONE.
=------------------------------------------------------------------------------=
