--------------------------------------------------------------------------
WARNING: No preset parameters were found for the device that Open MPI
detected:

  Local host:            bear-pg0206u14b
  Device name:           mlx5_0
  Device vendor ID:      0x02c9
  Device vendor part ID: 4123

Default device parameters will be used, which may result in lower
performance.  You can edit any of the files specified by the
btl_openib_device_param_files MCA parameter to set values for your
device.

NOTE: You can turn off this warning by setting the MCA parameter
      btl_openib_warn_no_device_params_found to 0.
--------------------------------------------------------------------------
--------------------------------------------------------------------------
WARNING: There was an error initializing an OpenFabrics device.

  Local host:   bear-pg0206u14b
  Local device: mlx5_0
--------------------------------------------------------------------------

     Program PWSCF v.6.3 starts on 11Nov2020 at 20: 1:30 

     This program is part of the open-source Quantum ESPRESSO suite
     for quantum simulation of materials; please cite
         "P. Giannozzi et al., J. Phys.:Condens. Matter 21 395502 (2009);
         "P. Giannozzi et al., J. Phys.:Condens. Matter 29 465901 (2017);
          URL http://www.quantum-espresso.org", 
     in publications or presentations arising from this work. More details at
     http://www.quantum-espresso.org/quote

     Parallel version (MPI & OpenMP), running on      20 processor cores
     Number of MPI processes:                20
     Threads/MPI process:                     1

     MPI processes distributed on     1 nodes
     R & G space division:  proc/nbgrp/npool/nimage =      20
     Reading input from wd/ec/ec_3_005.in
Warning: card &IONS ignored
Warning: card ION_DYNAMICS = 'BFGS', ignored
Warning: card / ignored
Warning: card &CELL ignored
Warning: card CELL_DYNAMICS = 'BFGS', ignored
Warning: card CELL_FACTOR = 2.0, ignored
Warning: card PRESS = 0.0, ignored
Warning: card / ignored

     Current dimensions of program PWSCF are:
     Max number of different atomic species (ntypx) = 10
     Max number of k-points (npk) =  40000
     Max angular momentum in pseudopotentials (lmaxx) =  3
               file Pd.pbe-spn-kjpaw_psl.1.0.0.UPF: wavefunction(s)  4S 5S 4D renormalized

     Subspace diagonalization in iterative solution of the eigenvalue problem:
     a serial algorithm will be used

 
     Parallelization info
     --------------------
     sticks:   dense  smooth     PW     G-vecs:    dense   smooth      PW
     Min         376     247     67                24672    13241    1875
     Max         377     248     68                24677    13246    1880
     Sum        7521    4957   1353               493467   264899   37577
 


     bravais-lattice index     =            0
     lattice parameter (alat)  =      14.8394  a.u.
     unit-cell volume          =    3278.6572 (a.u.)^3
     number of atoms/cell      =           32
     number of atomic types    =            1
     number of electrons       =       576.00
     number of Kohn-Sham states=          346
     kinetic-energy cutoff     =      71.0000  Ry
     charge density cutoff     =     430.0000  Ry
     convergence threshold     =      1.0E-06
     mixing beta               =       0.1000
     number of iterations used =           10  plain     mixing
     Exchange-correlation      = SLA PW PBX PBC ( 1  4  3  4 0 0)

     celldm(1)=  14.839420  celldm(2)=   0.000000  celldm(3)=   0.000000
     celldm(4)=   0.000000  celldm(5)=   0.000000  celldm(6)=   0.000000

     crystal axes: (cart. coord. in units of alat)
               a(1) = (   1.000000   0.000000   0.000000 )  
               a(2) = (   0.000000   1.000000   0.000000 )  
               a(3) = (   0.000000   0.000000   1.003333 )  

     reciprocal axes: (cart. coord. in units 2 pi/alat)
               b(1) = (  1.000000  0.000000  0.000000 )  
               b(2) = (  0.000000  1.000000  0.000000 )  
               b(3) = (  0.000000  0.000000  0.996678 )  


     PseudoPot. # 1 for Pd read from file:
     /rds/homes/b/bxp912/pp/Pd.pbe-spn-kjpaw_psl.1.0.0.UPF
     MD5 check sum: 790f2ebce206edfd9790dcb9844eca51
     Pseudo is Projector augmented-wave + core cor, Zval = 18.0
     Generated using "atomic" code by A. Dal Corso v.6.3
     Shape of augmentation charge: PSQ
     Using radial grid of 1235 points,  6 beta functions with: 
                l(1) =   0
                l(2) =   0
                l(3) =   1
                l(4) =   1
                l(5) =   2
                l(6) =   2
     Q(r) pseudized with 0 coefficients 


     atomic species   valence    mass     pseudopotential
        Pd            18.00   106.42000     Pd( 1.00)

     16 Sym. Ops., with inversion, found



   Cartesian axes

     site n.     atom                  positions (alat units)
         1           Pd  tau(   1) = (   0.0000000   0.0000000   0.0000000  )
         2           Pd  tau(   2) = (   0.2500045   0.2500045   0.0000000  )
         3           Pd  tau(   3) = (   0.2500045   0.0000000   0.2508373  )
         4           Pd  tau(   4) = (   0.0000000   0.2500045   0.2508373  )
         5           Pd  tau(   5) = (   0.0000000   0.0000000   0.5016657  )
         6           Pd  tau(   6) = (   0.2500116   0.2500116   0.5016657  )
         7           Pd  tau(   7) = (   0.2500045   0.0000000   0.7524950  )
         8           Pd  tau(   8) = (   0.0000000   0.2500045   0.7524950  )
         9           Pd  tau(   9) = (   0.0000000   0.4999998   0.0000000  )
        10           Pd  tau(  10) = (   0.2500045   0.7499952   0.0000000  )
        11           Pd  tau(  11) = (   0.2500116   0.4999998   0.2508443  )
        12           Pd  tau(  12) = (   0.0000000   0.7499952   0.2508373  )
        13           Pd  tau(  13) = (   0.0000000   0.4999998   0.5016657  )
        14           Pd  tau(  14) = (   0.2500116   0.7499881   0.5016657  )
        15           Pd  tau(  15) = (   0.2500116   0.4999998   0.7524881  )
        16           Pd  tau(  16) = (   0.0000000   0.7499952   0.7524950  )
        17           Pd  tau(  17) = (   0.4999998   0.0000000   0.0000000  )
        18           Pd  tau(  18) = (   0.7499952   0.2500045   0.0000000  )
        19           Pd  tau(  19) = (   0.7499952   0.0000000   0.2508373  )
        20           Pd  tau(  20) = (   0.4999998   0.2500116   0.2508443  )
        21           Pd  tau(  21) = (   0.4999998   0.0000000   0.5016657  )
        22           Pd  tau(  22) = (   0.7499881   0.2500116   0.5016657  )
        23           Pd  tau(  23) = (   0.7499952   0.0000000   0.7524950  )
        24           Pd  tau(  24) = (   0.4999998   0.2500116   0.7524881  )
        25           Pd  tau(  25) = (   0.4999998   0.4999998   0.0000000  )
        26           Pd  tau(  26) = (   0.7499952   0.7499952   0.0000000  )
        27           Pd  tau(  27) = (   0.7499881   0.4999998   0.2508443  )
        28           Pd  tau(  28) = (   0.4999998   0.7499881   0.2508443  )
        29           Pd  tau(  29) = (   0.4999998   0.4999998   0.5016657  )
        30           Pd  tau(  30) = (   0.7499881   0.7499881   0.5016657  )
        31           Pd  tau(  31) = (   0.7499881   0.4999998   0.7524881  )
        32           Pd  tau(  32) = (   0.4999998   0.7499881   0.7524881  )

     number of k points=    75  Marzari-Vanderbilt smearing, width (Ry)=  0.0400
                       cart. coord. in units 2pi/alat
        k(    1) = (   0.0555556   0.0555556   0.0553710), wk =   0.0219479
        k(    2) = (   0.0555556   0.0555556   0.1661130), wk =   0.0219479
        k(    3) = (   0.0555556   0.0555556   0.2768549), wk =   0.0219479
        k(    4) = (   0.0555556   0.0555556   0.3875969), wk =   0.0219479
        k(    5) = (   0.0555556   0.0555556  -0.4983389), wk =   0.0109739
        k(    6) = (   0.0555556   0.1666667   0.0553710), wk =   0.0438957
        k(    7) = (   0.0555556   0.1666667   0.1661130), wk =   0.0438957
        k(    8) = (   0.0555556   0.1666667   0.2768549), wk =   0.0438957
        k(    9) = (   0.0555556   0.1666667   0.3875969), wk =   0.0438957
        k(   10) = (   0.0555556   0.1666667  -0.4983389), wk =   0.0219479
        k(   11) = (   0.0555556   0.2777778   0.0553710), wk =   0.0438957
        k(   12) = (   0.0555556   0.2777778   0.1661130), wk =   0.0438957
        k(   13) = (   0.0555556   0.2777778   0.2768549), wk =   0.0438957
        k(   14) = (   0.0555556   0.2777778   0.3875969), wk =   0.0438957
        k(   15) = (   0.0555556   0.2777778  -0.4983389), wk =   0.0219479
        k(   16) = (   0.0555556   0.3888889   0.0553710), wk =   0.0438957
        k(   17) = (   0.0555556   0.3888889   0.1661130), wk =   0.0438957
        k(   18) = (   0.0555556   0.3888889   0.2768549), wk =   0.0438957
        k(   19) = (   0.0555556   0.3888889   0.3875969), wk =   0.0438957
        k(   20) = (   0.0555556   0.3888889  -0.4983389), wk =   0.0219479
        k(   21) = (   0.0555556  -0.5000000   0.0553710), wk =   0.0219479
        k(   22) = (   0.0555556  -0.5000000   0.1661130), wk =   0.0219479
        k(   23) = (   0.0555556  -0.5000000   0.2768549), wk =   0.0219479
        k(   24) = (   0.0555556  -0.5000000   0.3875969), wk =   0.0219479
        k(   25) = (   0.0555556  -0.5000000  -0.4983389), wk =   0.0109739
        k(   26) = (   0.1666667   0.1666667   0.0553710), wk =   0.0219479
        k(   27) = (   0.1666667   0.1666667   0.1661130), wk =   0.0219479
        k(   28) = (   0.1666667   0.1666667   0.2768549), wk =   0.0219479
        k(   29) = (   0.1666667   0.1666667   0.3875969), wk =   0.0219479
        k(   30) = (   0.1666667   0.1666667  -0.4983389), wk =   0.0109739
        k(   31) = (   0.1666667   0.2777778   0.0553710), wk =   0.0438957
        k(   32) = (   0.1666667   0.2777778   0.1661130), wk =   0.0438957
        k(   33) = (   0.1666667   0.2777778   0.2768549), wk =   0.0438957
        k(   34) = (   0.1666667   0.2777778   0.3875969), wk =   0.0438957
        k(   35) = (   0.1666667   0.2777778  -0.4983389), wk =   0.0219479
        k(   36) = (   0.1666667   0.3888889   0.0553710), wk =   0.0438957
        k(   37) = (   0.1666667   0.3888889   0.1661130), wk =   0.0438957
        k(   38) = (   0.1666667   0.3888889   0.2768549), wk =   0.0438957
        k(   39) = (   0.1666667   0.3888889   0.3875969), wk =   0.0438957
        k(   40) = (   0.1666667   0.3888889  -0.4983389), wk =   0.0219479
        k(   41) = (   0.1666667  -0.5000000   0.0553710), wk =   0.0219479
        k(   42) = (   0.1666667  -0.5000000   0.1661130), wk =   0.0219479
        k(   43) = (   0.1666667  -0.5000000   0.2768549), wk =   0.0219479
        k(   44) = (   0.1666667  -0.5000000   0.3875969), wk =   0.0219479
        k(   45) = (   0.1666667  -0.5000000  -0.4983389), wk =   0.0109739
        k(   46) = (   0.2777778   0.2777778   0.0553710), wk =   0.0219479
        k(   47) = (   0.2777778   0.2777778   0.1661130), wk =   0.0219479
        k(   48) = (   0.2777778   0.2777778   0.2768549), wk =   0.0219479
        k(   49) = (   0.2777778   0.2777778   0.3875969), wk =   0.0219479
        k(   50) = (   0.2777778   0.2777778  -0.4983389), wk =   0.0109739
        k(   51) = (   0.2777778   0.3888889   0.0553710), wk =   0.0438957
        k(   52) = (   0.2777778   0.3888889   0.1661130), wk =   0.0438957
        k(   53) = (   0.2777778   0.3888889   0.2768549), wk =   0.0438957
        k(   54) = (   0.2777778   0.3888889   0.3875969), wk =   0.0438957
        k(   55) = (   0.2777778   0.3888889  -0.4983389), wk =   0.0219479
        k(   56) = (   0.2777778  -0.5000000   0.0553710), wk =   0.0219479
        k(   57) = (   0.2777778  -0.5000000   0.1661130), wk =   0.0219479
        k(   58) = (   0.2777778  -0.5000000   0.2768549), wk =   0.0219479
        k(   59) = (   0.2777778  -0.5000000   0.3875969), wk =   0.0219479
        k(   60) = (   0.2777778  -0.5000000  -0.4983389), wk =   0.0109739
        k(   61) = (   0.3888889   0.3888889   0.0553710), wk =   0.0219479
        k(   62) = (   0.3888889   0.3888889   0.1661130), wk =   0.0219479
        k(   63) = (   0.3888889   0.3888889   0.2768549), wk =   0.0219479
        k(   64) = (   0.3888889   0.3888889   0.3875969), wk =   0.0219479
        k(   65) = (   0.3888889   0.3888889  -0.4983389), wk =   0.0109739
        k(   66) = (   0.3888889  -0.5000000   0.0553710), wk =   0.0219479
        k(   67) = (   0.3888889  -0.5000000   0.1661130), wk =   0.0219479
        k(   68) = (   0.3888889  -0.5000000   0.2768549), wk =   0.0219479
        k(   69) = (   0.3888889  -0.5000000   0.3875969), wk =   0.0219479
        k(   70) = (   0.3888889  -0.5000000  -0.4983389), wk =   0.0109739
        k(   71) = (  -0.5000000  -0.5000000   0.0553710), wk =   0.0054870
        k(   72) = (  -0.5000000  -0.5000000   0.1661130), wk =   0.0054870
        k(   73) = (  -0.5000000  -0.5000000   0.2768549), wk =   0.0054870
        k(   74) = (  -0.5000000  -0.5000000   0.3875969), wk =   0.0054870
        k(   75) = (  -0.5000000  -0.5000000  -0.4983389), wk =   0.0027435

     Dense  grid:   493467 G-vectors     FFT dimensions: ( 100, 100, 100)

     Smooth grid:   264899 G-vectors     FFT dimensions: (  80,  80,  80)

     Estimated max dynamical RAM per process >     893.69 MB

     Estimated total dynamical RAM >      17.45 GB

     Check: negative/imaginary core charge=   -0.000002    0.000000

     Initial potential from superposition of free atoms

     starting charge  575.98776, renormalised to  576.00000
     Starting wfcs are  320 randomized atomic wfcs +   26 random wfcs
     Checking if some PAW data can be deallocated... 

     total cpu time spent up to now is       45.0 secs

     Self-consistent Calculation

     iteration #  1     ecut=    71.00 Ry     beta= 0.10
     Davidson diagonalization with overlap
     ethr =  1.00E-02,  avg # of iterations =  3.1

     Threshold (ethr) on eigenvalues was too large:
     Diagonalizing with lowered threshold

     Davidson diagonalization with overlap
     ethr =  8.50E-05,  avg # of iterations =  3.1

     total cpu time spent up to now is      493.5 secs

     total energy              =  -16385.02223178 Ry
     Harris-Foulkes estimate   =  -16385.09119813 Ry
     estimated scf accuracy    <       0.48331257 Ry

     iteration #  2     ecut=    71.00 Ry     beta= 0.10
     Davidson diagonalization with overlap
     ethr =  8.39E-05,  avg # of iterations =  1.0

     total cpu time spent up to now is      630.2 secs

     total energy              =  -16384.92959139 Ry
     Harris-Foulkes estimate   =  -16385.03014706 Ry
     estimated scf accuracy    <       0.26262916 Ry

     iteration #  3     ecut=    71.00 Ry     beta= 0.10
     Davidson diagonalization with overlap
     ethr =  4.56E-05,  avg # of iterations =  2.2

     total cpu time spent up to now is      819.4 secs

     total energy              =  -16384.96245855 Ry
     Harris-Foulkes estimate   =  -16384.96794981 Ry
     estimated scf accuracy    <       0.07250992 Ry

     iteration #  4     ecut=    71.00 Ry     beta= 0.10
     Davidson diagonalization with overlap
     ethr =  1.26E-05,  avg # of iterations =  1.5

     total cpu time spent up to now is      968.6 secs

     total energy              =  -16384.96302285 Ry
     Harris-Foulkes estimate   =  -16384.96517917 Ry
     estimated scf accuracy    <       0.02209208 Ry

     iteration #  5     ecut=    71.00 Ry     beta= 0.10
     Davidson diagonalization with overlap
     ethr =  3.84E-06,  avg # of iterations =  1.2

     total cpu time spent up to now is     1111.3 secs

     total energy              =  -16384.95795729 Ry
     Harris-Foulkes estimate   =  -16384.96321619 Ry
     estimated scf accuracy    <       0.01506900 Ry

     iteration #  6     ecut=    71.00 Ry     beta= 0.10
     Davidson diagonalization with overlap
     ethr =  2.62E-06,  avg # of iterations =  1.0

     total cpu time spent up to now is     1247.3 secs

     total energy              =  -16384.95896962 Ry
     Harris-Foulkes estimate   =  -16384.95897662 Ry
     estimated scf accuracy    <       0.00021178 Ry

     iteration #  7     ecut=    71.00 Ry     beta= 0.10
     Davidson diagonalization with overlap
     ethr =  3.68E-08,  avg # of iterations =  3.1

     total cpu time spent up to now is     1496.9 secs

     total energy              =  -16384.95905045 Ry
     Harris-Foulkes estimate   =  -16384.95906601 Ry
     estimated scf accuracy    <       0.00025056 Ry

     iteration #  8     ecut=    71.00 Ry     beta= 0.10
     Davidson diagonalization with overlap
     ethr =  3.68E-08,  avg # of iterations =  1.1

     total cpu time spent up to now is     1636.4 secs

     total energy              =  -16384.95905394 Ry
     Harris-Foulkes estimate   =  -16384.95905828 Ry
     estimated scf accuracy    <       0.00005352 Ry

     iteration #  9     ecut=    71.00 Ry     beta= 0.10
     Davidson diagonalization with overlap
     ethr =  9.29E-09,  avg # of iterations =  1.0

     total cpu time spent up to now is     1771.4 secs

     total energy              =  -16384.95905368 Ry
     Harris-Foulkes estimate   =  -16384.95905494 Ry
     estimated scf accuracy    <       0.00003734 Ry

     iteration # 10     ecut=    71.00 Ry     beta= 0.10
     Davidson diagonalization with overlap
     ethr =  6.48E-09,  avg # of iterations =  2.0

     total cpu time spent up to now is     1956.1 secs

     total energy              =  -16384.95906094 Ry
     Harris-Foulkes estimate   =  -16384.95905783 Ry
     estimated scf accuracy    <       0.00000409 Ry

     iteration # 11     ecut=    71.00 Ry     beta= 0.10
     Davidson diagonalization with overlap
     ethr =  7.11E-10,  avg # of iterations =  1.0

     total cpu time spent up to now is     2092.9 secs

     End of self-consistent calculation

          k = 0.0556 0.0556 0.0554 ( 33087 PWs)   bands (ev):

   -64.9465 -64.9180 -64.9177 -64.9176 -64.9125 -64.9122 -64.9121 -64.9022
   -64.9021 -64.9021 -64.8999 -64.8995 -64.8993 -64.8992 -64.8991 -64.8991
   -64.8990 -64.8990 -64.8988 -64.8983 -64.8966 -64.8965 -64.8965 -64.8841
   -64.8841 -64.8838 -64.8836 -64.8836 -64.8835 -64.8834 -64.8832 -64.8826
   -30.8288 -30.8288 -30.8288 -30.8269 -30.8089 -30.8089 -30.8077 -30.7331
   -30.7308 -30.7308 -30.7288 -30.7288 -30.7266 -30.7265 -30.7264 -30.7263
   -30.7211 -30.7187 -30.7187 -30.7155 -30.7155 -30.7139 -30.7139 -30.7135
   -30.7134 -30.6973 -30.6973 -30.6953 -30.6953 -30.6951 -30.6950 -30.6556
   -30.6555 -30.6546 -30.6315 -30.6315 -30.6305 -30.6254 -30.6254 -30.6247
   -30.6163 -30.6163 -30.6160 -30.6160 -30.6152 -30.6152 -30.6014 -30.6014
   -30.6013 -30.6013 -30.6007 -30.6007 -30.6004 -30.6004 -30.6003 -30.5994
   -30.5990 -30.5982 -30.5977 -30.5974 -30.5966 -30.5365 -30.5365 -30.5347
   -30.5346 -30.5346 -30.5343 -30.5240 -30.5240 -30.5226 -30.5225 -30.5224
   -30.5223 -30.5200 -30.5200 -30.5186 -30.5159 -30.5154 -30.5153 -30.5149
   -30.5149 -30.5148 -30.5148 -30.5144 -30.5139 -30.5138 -30.5135 -30.5131
   -30.5129 -30.5121 -30.5079 -30.5078 -30.5066 -30.4624 -30.4601 -30.4600
    12.2328  13.9915  13.9916  13.9916  14.0581  14.0717  14.0718  14.0718
    14.2506  14.2620  14.2620  14.2653  14.2654  14.2654  14.4463  14.4573
    14.4574  14.9928  14.9929  15.0040  15.0041  15.0043  15.0044  15.1457
    15.1569  15.1570  15.3002  15.3009  15.3009  15.3297  15.3434  15.3434
    15.3820  15.3821  15.3834  15.3837  15.3838  15.3841  15.3841  15.3866
    15.3867  15.7213  15.7213  15.7282  15.7282  15.7305  15.7306  15.8261
    15.8371  15.8371  15.8473  15.8473  15.8586  15.8587  15.8601  15.8602
    15.9035  15.9163  15.9163  16.0745  16.0745  16.0824  16.0824  16.0855
    16.0856  16.1839  16.1840  16.1889  16.1890  16.1892  16.1893  16.1910
    16.1940  16.1940  16.2973  16.2974  16.2990  16.3475  16.3624  16.3624
    16.3682  16.3922  16.3922  16.3967  16.4010  16.4072  16.4300  16.4398
    17.2121  17.2289  17.2289  17.2815  17.2815  17.2887  17.3537  17.3538
    17.3547  17.3548  17.3604  17.3604  17.3605  17.3605  17.3659  17.3978
    17.4162  17.4163  17.5085  17.5086  17.5208  17.6298  17.6299  17.6332
    17.7516  17.7517  17.7628  17.8093  17.8094  17.8192  17.8838  17.8838
    17.8867  17.8868  17.8871  17.8872  17.9044  17.9045  17.9058  17.9362
    17.9566  17.9566  17.9572  17.9572  17.9657  17.9657  17.9676  18.0655
    18.0656  18.0742  18.4490  18.4490  18.4629  18.5509  18.5509  18.5628
    18.9335  18.9335  18.9427  19.0589  19.0589  19.0605  19.0797  19.0926
    19.0997  19.1097  19.1097  19.3333  19.3344  19.3344  19.3831  19.3831
    19.3839  19.3839  19.3910  19.3946  19.3947  19.4004  19.4005  20.0651
    20.3694  20.3695  20.3696  20.8778  20.8779  20.8967  21.3850  21.3850
    21.3861  21.3862  21.4081  21.4081  21.9125  21.9126  21.9384  22.4680
    22.5307  22.5307  26.2411  26.2412  26.2416  26.3981  27.3688  27.3689
    27.3976  27.3976  27.4266  27.4267  28.0603  28.0603  28.0874  28.0874
    28.1184  28.1185  29.4758  29.4759  29.4878  29.4879  29.5165  29.5165
    29.5950  29.6827  29.6828  30.5828  30.6420  30.6421  30.6522  30.6523
    30.6733  30.6734

          k = 0.0556 0.0556 0.1661 ( 33097 PWs)   bands (ev):

   -64.9455 -64.9234 -64.9172 -64.9171 -64.9118 -64.9117 -64.9072 -64.9051
   -64.9050 -64.9021 -64.9016 -64.9015 -64.9000 -64.8999 -64.8992 -64.8989
   -64.8986 -64.8983 -64.8966 -64.8963 -64.8962 -64.8942 -64.8941 -64.8850
   -64.8843 -64.8842 -64.8841 -64.8840 -64.8840 -64.8834 -64.8832 -64.8826
   -30.8260 -30.8244 -30.8243 -30.8212 -30.8057 -30.8057 -30.8027 -30.7441
   -30.7391 -30.7391 -30.7332 -30.7332 -30.7327 -30.7327 -30.7315 -30.7315
   -30.7312 -30.7199 -30.7199 -30.7172 -30.7171 -30.7127 -30.7126 -30.7087
   -30.7087 -30.6979 -30.6979 -30.6920 -30.6919 -30.6841 -30.6796 -30.6796
   -30.6602 -30.6602 -30.6463 -30.6463 -30.6313 -30.6313 -30.6305 -30.6305
   -30.6189 -30.6052 -30.6052 -30.6049 -30.6049 -30.6014 -30.6013 -30.5992
   -30.5989 -30.5972 -30.5970 -30.5961 -30.5951 -30.5951 -30.5949 -30.5948
   -30.5948 -30.5944 -30.5910 -30.5868 -30.5868 -30.5466 -30.5461 -30.5393
   -30.5392 -30.5320 -30.5319 -30.5275 -30.5275 -30.5267 -30.5267 -30.5242
   -30.5242 -30.5222 -30.5196 -30.5195 -30.5193 -30.5192 -30.5185 -30.5158
   -30.5143 -30.5142 -30.5136 -30.5134 -30.5128 -30.5121 -30.5121 -30.5111
   -30.5106 -30.5103 -30.5068 -30.5033 -30.5033 -30.4685 -30.4620 -30.4613
    12.3057  13.9524  14.0253  14.0374  14.0375  14.0858  14.1131  14.1131
    14.1264  14.2927  14.3075  14.3075  14.3127  14.3128  14.5087  14.5088
    14.5171  14.9080  14.9081  14.9697  15.0382  15.0383  15.0453  15.0454
    15.0689  15.1493  15.1493  15.1830  15.1830  15.1883  15.1952  15.1953
    15.3416  15.3417  15.3652  15.3653  15.3741  15.3741  15.4112  15.4112
    15.4564  15.4564  15.5166  15.7087  15.7087  15.7333  15.7333  15.7791
    15.7791  15.7884  15.7885  15.8459  15.8459  15.9337  15.9337  15.9397
    15.9843  15.9843  16.0303  16.0435  16.0436  16.0446  16.0446  16.0901
    16.0902  16.1307  16.1307  16.1622  16.1623  16.3077  16.3324  16.3324
    16.3432  16.3433  16.3580  16.3635  16.3635  16.3690  16.4093  16.4186
    16.4194  16.4361  16.4361  16.4505  16.4666  16.4689  16.4689  16.4719
    17.0408  17.0409  17.1442  17.1510  17.1759  17.1760  17.2297  17.2298
    17.2468  17.2951  17.3047  17.3047  17.4245  17.4356  17.4357  17.4484
    17.4485  17.4860  17.4861  17.4906  17.4906  17.7061  17.7062  17.7189
    17.7303  17.7304  17.8020  17.8021  17.8827  17.8828  17.8887  17.8887
    17.8914  17.8915  17.8958  17.9743  17.9794  17.9794  17.9835  18.0152
    18.0991  18.0991  18.1109  18.1109  18.1408  18.1409  18.2015  18.2127
    18.2128  18.2435  18.3663  18.4956  18.4957  18.6244  18.6245  18.6299
    18.6634  18.6774  18.6774  18.8930  18.9967  18.9967  19.0137  19.0376
    19.0727  19.0770  19.0770  19.1001  19.1001  19.2642  19.3124  19.3124
    19.3140  19.3140  19.3301  19.3982  19.3984  19.4003  19.4005  20.0575
    20.4166  20.4167  20.5405  20.5405  20.7701  20.8677  20.8986  20.8986
    21.3851  21.3851  21.9190  21.9495  21.9496  22.1079  22.4893  22.4893
    22.8177  22.8177  26.2392  26.3984  26.3984  26.6596  26.6597  26.6841
    26.6841  26.6931  27.2527  27.2527  27.5572  27.5573  28.2418  28.2420
    28.7257  28.7257  29.5636  29.5636  29.6288  29.6687  29.6687  29.8178
    29.8179  29.8861  29.8861  30.0473  30.1087  30.1087  30.1727  30.1727
    30.6574  30.6575

          k = 0.0556 0.0556 0.2769 ( 33105 PWs)   bands (ev):

   -64.9436 -64.9285 -64.9162 -64.9161 -64.9109 -64.9108 -64.9079 -64.9078
   -64.9039 -64.9038 -64.9021 -64.9020 -64.9004 -64.8999 -64.8991 -64.8989
   -64.8983 -64.8982 -64.8967 -64.8935 -64.8934 -64.8919 -64.8918 -64.8869
   -64.8852 -64.8851 -64.8849 -64.8848 -64.8841 -64.8834 -64.8832 -64.8826
   -30.8192 -30.8162 -30.8162 -30.8117 -30.7996 -30.7996 -30.7931 -30.7607
   -30.7552 -30.7552 -30.7500 -30.7500 -30.7472 -30.7341 -30.7340 -30.7322
   -30.7321 -30.7224 -30.7223 -30.7134 -30.7133 -30.7120 -30.7113 -30.7113
   -30.6988 -30.6988 -30.6968 -30.6968 -30.6862 -30.6861 -30.6684 -30.6684
   -30.6626 -30.6626 -30.6605 -30.6605 -30.6443 -30.6443 -30.6418 -30.6418
   -30.6118 -30.6118 -30.6011 -30.5989 -30.5986 -30.5971 -30.5969 -30.5919
   -30.5905 -30.5889 -30.5889 -30.5871 -30.5870 -30.5859 -30.5859 -30.5850
   -30.5850 -30.5762 -30.5729 -30.5729 -30.5659 -30.5581 -30.5574 -30.5445
   -30.5445 -30.5369 -30.5368 -30.5351 -30.5351 -30.5324 -30.5318 -30.5318
   -30.5278 -30.5278 -30.5272 -30.5271 -30.5219 -30.5181 -30.5152 -30.5143
   -30.5142 -30.5141 -30.5136 -30.5134 -30.5128 -30.5117 -30.5116 -30.5101
   -30.5071 -30.5013 -30.5012 -30.4993 -30.4988 -30.4796 -30.4661 -30.4652
    12.4497  13.6040  14.0906  14.1267  14.1268  14.1549  14.1951  14.1952
    14.2211  14.3471  14.3914  14.3914  14.4109  14.4109  14.4872  14.6081
    14.6082  14.7625  14.7625  14.8063  14.8227  14.8999  14.8999  14.9511
    15.0578  15.0578  15.1023  15.1024  15.1256  15.1257  15.1309  15.1309
    15.2347  15.2347  15.2413  15.2413  15.3558  15.3559  15.4079  15.4079
    15.5197  15.5198  15.6636  15.6636  15.6908  15.6908  15.7006  15.7161
    15.7162  15.7351  15.7351  15.7603  15.7603  15.8718  15.8719  15.9446
    15.9447  15.9867  15.9944  15.9944  16.0614  16.0614  16.0970  16.0970
    16.1018  16.1018  16.1550  16.1860  16.1860  16.2520  16.2811  16.2917
    16.2918  16.3512  16.3669  16.3670  16.4749  16.5059  16.5059  16.5257
    16.5323  16.5356  16.6763  16.6763  16.6948  16.7434  16.8375  16.8376
    16.8862  16.8862  16.9107  16.9108  16.9819  17.0571  17.0664  17.0664
    17.0831  17.0902  17.3648  17.3893  17.3893  17.4830  17.4830  17.5549
    17.5551  17.5710  17.5711  17.6283  17.6284  17.6592  17.6594  17.7203
    17.7204  17.8181  17.8668  17.8668  17.8687  17.8687  17.8923  17.8924
    17.8961  17.8962  18.0149  18.0912  18.1457  18.1457  18.1613  18.1613
    18.1768  18.2630  18.2699  18.2757  18.3060  18.3061  18.3086  18.3086
    18.3497  18.3498  18.3802  18.3919  18.3919  18.4710  18.6418  18.6419
    18.6988  18.7012  18.7012  18.7627  18.8539  18.8539  18.9032  18.9032
    18.9049  18.9881  18.9901  18.9901  19.0005  19.1309  19.1806  19.1806
    19.1825  19.1825  19.2179  19.3986  19.3990  19.4001  19.4005  19.9912
    19.9913  20.2309  20.4399  20.4400  20.7652  20.7653  20.8083  21.1414
    21.3361  21.3361  21.5016  21.8741  22.5813  22.5813  23.1269  23.1269
    23.3002  23.3002  25.7805  25.7806  25.9633  25.9633  26.3398  26.3398
    26.4069  26.7105  26.7105  27.1147  27.8040  27.8041  28.4782  28.4784
    28.7415  29.2282  29.2282  29.2876  29.2876  29.5810  29.5810  29.6410
    29.6410  29.7185  29.7185  29.8473  29.9908  29.9909  30.1532  30.1532
    30.1613  30.1614

          k = 0.0556 0.0556 0.3876 ( 33095 PWs)   bands (ev):

   -64.9409 -64.9332 -64.9147 -64.9146 -64.9105 -64.9104 -64.9097 -64.9096
   -64.9061 -64.9060 -64.9018 -64.9007 -64.8999 -64.8991 -64.8989 -64.8983
   -64.8979 -64.8973 -64.8969 -64.8909 -64.8908 -64.8897 -64.8896 -64.8896
   -64.8867 -64.8866 -64.8861 -64.8860 -64.8841 -64.8834 -64.8832 -64.8826
   -30.8086 -30.8045 -30.8045 -30.7987 -30.7907 -30.7907 -30.7786 -30.7783
   -30.7728 -30.7728 -30.7655 -30.7655 -30.7652 -30.7374 -30.7341 -30.7340
   -30.7292 -30.7292 -30.7277 -30.7276 -30.7184 -30.7183 -30.7012 -30.7011
   -30.6938 -30.6937 -30.6833 -30.6833 -30.6788 -30.6788 -30.6783 -30.6783
   -30.6735 -30.6735 -30.6572 -30.6571 -30.6549 -30.6549 -30.6469 -30.6469
   -30.6211 -30.6211 -30.5987 -30.5983 -30.5973 -30.5970 -30.5858 -30.5845
   -30.5816 -30.5740 -30.5740 -30.5739 -30.5739 -30.5729 -30.5729 -30.5713
   -30.5712 -30.5686 -30.5677 -30.5601 -30.5601 -30.5600 -30.5522 -30.5522
   -30.5479 -30.5479 -30.5477 -30.5476 -30.5462 -30.5395 -30.5395 -30.5392
   -30.5392 -30.5392 -30.5317 -30.5219 -30.5218 -30.5175 -30.5160 -30.5143
   -30.5136 -30.5134 -30.5134 -30.5133 -30.5128 -30.5092 -30.5088 -30.5087
   -30.5075 -30.5016 -30.5015 -30.4953 -30.4890 -30.4882 -30.4721 -30.4711
    12.6610  13.2535  14.1818  14.2545  14.2545  14.2648  14.3170  14.3170
    14.3542  14.3996  14.4274  14.5168  14.5168  14.5491  14.5492  14.5882
    14.5882  14.6015  14.6594  14.6726  14.6727  14.7243  14.7484  14.7484
    14.8878  14.8878  14.8921  14.8921  15.0903  15.0904  15.1855  15.1856
    15.2412  15.2413  15.3111  15.3111  15.3252  15.3253  15.4691  15.4692
    15.5186  15.5187  15.5319  15.5319  15.6308  15.6308  15.6675  15.6675
    15.6817  15.6818  15.7266  15.7266  15.7718  15.7719  15.8754  15.9147
    15.9148  15.9429  15.9430  16.0462  16.1029  16.1030  16.1036  16.1036
    16.1223  16.1223  16.1718  16.1854  16.2220  16.2405  16.2405  16.2893
    16.2894  16.3183  16.4186  16.4187  16.5619  16.6040  16.6041  16.6285
    16.6305  16.6308  16.6584  16.6585  16.6657  16.6658  16.8202  16.8619
    16.8619  16.9031  16.9095  16.9161  17.0887  17.0934  17.0934  17.1062
    17.3291  17.3291  17.4522  17.4533  17.4533  17.4769  17.4769  17.6492
    17.6494  17.6874  17.6875  17.6944  17.6946  17.7090  17.7091  17.7094
    17.7482  17.7482  17.8365  17.8365  17.8765  17.8766  17.8766  17.8767
    17.8769  17.8993  17.8993  17.9079  17.9079  17.9990  18.0612  18.1067
    18.1068  18.1932  18.2558  18.2558  18.3481  18.3482  18.3851  18.4236
    18.5073  18.5073  18.5161  18.5664  18.5719  18.5719  18.5927  18.5927
    18.7461  18.7461  18.7589  18.8600  18.8600  18.8600  18.8872  18.8971
    18.9011  18.9012  18.9417  19.0038  19.0038  19.0042  19.0042  19.0804
    19.1973  19.1973  19.3068  19.3988  19.3993  19.3999  19.4004  19.5954
    19.5955  20.0037  20.0037  20.4223  20.7156  20.7753  20.9716  20.9716
    21.2554  21.2554  21.4391  21.7911  23.2853  23.2854  23.8323  23.8323
    23.8948  23.8948  24.8987  24.8987  25.2484  25.2484  25.4473  25.4473
    26.7542  27.1706  27.1706  27.6526  27.9472  28.1524  28.1525  28.4783
    28.4783  28.8108  28.8109  29.0323  29.0641  29.0641  29.4527  29.4527
    29.5996  29.5996  29.6757  29.6758  30.1039  30.1040  30.1356  30.1357
    30.3592  30.3592

          k = 0.0556 0.0556-0.4983 ( 33116 PWs)   bands (ev):

   -64.9378 -64.9370 -64.9132 -64.9131 -64.9124 -64.9123 -64.9084 -64.9083
   -64.9077 -64.9076 -64.9017 -64.9009 -64.8999 -64.8991 -64.8989 -64.8983
   -64.8977 -64.8970 -64.8935 -64.8928 -64.8890 -64.8889 -64.8883 -64.8882
   -64.8881 -64.8881 -64.8874 -64.8873 -64.8841 -64.8834 -64.8832 -64.8826
   -30.7948 -30.7945 -30.7903 -30.7899 -30.7895 -30.7892 -30.7830 -30.7826
   -30.7796 -30.7795 -30.7788 -30.7788 -30.7602 -30.7595 -30.7320 -30.7320
   -30.7317 -30.7317 -30.7245 -30.7245 -30.7243 -30.7243 -30.6903 -30.6903
   -30.6899 -30.6899 -30.6852 -30.6852 -30.6845 -30.6845 -30.6693 -30.6693
   -30.6690 -30.6690 -30.6689 -30.6689 -30.6682 -30.6682 -30.6333 -30.6333
   -30.6326 -30.6326 -30.5985 -30.5979 -30.5976 -30.5971 -30.5784 -30.5776
   -30.5772 -30.5764 -30.5630 -30.5627 -30.5625 -30.5625 -30.5617 -30.5617
   -30.5611 -30.5611 -30.5607 -30.5607 -30.5603 -30.5603 -30.5600 -30.5600
   -30.5548 -30.5544 -30.5540 -30.5537 -30.5491 -30.5491 -30.5484 -30.5484
   -30.5449 -30.5445 -30.5172 -30.5172 -30.5172 -30.5169 -30.5168 -30.5164
   -30.5157 -30.5151 -30.5143 -30.5136 -30.5134 -30.5128 -30.5088 -30.5080
   -30.5045 -30.5044 -30.5042 -30.5041 -30.4802 -30.4794 -30.4792 -30.4786
    12.9323  12.9333  14.2894  14.2902  14.4118  14.4123  14.4127  14.4132
    14.4142  14.4143  14.4765  14.4765  14.4774  14.4774  14.5231  14.5232
    14.5318  14.5327  14.6823  14.6823  14.6831  14.6831  14.7150  14.7151
    14.7158  14.7159  14.9158  14.9159  14.9166  14.9167  15.2674  15.2675
    15.2678  15.2679  15.3831  15.3832  15.3839  15.3840  15.4106  15.4107
    15.4113  15.4114  15.5450  15.5450  15.5456  15.5457  15.6957  15.6957
    15.6959  15.6959  15.7026  15.7026  15.7027  15.7028  15.9139  15.9140
    15.9140  15.9140  16.0342  16.0349  16.1054  16.1055  16.1061  16.1061
    16.1143  16.1148  16.1818  16.1824  16.1825  16.1830  16.2741  16.2746
    16.4546  16.4547  16.4548  16.4548  16.5162  16.5162  16.5164  16.5164
    16.6781  16.6783  16.7276  16.7278  16.7285  16.7287  16.7533  16.7541
    16.7552  16.7561  16.7625  16.7627  17.4707  17.4707  17.4713  17.4713
    17.4838  17.4838  17.4841  17.4841  17.4875  17.4879  17.5307  17.5311
    17.5807  17.5814  17.6908  17.6910  17.6915  17.6916  17.7772  17.7773
    17.7778  17.7779  17.7898  17.7898  17.7902  17.7902  17.7904  17.7906
    17.7910  17.7912  17.8310  17.8310  17.8316  17.8317  18.0055  18.0055
    18.0061  18.0062  18.1207  18.1215  18.5555  18.5560  18.5562  18.5567
    18.5826  18.5828  18.6954  18.6956  18.6961  18.6963  18.7044  18.7051
    18.7357  18.7359  18.7394  18.7397  18.7945  18.7945  18.7950  18.7950
    18.8018  18.8019  18.8023  18.8023  18.9600  18.9603  19.2287  19.2288
    19.2289  19.2289  19.3988  19.3995  19.3996  19.4003  19.5877  19.5878
    19.5879  19.5879  20.0206  20.0212  20.5866  20.5873  21.1354  21.1355
    21.1362  21.1362  21.6520  21.6527  24.0604  24.0604  24.0608  24.0608
    24.5529  24.5529  24.5535  24.5535  24.6071  24.6071  24.6074  24.6074
    27.2749  27.2750  27.7655  27.7656  27.7662  27.7663  28.2959  28.2960
    28.5798  28.5798  28.5805  28.5806  29.2174  29.2175  29.2182  29.2183
    29.5417  29.5422  29.5424  29.5428  30.3077  30.3077  30.3085  30.3086
    30.5895  30.5901

          k = 0.0556 0.1667 0.0554 ( 33096 PWs)   bands (ev):

   -64.9455 -64.9231 -64.9175 -64.9172 -64.9121 -64.9117 -64.9067 -64.9051
   -64.9051 -64.9020 -64.9017 -64.9016 -64.9000 -64.8992 -64.8992 -64.8990
   -64.8989 -64.8986 -64.8967 -64.8961 -64.8961 -64.8941 -64.8941 -64.8848
   -64.8842 -64.8841 -64.8840 -64.8839 -64.8837 -64.8837 -64.8835 -64.8829
   -30.8261 -30.8244 -30.8243 -30.8212 -30.8056 -30.8045 -30.8037 -30.7424
   -30.7373 -30.7371 -30.7348 -30.7339 -30.7329 -30.7319 -30.7318 -30.7312
   -30.7292 -30.7221 -30.7196 -30.7190 -30.7177 -30.7143 -30.7123 -30.7111
   -30.7086 -30.6999 -30.6983 -30.6939 -30.6916 -30.6851 -30.6773 -30.6772
   -30.6605 -30.6593 -30.6467 -30.6455 -30.6316 -30.6312 -30.6307 -30.6298
   -30.6194 -30.6056 -30.6053 -30.6034 -30.6019 -30.6008 -30.6007 -30.6001
   -30.5999 -30.5991 -30.5987 -30.5961 -30.5957 -30.5954 -30.5953 -30.5944
   -30.5939 -30.5934 -30.5915 -30.5864 -30.5857 -30.5487 -30.5466 -30.5374
   -30.5373 -30.5334 -30.5317 -30.5274 -30.5260 -30.5252 -30.5251 -30.5241
   -30.5229 -30.5210 -30.5205 -30.5198 -30.5192 -30.5191 -30.5181 -30.5155
   -30.5151 -30.5150 -30.5149 -30.5148 -30.5140 -30.5122 -30.5121 -30.5119
   -30.5110 -30.5106 -30.5081 -30.5033 -30.5022 -30.4687 -30.4621 -30.4614
    12.3062  13.9629  14.0260  14.0378  14.0379  14.0859  14.1131  14.1132
    14.1266  14.2932  14.3022  14.3072  14.3074  14.3132  14.4985  14.5092
    14.5269  14.9180  14.9185  14.9787  15.0282  15.0346  15.0388  15.0455
    15.0704  15.1514  15.1516  15.1721  15.1825  15.1911  15.1957  15.1965
    15.3424  15.3428  15.3520  15.3647  15.3708  15.3748  15.4055  15.4130
    15.4538  15.4564  15.5328  15.7139  15.7170  15.7242  15.7313  15.7692
    15.7768  15.7787  15.7867  15.8365  15.8486  15.9259  15.9339  15.9500
    15.9945  15.9978  16.0408  16.0436  16.0479  16.0510  16.0542  16.0791
    16.0873  16.1285  16.1330  16.1571  16.1603  16.3266  16.3302  16.3388
    16.3392  16.3529  16.3580  16.3599  16.3810  16.3815  16.4050  16.4071
    16.4147  16.4152  16.4312  16.4381  16.4441  16.4603  16.4703  16.4732
    17.0250  17.0340  17.1406  17.1525  17.1600  17.1708  17.2204  17.2206
    17.2384  17.2823  17.3069  17.3137  17.4272  17.4364  17.4425  17.4509
    17.4545  17.4894  17.4932  17.4987  17.5064  17.7077  17.7166  17.7344
    17.7354  17.7438  17.8029  17.8031  17.8805  17.8832  17.8897  17.8905
    17.8928  17.8974  17.9154  17.9642  17.9680  17.9825  17.9834  18.0052
    18.0986  18.1006  18.1050  18.1057  18.1408  18.1476  18.1960  18.2131
    18.2204  18.2503  18.3505  18.4946  18.5066  18.6224  18.6243  18.6328
    18.6536  18.6709  18.6796  18.8864  18.9984  18.9990  19.0227  19.0354
    19.0754  19.0821  19.0856  19.1011  19.1144  19.2653  19.3133  19.3134
    19.3281  19.3290  19.3328  19.3804  19.3822  19.3846  19.3874  20.0530
    20.4161  20.4314  20.5370  20.5371  20.7674  20.8494  20.8969  20.9169
    21.3627  21.3639  21.8942  21.9527  21.9773  22.1678  22.4913  22.5193
    22.7603  22.8209  26.2404  26.4001  26.4015  26.6530  26.6888  26.6955
    26.7102  26.7157  27.2801  27.3077  27.5015  27.5307  28.1841  28.2124
    28.6992  28.7543  29.5151  29.5467  29.5820  29.6684  29.6715  29.7623
    29.8244  29.8499  29.9000  30.0578  30.1058  30.1377  30.2124  30.2151
    30.6048  30.7224

          k = 0.0556 0.1667 0.1661 ( 33105 PWs)   bands (ev):

   -64.9446 -64.9228 -64.9225 -64.9167 -64.9113 -64.9085 -64.9068 -64.9064
   -64.9049 -64.9049 -64.9016 -64.9015 -64.9009 -64.8995 -64.8983 -64.8982
   -64.8981 -64.8980 -64.8963 -64.8961 -64.8943 -64.8943 -64.8921 -64.8850
   -64.8848 -64.8846 -64.8845 -64.8843 -64.8839 -64.8839 -64.8837 -64.8829
   -30.8233 -30.8233 -30.8188 -30.8140 -30.8026 -30.8010 -30.7999 -30.7466
   -30.7451 -30.7443 -30.7424 -30.7348 -30.7331 -30.7318 -30.7317 -30.7307
   -30.7299 -30.7294 -30.7287 -30.7282 -30.7211 -30.7208 -30.7208 -30.7187
   -30.6954 -30.6893 -30.6891 -30.6883 -30.6873 -30.6845 -30.6825 -30.6767
   -30.6745 -30.6654 -30.6618 -30.6379 -30.6330 -30.6326 -30.6191 -30.6188
   -30.6158 -30.6148 -30.6100 -30.6029 -30.6026 -30.6021 -30.5997 -30.5956
   -30.5953 -30.5952 -30.5945 -30.5942 -30.5941 -30.5929 -30.5920 -30.5911
   -30.5903 -30.5900 -30.5780 -30.5773 -30.5724 -30.5516 -30.5493 -30.5443
   -30.5440 -30.5361 -30.5341 -30.5329 -30.5272 -30.5271 -30.5267 -30.5256
   -30.5239 -30.5230 -30.5229 -30.5229 -30.5226 -30.5215 -30.5180 -30.5169
   -30.5165 -30.5161 -30.5144 -30.5135 -30.5130 -30.5123 -30.5112 -30.5112
   -30.5070 -30.5069 -30.5037 -30.5026 -30.4969 -30.4765 -30.4640 -30.4612
    12.3782  14.0052  14.0149  14.0720  14.0720  14.0791  14.0985  14.1397
    14.1794  14.1795  14.3344  14.3348  14.3523  14.3532  14.5469  14.5696
    14.5786  14.9312  14.9394  14.9507  14.9605  14.9824  14.9827  14.9998
    15.0086  15.0250  15.0790  15.0791  15.0951  15.0961  15.2202  15.2205
    15.2233  15.2292  15.2319  15.2836  15.3965  15.4230  15.4242  15.4246
    15.4280  15.4564  15.4579  15.5346  15.5501  15.6847  15.6914  15.7729
    15.7742  15.7846  15.8726  15.8784  15.8875  15.8920  15.9498  15.9543
    15.9623  16.0159  16.0254  16.0295  16.0372  16.0815  16.0897  16.1862
    16.2315  16.2345  16.2663  16.2747  16.2851  16.2859  16.3369  16.3492
    16.3907  16.3918  16.3937  16.3955  16.3960  16.4063  16.4136  16.4278
    16.4561  16.4632  16.4637  16.4671  16.4708  16.4878  16.4965  16.5002
    16.9383  16.9866  16.9994  17.0474  17.1430  17.1559  17.2525  17.2673
    17.2723  17.2833  17.2854  17.3317  17.3400  17.3548  17.3636  17.4083
    17.4112  17.4250  17.4985  17.5684  17.5803  17.5822  17.5985  17.6005
    17.6198  17.8781  17.8786  17.8904  17.8924  17.8987  17.9671  17.9679
    17.9702  17.9816  17.9865  17.9921  17.9933  17.9948  18.0745  18.0788
    18.1016  18.1025  18.2801  18.2851  18.3204  18.3321  18.3373  18.3387
    18.3792  18.3800  18.3827  18.3931  18.4401  18.4433  18.4719  18.5110
    18.6341  18.7418  18.7940  18.7974  18.9258  18.9298  18.9319  18.9470
    19.0470  19.0722  19.0733  19.0867  19.0910  19.1060  19.2552  19.2559
    19.3110  19.3157  19.3274  19.3287  19.3300  19.3381  19.3528  19.7751
    19.9873  20.3854  20.3997  20.4381  20.8751  20.8929  21.0628  21.0638
    21.4416  21.4454  21.9372  21.9640  22.3991  22.4533  22.4777  22.5063
    23.0726  23.0793  26.0350  26.0657  26.2372  26.2388  26.6995  26.7493
    26.8010  26.8206  26.8448  27.1000  27.3818  27.4339  27.8187  27.8455
    28.8531  28.8827  29.1092  29.1544  29.5462  29.6483  29.6496  29.6934
    29.7826  29.7857  29.9840  30.0099  30.0386  30.1275  30.4598  30.4828
    30.7448  30.7976

          k = 0.0556 0.1667 0.2769 ( 33105 PWs)   bands (ev):

   -64.9427 -64.9278 -64.9213 -64.9157 -64.9117 -64.9105 -64.9076 -64.9057
   -64.9046 -64.9037 -64.9018 -64.9017 -64.9015 -64.9000 -64.8999 -64.8977
   -64.8973 -64.8963 -64.8951 -64.8946 -64.8936 -64.8920 -64.8902 -64.8868
   -64.8856 -64.8855 -64.8853 -64.8847 -64.8846 -64.8839 -64.8836 -64.8829
   -30.8180 -30.8166 -30.8095 -30.8032 -30.7965 -30.7955 -30.7907 -30.7635
   -30.7601 -30.7501 -30.7473 -30.7470 -30.7452 -30.7449 -30.7365 -30.7355
   -30.7341 -30.7291 -30.7286 -30.7267 -30.7250 -30.7236 -30.7205 -30.7138
   -30.7064 -30.6941 -30.6905 -30.6842 -30.6803 -30.6793 -30.6761 -30.6743
   -30.6690 -30.6688 -30.6599 -30.6489 -30.6458 -30.6325 -30.6283 -30.6183
   -30.6149 -30.6134 -30.6095 -30.6019 -30.6010 -30.5954 -30.5951 -30.5944
   -30.5933 -30.5923 -30.5899 -30.5867 -30.5842 -30.5820 -30.5816 -30.5791
   -30.5770 -30.5743 -30.5651 -30.5641 -30.5608 -30.5589 -30.5570 -30.5557
   -30.5408 -30.5407 -30.5401 -30.5388 -30.5362 -30.5360 -30.5353 -30.5346
   -30.5292 -30.5275 -30.5248 -30.5241 -30.5238 -30.5222 -30.5193 -30.5187
   -30.5184 -30.5174 -30.5162 -30.5149 -30.5122 -30.5116 -30.5093 -30.5033
   -30.5019 -30.5017 -30.5016 -30.4952 -30.4930 -30.4887 -30.4681 -30.4634
    12.5204  13.6601  14.1159  14.1377  14.1515  14.1598  14.1618  14.2059
    14.2711  14.2833  14.3880  14.4179  14.4291  14.4417  14.5389  14.6177
    14.6792  14.7521  14.7740  14.8033  14.8347  14.8397  14.8511  14.8835
    14.9777  14.9856  15.0083  15.0201  15.0431  15.0683  15.1408  15.1478
    15.1582  15.1729  15.2035  15.2535  15.2966  15.3149  15.3428  15.4469
    15.4602  15.4662  15.5109  15.5830  15.6166  15.6299  15.6414  15.7142
    15.7343  15.7447  15.7642  15.7773  15.8233  15.8868  15.8919  15.9365
    15.9457  15.9586  16.0479  16.0899  16.1298  16.1416  16.1902  16.1972
    16.2114  16.2211  16.2219  16.2617  16.2779  16.3080  16.3095  16.3494
    16.3796  16.3848  16.4533  16.4838  16.5035  16.5255  16.5262  16.5327
    16.5592  16.5728  16.5842  16.5877  16.6002  16.7030  16.7899  16.8137
    16.8453  16.8511  16.8695  16.9588  16.9869  17.0842  17.0925  17.1089
    17.1786  17.1920  17.1959  17.2628  17.2719  17.3465  17.3520  17.4603
    17.4709  17.4952  17.5026  17.5511  17.6004  17.6825  17.7314  17.7400
    17.7551  17.8205  17.8459  17.8605  17.8896  17.9407  17.9698  17.9980
    18.0073  18.0576  18.0589  18.0965  18.1039  18.1150  18.1187  18.1250
    18.1377  18.1645  18.2443  18.2892  18.3011  18.3311  18.3648  18.4262
    18.4354  18.4618  18.4697  18.4704  18.4754  18.4952  18.5034  18.5861
    18.5969  18.6180  18.7129  18.7947  18.8226  18.8455  18.9228  18.9370
    19.0087  19.0452  19.0489  19.0522  19.1287  19.1477  19.1492  19.1577
    19.1801  19.1854  19.2237  19.3269  19.3310  19.3368  19.3375  19.6000
    19.8104  19.9593  20.3360  20.4171  20.4681  20.8442  20.9595  21.3543
    21.5505  21.7971  21.9318  22.0594  22.4695  22.5823  22.9252  23.1246
    23.5271  23.7079  25.2054  25.4216  25.8498  26.1099  26.2387  26.3621
    26.4072  26.8749  27.1079  27.1251  27.1254  27.6026  27.6442  28.2274
    28.3737  28.6607  28.7586  28.9829  29.1136  29.1984  29.4116  29.6054
    29.7848  29.8673  29.8848  30.1057  30.1563  30.3800  30.4380  30.4992
    30.7221  30.8204

          k = 0.0556 0.1667 0.3876 ( 33115 PWs)   bands (ev):

   -64.9401 -64.9324 -64.9196 -64.9147 -64.9142 -64.9101 -64.9093 -64.9058
   -64.9047 -64.9042 -64.9026 -64.9017 -64.9013 -64.9002 -64.8974 -64.8971
   -64.8965 -64.8964 -64.8950 -64.8921 -64.8911 -64.8900 -64.8895 -64.8885
   -64.8872 -64.8870 -64.8865 -64.8855 -64.8847 -64.8839 -64.8836 -64.8829
   -30.8088 -30.8064 -30.7969 -30.7892 -30.7876 -30.7873 -30.7806 -30.7771
   -30.7769 -30.7644 -30.7643 -30.7627 -30.7545 -30.7447 -30.7430 -30.7380
   -30.7379 -30.7375 -30.7365 -30.7330 -30.7238 -30.7200 -30.7170 -30.7094
   -30.7015 -30.6973 -30.6924 -30.6886 -30.6854 -30.6772 -30.6688 -30.6640
   -30.6627 -30.6614 -30.6577 -30.6539 -30.6453 -30.6443 -30.6407 -30.6304
   -30.6284 -30.6188 -30.5952 -30.5945 -30.5926 -30.5924 -30.5919 -30.5891
   -30.5874 -30.5839 -30.5832 -30.5754 -30.5726 -30.5716 -30.5713 -30.5706
   -30.5670 -30.5665 -30.5650 -30.5614 -30.5542 -30.5534 -30.5500 -30.5496
   -30.5491 -30.5488 -30.5485 -30.5476 -30.5469 -30.5466 -30.5465 -30.5354
   -30.5342 -30.5338 -30.5265 -30.5264 -30.5252 -30.5237 -30.5234 -30.5216
   -30.5205 -30.5196 -30.5141 -30.5139 -30.5121 -30.5103 -30.5074 -30.5050
   -30.5043 -30.5025 -30.4965 -30.4917 -30.4912 -30.4846 -30.4741 -30.4683
    12.7290  13.3138  14.2297  14.2445  14.2599  14.2768  14.2904  14.3114
    14.3999  14.4225  14.4498  14.4670  14.5322  14.5419  14.5473  14.5732
    14.5958  14.6269  14.6339  14.6360  14.6953  14.7124  14.7607  14.7712
    14.7922  14.8220  14.9084  14.9253  14.9442  15.0256  15.1363  15.1582
    15.1627  15.1770  15.2163  15.2722  15.2771  15.4013  15.4131  15.4347
    15.4626  15.4785  15.5375  15.5558  15.5714  15.5780  15.5803  15.5869
    15.6276  15.6670  15.7264  15.7550  15.7638  15.8242  15.8846  15.9211
    15.9478  15.9970  16.1067  16.1076  16.1404  16.1727  16.1730  16.1823
    16.1857  16.1965  16.2468  16.2715  16.2965  16.2991  16.2998  16.3344
    16.3673  16.4207  16.4289  16.5637  16.5671  16.6192  16.6274  16.6386
    16.6427  16.6454  16.6841  16.6997  16.7185  16.7793  16.7877  16.7880
    16.8708  16.8787  16.9060  16.9724  17.0028  17.0305  17.0678  17.0907
    17.2416  17.2428  17.2630  17.2839  17.2988  17.3145  17.4118  17.4992
    17.5057  17.5258  17.5904  17.6384  17.6858  17.7087  17.7144  17.7187
    17.7201  17.7452  17.7889  17.8197  17.8584  17.8807  17.8902  17.8991
    17.9477  17.9536  18.0020  18.0483  18.0573  18.1084  18.1374  18.1489
    18.1805  18.1835  18.1960  18.3192  18.3388  18.3428  18.3688  18.3752
    18.4900  18.5251  18.5655  18.5997  18.6320  18.6574  18.6587  18.6659
    18.6688  18.6751  18.6993  18.7599  18.7650  18.8655  18.8685  18.8934
    18.9158  18.9573  18.9608  19.0050  19.0059  19.0067  19.0092  19.1004
    19.1741  19.2481  19.3269  19.3307  19.3322  19.3350  19.5637  19.5833
    19.6839  19.9605  19.9822  20.2399  20.4886  20.5649  20.7707  21.0856
    21.5924  21.8698  21.9464  22.3860  22.7539  23.3020  23.4972  23.8411
    24.0927  24.3467  24.4059  24.7684  24.9495  25.4077  25.4766  25.9999
    26.4359  26.7591  27.3940  27.4589  27.4786  27.6669  27.9430  27.9612
    28.1948  28.1953  28.4357  28.7349  28.8644  29.0509  29.4335  29.5076
    29.6223  29.8064  29.8320  29.9813  30.0666  30.2585  30.2735  30.3115
    30.3871  30.6654

          k = 0.0556 0.1667-0.4983 ( 33116 PWs)   bands (ev):

   -64.9370 -64.9362 -64.9178 -64.9170 -64.9127 -64.9120 -64.9081 -64.9073
   -64.9038 -64.9037 -64.9030 -64.9030 -64.9012 -64.9004 -64.8973 -64.8965
   -64.8961 -64.8953 -64.8934 -64.8926 -64.8898 -64.8893 -64.8891 -64.8885
   -64.8885 -64.8877 -64.8873 -64.8865 -64.8847 -64.8839 -64.8836 -64.8829
   -30.7963 -30.7960 -30.7931 -30.7928 -30.7817 -30.7813 -30.7772 -30.7766
   -30.7764 -30.7758 -30.7728 -30.7724 -30.7596 -30.7589 -30.7418 -30.7416
   -30.7389 -30.7387 -30.7387 -30.7384 -30.7194 -30.7192 -30.7096 -30.7092
   -30.6977 -30.6975 -30.6973 -30.6971 -30.6777 -30.6774 -30.6685 -30.6681
   -30.6577 -30.6572 -30.6522 -30.6515 -30.6473 -30.6470 -30.6406 -30.6401
   -30.6309 -30.6302 -30.5952 -30.5945 -30.5920 -30.5916 -30.5815 -30.5807
   -30.5764 -30.5756 -30.5756 -30.5749 -30.5725 -30.5723 -30.5653 -30.5650
   -30.5626 -30.5621 -30.5609 -30.5607 -30.5594 -30.5590 -30.5588 -30.5585
   -30.5568 -30.5560 -30.5466 -30.5463 -30.5434 -30.5426 -30.5364 -30.5361
   -30.5360 -30.5353 -30.5307 -30.5303 -30.5254 -30.5250 -30.5227 -30.5219
   -30.5211 -30.5204 -30.5182 -30.5179 -30.5133 -30.5126 -30.5061 -30.5057
   -30.5054 -30.5053 -30.4932 -30.4930 -30.4823 -30.4815 -30.4757 -30.4753
    12.9967  12.9977  14.3384  14.3392  14.3769  14.3770  14.4246  14.4253
    14.4366  14.4374  14.4491  14.4499  14.4552  14.4553  14.5640  14.5640
    14.5697  14.5706  14.5938  14.5939  14.6503  14.6509  14.7055  14.7063
    14.7422  14.7429  14.8188  14.8193  14.9943  14.9949  15.0783  15.0784
    15.2715  15.2717  15.2793  15.2799  15.3119  15.3127  15.4145  15.4153
    15.4892  15.4893  15.5178  15.5186  15.5684  15.5687  15.5915  15.5918
    15.6396  15.6397  15.6777  15.6783  15.6803  15.6808  16.0227  16.0233
    16.0393  16.0399  16.0506  16.0512  16.0666  16.0672  16.1354  16.1355
    16.2284  16.2290  16.2492  16.2496  16.3381  16.3386  16.3900  16.3907
    16.4534  16.4535  16.4951  16.4952  16.5109  16.5111  16.6260  16.6261
    16.6702  16.6704  16.7326  16.7329  16.7501  16.7509  16.7556  16.7564
    16.8146  16.8149  16.8388  16.8391  17.2709  17.2714  17.2804  17.2809
    17.3422  17.3423  17.3544  17.3547  17.3798  17.3801  17.4280  17.4282
    17.4625  17.4631  17.6015  17.6022  17.6159  17.6165  17.6921  17.6924
    17.7029  17.7035  17.7417  17.7420  17.7462  17.7468  17.8141  17.8148
    17.9235  17.9241  17.9627  17.9634  18.0336  18.0343  18.1146  18.1155
    18.2295  18.2302  18.2792  18.2799  18.3512  18.3517  18.5181  18.5188
    18.5591  18.5592  18.5760  18.5766  18.7140  18.7142  18.7347  18.7347
    18.7947  18.7953  18.8195  18.8199  18.8254  18.8255  18.8307  18.8309
    18.8391  18.8396  18.8415  18.8419  18.9325  18.9326  18.9839  18.9841
    19.1969  19.1970  19.3276  19.3283  19.3330  19.3338  19.5670  19.5672
    20.0294  20.0296  20.1122  20.1129  20.3583  20.3589  20.6741  20.6748
    21.7617  21.7625  22.2220  22.2227  23.5205  23.5209  24.0939  24.0942
    24.1205  24.1211  24.6272  24.6275  24.7287  24.7294  25.1704  25.1706
    26.8481  26.8482  27.2847  27.2849  27.7668  27.7676  27.9263  27.9271
    28.3116  28.3124  28.3128  28.3129  28.8711  28.8712  29.2728  29.2730
    29.8221  29.8230  29.9766  29.9772  29.9898  29.9902  30.1051  30.1059
    30.7500  30.7504

          k = 0.0556 0.2778 0.0554 ( 33090 PWs)   bands (ev):

   -64.9436 -64.9283 -64.9164 -64.9161 -64.9112 -64.9109 -64.9080 -64.9079
   -64.9041 -64.9040 -64.9019 -64.9016 -64.9005 -64.8992 -64.8992 -64.8990
   -64.8989 -64.8981 -64.8968 -64.8933 -64.8932 -64.8918 -64.8917 -64.8864
   -64.8851 -64.8850 -64.8848 -64.8846 -64.8840 -64.8838 -64.8835 -64.8832
   -30.8191 -30.8161 -30.8160 -30.8115 -30.7994 -30.7984 -30.7940 -30.7595
   -30.7538 -30.7536 -30.7490 -30.7483 -30.7456 -30.7362 -30.7346 -30.7340
   -30.7325 -30.7240 -30.7233 -30.7148 -30.7135 -30.7133 -30.7130 -30.7108
   -30.7005 -30.6990 -30.6990 -30.6965 -30.6880 -30.6858 -30.6690 -30.6675
   -30.6612 -30.6600 -30.6600 -30.6598 -30.6453 -30.6438 -30.6425 -30.6412
   -30.6094 -30.6086 -30.6011 -30.6007 -30.5995 -30.5991 -30.5964 -30.5949
   -30.5915 -30.5890 -30.5888 -30.5861 -30.5857 -30.5856 -30.5850 -30.5841
   -30.5839 -30.5762 -30.5723 -30.5718 -30.5666 -30.5604 -30.5580 -30.5427
   -30.5427 -30.5367 -30.5354 -30.5350 -30.5340 -30.5312 -30.5303 -30.5303
   -30.5282 -30.5270 -30.5268 -30.5265 -30.5208 -30.5195 -30.5166 -30.5151
   -30.5150 -30.5149 -30.5147 -30.5144 -30.5140 -30.5116 -30.5114 -30.5108
   -30.5085 -30.5012 -30.5003 -30.5002 -30.4991 -30.4799 -30.4663 -30.4653
    12.4512  13.6127  14.0921  14.1281  14.1281  14.1551  14.1954  14.1955
    14.2215  14.3482  14.3906  14.3915  14.4020  14.4121  14.4952  14.5996
    14.6096  14.7705  14.7711  14.8132  14.8241  14.9018  14.9018  14.9534
    15.0578  15.0606  15.0946  15.1032  15.1164  15.1264  15.1265  15.1323
    15.2244  15.2332  15.2423  15.2445  15.3534  15.3578  15.3956  15.4063
    15.5175  15.5216  15.6567  15.6601  15.6930  15.6975  15.7080  15.7121
    15.7192  15.7267  15.7339  15.7583  15.7599  15.8681  15.8733  15.9409
    15.9420  15.9972  15.9982  16.0011  16.0701  16.0747  16.0859  16.0942
    16.0948  16.1001  16.1690  16.1757  16.1778  16.2700  16.2971  16.3067
    16.3131  16.3572  16.3577  16.3691  16.4563  16.4836  16.5000  16.5065
    16.5069  16.5338  16.6714  16.6760  16.6907  16.7405  16.8220  16.8274
    16.8773  16.8918  16.8958  16.9028  16.9687  17.0469  17.0540  17.0543
    17.0716  17.0791  17.3825  17.3953  17.4003  17.4930  17.4983  17.5589
    17.5631  17.5754  17.5775  17.6335  17.6359  17.6630  17.6693  17.7267
    17.7332  17.8404  17.8683  17.8698  17.8706  17.8744  17.8929  17.8955
    17.9012  17.9014  17.9933  18.0985  18.1490  18.1501  18.1648  18.1651
    18.1739  18.2571  18.2581  18.2614  18.3022  18.3029  18.3049  18.3082
    18.3512  18.3547  18.3783  18.3936  18.3981  18.4668  18.6404  18.6473
    18.6990  18.7148  18.7200  18.7551  18.8555  18.8562  18.9050  18.9051
    18.9123  18.9850  18.9917  18.9994  19.0086  19.1317  19.1820  19.1823
    19.1938  19.1952  19.2187  19.3790  19.3813  19.3851  19.3867  19.9906
    20.0021  20.2225  20.4381  20.4548  20.7574  20.7581  20.7911  21.1351
    21.3153  21.3165  21.5568  21.8514  22.5876  22.6139  23.1319  23.1613
    23.2492  23.3077  25.8062  25.8329  25.9292  25.9860  26.3640  26.3927
    26.4124  26.7159  26.7180  27.1210  27.7481  27.7801  28.4213  28.4519
    28.7765  29.2042  29.2242  29.3196  29.3224  29.5296  29.5566  29.5744
    29.6398  29.6933  29.7085  29.8787  29.9191  29.9894  30.0892  30.1081
    30.1511  30.1524

          k = 0.0556 0.2778 0.1661 ( 33098 PWs)   bands (ev):

   -64.9427 -64.9276 -64.9216 -64.9157 -64.9118 -64.9105 -64.9076 -64.9061
   -64.9045 -64.9038 -64.9018 -64.9013 -64.9013 -64.9003 -64.8999 -64.8977
   -64.8972 -64.8964 -64.8948 -64.8946 -64.8935 -64.8920 -64.8901 -64.8864
   -64.8855 -64.8854 -64.8851 -64.8849 -64.8845 -64.8844 -64.8837 -64.8832
   -30.8180 -30.8165 -30.8094 -30.8031 -30.7963 -30.7942 -30.7916 -30.7624
   -30.7587 -30.7484 -30.7467 -30.7465 -30.7463 -30.7457 -30.7371 -30.7350
   -30.7349 -30.7298 -30.7288 -30.7266 -30.7262 -30.7229 -30.7222 -30.7148
   -30.7082 -30.6931 -30.6920 -30.6844 -30.6802 -30.6791 -30.6764 -30.6746
   -30.6712 -30.6668 -30.6574 -30.6493 -30.6456 -30.6324 -30.6295 -30.6175
   -30.6146 -30.6133 -30.6063 -30.6018 -30.5997 -30.5985 -30.5951 -30.5942
   -30.5942 -30.5940 -30.5909 -30.5859 -30.5832 -30.5820 -30.5809 -30.5781
   -30.5773 -30.5749 -30.5644 -30.5642 -30.5634 -30.5587 -30.5561 -30.5549
   -30.5405 -30.5400 -30.5392 -30.5381 -30.5357 -30.5352 -30.5347 -30.5335
   -30.5301 -30.5264 -30.5263 -30.5238 -30.5235 -30.5229 -30.5196 -30.5187
   -30.5181 -30.5168 -30.5163 -30.5162 -30.5127 -30.5113 -30.5105 -30.5045
   -30.5027 -30.5016 -30.5010 -30.4953 -30.4930 -30.4888 -30.4683 -30.4634
    12.5213  13.6681  14.1077  14.1387  14.1516  14.1606  14.1628  14.2061
    14.2712  14.2836  14.3890  14.4176  14.4298  14.4413  14.5461  14.6185
    14.6717  14.7528  14.7800  14.8114  14.8343  14.8463  14.8523  14.8844
    14.9724  14.9877  15.0106  15.0205  15.0343  15.0601  15.1414  15.1489
    15.1585  15.1704  15.2044  15.2513  15.2958  15.3123  15.3436  15.4458
    15.4593  15.4667  15.5096  15.5688  15.6158  15.6341  15.6367  15.7318
    15.7331  15.7444  15.7614  15.7754  15.8271  15.8839  15.8985  15.9401
    15.9418  15.9514  16.0381  16.0939  16.1341  16.1442  16.1885  16.2007
    16.2098  16.2176  16.2383  16.2614  16.2937  16.3148  16.3200  16.3447
    16.3710  16.4033  16.4501  16.4649  16.5002  16.5129  16.5165  16.5195
    16.5586  16.5728  16.5743  16.5838  16.6039  16.7043  16.7835  16.8061
    16.8311  16.8460  16.8746  16.9645  16.9712  17.0641  17.0797  17.0946
    17.1673  17.1849  17.2065  17.2768  17.2799  17.3581  17.3583  17.4682
    17.4806  17.4982  17.5108  17.5555  17.6024  17.6859  17.7406  17.7407
    17.7594  17.8360  17.8470  17.8627  17.8957  17.9392  17.9797  17.9830
    18.0081  18.0542  18.0600  18.0980  18.1074  18.1161  18.1190  18.1287
    18.1348  18.1662  18.2371  18.2742  18.3006  18.3319  18.3615  18.4279
    18.4371  18.4632  18.4672  18.4738  18.4833  18.4997  18.5011  18.5857
    18.6047  18.6167  18.7131  18.7901  18.8240  18.8461  18.9225  18.9442
    19.0115  19.0499  19.0508  19.0542  19.1391  19.1488  19.1489  19.1552
    19.1937  19.1974  19.2299  19.3100  19.3174  19.3259  19.3265  19.5999
    19.8035  19.9700  20.3224  20.4314  20.4631  20.8277  20.9554  21.3482
    21.5474  21.8459  21.9072  22.0666  22.4437  22.6136  22.8774  23.1573
    23.5316  23.7109  25.2325  25.3890  25.8996  26.1307  26.2415  26.4025
    26.4140  26.8932  27.0654  27.1083  27.1289  27.5910  27.6063  28.2648
    28.3492  28.6137  28.7962  28.9793  29.0862  29.1510  29.4320  29.6043
    29.7831  29.8841  29.8953  30.0204  30.1212  30.3782  30.4654  30.4977
    30.7108  30.7524

          k = 0.0556 0.2778 0.2769 ( 33110 PWs)   bands (ev):

   -64.9409 -64.9265 -64.9263 -64.9155 -64.9147 -64.9097 -64.9072 -64.9071
   -64.9035 -64.9034 -64.9031 -64.9012 -64.9008 -64.9007 -64.8967 -64.8965
   -64.8964 -64.8962 -64.8939 -64.8938 -64.8925 -64.8925 -64.8887 -64.8867
   -64.8864 -64.8863 -64.8862 -64.8858 -64.8852 -64.8843 -64.8842 -64.8832
   -30.8129 -30.8128 -30.7992 -30.7912 -30.7905 -30.7871 -30.7861 -30.7633
   -30.7624 -30.7619 -30.7606 -30.7498 -30.7483 -30.7420 -30.7411 -30.7387
   -30.7384 -30.7366 -30.7353 -30.7334 -30.7325 -30.7240 -30.7234 -30.7220
   -30.7182 -30.7171 -30.6900 -30.6845 -30.6784 -30.6769 -30.6698 -30.6697
   -30.6623 -30.6611 -30.6546 -30.6522 -30.6275 -30.6256 -30.6253 -30.6151
   -30.6149 -30.6144 -30.6128 -30.6050 -30.6018 -30.5903 -30.5897 -30.5896
   -30.5888 -30.5884 -30.5875 -30.5870 -30.5840 -30.5829 -30.5752 -30.5748
   -30.5691 -30.5666 -30.5663 -30.5658 -30.5530 -30.5529 -30.5527 -30.5525
   -30.5483 -30.5480 -30.5461 -30.5457 -30.5371 -30.5371 -30.5353 -30.5347
   -30.5336 -30.5335 -30.5325 -30.5322 -30.5232 -30.5228 -30.5217 -30.5213
   -30.5196 -30.5191 -30.5142 -30.5130 -30.5122 -30.5115 -30.5074 -30.5065
   -30.5030 -30.5026 -30.5021 -30.4901 -30.4900 -30.4873 -30.4725 -30.4636
    12.6599  13.7696  13.7764  14.1855  14.2265  14.2295  14.2295  14.2536
    14.3807  14.3808  14.4632  14.4695  14.4703  14.5392  14.5941  14.6376
    14.6394  14.6453  14.6860  14.6860  14.7985  14.8018  14.8023  14.8027
    14.8827  14.8899  14.9065  14.9128  15.0745  15.0763  15.0765  15.0807
    15.0827  15.1813  15.1820  15.2149  15.2152  15.2541  15.2544  15.3347
    15.3349  15.4160  15.5302  15.5310  15.5357  15.5378  15.5638  15.7385
    15.7541  15.7746  15.7779  15.7872  15.7876  15.7956  15.7993  16.0440
    16.0509  16.1123  16.1171  16.2041  16.2067  16.2074  16.2178  16.2477
    16.2478  16.2618  16.2803  16.2818  16.3066  16.4000  16.4254  16.4285
    16.4301  16.5158  16.5214  16.5251  16.5570  16.5794  16.6070  16.6212
    16.6253  16.6272  16.6715  16.6769  16.6799  16.6857  16.7010  16.7364
    16.8340  16.8381  16.8539  16.8636  17.0112  17.0281  17.0630  17.0814
    17.1475  17.1619  17.2048  17.2429  17.2972  17.3069  17.3285  17.3376
    17.3440  17.3534  17.4137  17.4162  17.5600  17.5618  17.6932  17.7832
    17.7846  17.7963  17.7968  17.7982  17.8306  17.9121  17.9143  17.9944
    18.0288  18.0819  18.0843  18.1381  18.1407  18.1839  18.1847  18.2235
    18.2298  18.3343  18.3347  18.3350  18.3443  18.3592  18.3593  18.3595
    18.3660  18.4083  18.4085  18.5636  18.6064  18.6319  18.6349  18.6421
    18.6422  18.6423  18.6447  18.7456  18.7475  18.7898  18.9070  18.9088
    18.9846  19.0555  19.0579  19.0782  19.0869  19.0875  19.1822  19.1890
    19.1957  19.2003  19.2143  19.2225  19.2545  19.2701  19.5772  19.5919
    19.6016  19.8962  19.9064  20.2849  20.3733  20.3867  21.5520  21.5597
    21.9354  21.9379  22.2669  22.3091  22.5744  22.6031  23.1017  23.1307
    23.9329  24.3363  24.6144  24.6432  25.8786  25.9076  26.2384  26.2413
    26.3868  26.4041  26.8296  26.8591  27.4496  27.4693  27.6380  27.7472
    27.7862  28.1657  28.2627  28.3025  28.3842  29.4816  29.6610  29.6866
    29.8251  29.8251  30.2220  30.2611  30.4833  30.5068  30.6638  30.6672
    30.8105  30.8941

          k = 0.0556 0.2778 0.3876 ( 33126 PWs)   bands (ev):

   -64.9383 -64.9310 -64.9244 -64.9188 -64.9134 -64.9095 -64.9086 -64.9065
   -64.9053 -64.9043 -64.9031 -64.9015 -64.9000 -64.8976 -64.8967 -64.8957
   -64.8952 -64.8942 -64.8932 -64.8932 -64.8916 -64.8906 -64.8893 -64.8878
   -64.8876 -64.8874 -64.8873 -64.8863 -64.8854 -64.8850 -64.8841 -64.8833
   -30.8052 -30.8043 -30.7860 -30.7817 -30.7804 -30.7798 -30.7778 -30.7764
   -30.7738 -30.7616 -30.7597 -30.7595 -30.7571 -30.7534 -30.7480 -30.7473
   -30.7472 -30.7412 -30.7397 -30.7389 -30.7339 -30.7306 -30.7233 -30.7224
   -30.7209 -30.7074 -30.6986 -30.6968 -30.6874 -30.6759 -30.6646 -30.6592
   -30.6556 -30.6449 -30.6436 -30.6393 -30.6388 -30.6370 -30.6282 -30.6248
   -30.6141 -30.6059 -30.6041 -30.6003 -30.5961 -30.5954 -30.5897 -30.5881
   -30.5863 -30.5832 -30.5830 -30.5775 -30.5773 -30.5770 -30.5731 -30.5662
   -30.5660 -30.5643 -30.5641 -30.5635 -30.5614 -30.5562 -30.5537 -30.5524
   -30.5509 -30.5486 -30.5449 -30.5446 -30.5428 -30.5402 -30.5402 -30.5400
   -30.5337 -30.5318 -30.5311 -30.5290 -30.5265 -30.5264 -30.5263 -30.5263
   -30.5200 -30.5196 -30.5172 -30.5156 -30.5143 -30.5134 -30.5134 -30.5088
   -30.5042 -30.5038 -30.4958 -30.4859 -30.4841 -30.4801 -30.4785 -30.4664
    12.8630  13.4322  13.9326  14.2570  14.3231  14.3262  14.3377  14.3538
    14.3596  14.5088  14.5096  14.5115  14.5213  14.5461  14.5477  14.5917
    14.6134  14.6193  14.6226  14.6676  14.6786  14.7017  14.7535  14.7673
    14.7865  14.8395  14.8649  14.8774  14.9494  14.9742  15.0014  15.0133
    15.0468  15.1460  15.1507  15.1860  15.2314  15.2571  15.2602  15.3115
    15.3248  15.3715  15.4018  15.4383  15.4770  15.5862  15.6277  15.6474
    15.6628  15.7159  15.7802  15.8087  15.8295  15.8545  15.8985  16.0106
    16.0268  16.0307  16.1159  16.1613  16.1741  16.2329  16.2805  16.2855
    16.3210  16.3274  16.3294  16.3558  16.3930  16.4234  16.4393  16.5197
    16.5316  16.5722  16.5956  16.5986  16.6042  16.6266  16.6385  16.6700
    16.6758  16.6828  16.6895  16.7783  16.7819  16.7960  16.8054  16.8114
    16.8277  16.9037  16.9060  16.9095  16.9846  17.0066  17.0561  17.0712
    17.0925  17.1374  17.1437  17.1630  17.1698  17.2008  17.2348  17.3230
    17.4380  17.4390  17.4665  17.4724  17.4864  17.4985  17.5491  17.5713
    17.6110  17.6380  17.6995  17.7154  17.7177  17.8092  17.9708  18.0152
    18.0280  18.0448  18.0493  18.0577  18.1806  18.1853  18.2005  18.2155
    18.2246  18.2609  18.3675  18.3880  18.3894  18.3986  18.4566  18.4712
    18.4712  18.5453  18.5718  18.6060  18.6104  18.6726  18.6952  18.7677
    18.7783  18.7787  18.7911  18.7919  18.8051  18.8052  18.8336  18.8548
    18.9482  19.0001  19.0027  19.0042  19.0083  19.0120  19.0148  19.0212
    19.0757  19.1457  19.2011  19.2039  19.2145  19.2331  19.5022  19.5889
    19.8137  19.9443  20.0803  20.1637  20.2322  20.3261  21.0610  21.5549
    22.2297  22.2503  22.4509  22.5609  22.8567  23.0402  23.3180  23.7871
    23.8269  24.0434  24.4557  25.0009  25.0179  25.3999  25.7081  26.2529
    26.4404  26.5421  26.6954  26.8326  27.0213  27.0959  27.3477  27.4854
    27.8099  27.8469  28.0235  28.2352  28.7952  29.1240  29.6663  29.8044
    29.8819  29.9145  30.0075  30.0886  30.1603  30.2495  30.8047  30.8201
    30.9719  31.0553

          k = 0.0556 0.2778-0.4983 ( 33126 PWs)   bands (ev):

   -64.9354 -64.9346 -64.9222 -64.9214 -64.9120 -64.9112 -64.9075 -64.9067
   -64.9059 -64.9051 -64.9028 -64.9020 -64.8993 -64.8985 -64.8952 -64.8945
   -64.8945 -64.8937 -64.8931 -64.8923 -64.8906 -64.8899 -64.8898 -64.8892
   -64.8891 -64.8885 -64.8865 -64.8862 -64.8857 -64.8854 -64.8841 -64.8833
   -30.7942 -30.7939 -30.7926 -30.7922 -30.7722 -30.7715 -30.7708 -30.7705
   -30.7701 -30.7700 -30.7596 -30.7592 -30.7584 -30.7576 -30.7552 -30.7552
   -30.7547 -30.7545 -30.7448 -30.7443 -30.7270 -30.7264 -30.7260 -30.7254
   -30.7104 -30.7100 -30.6964 -30.6964 -30.6919 -30.6915 -30.6514 -30.6512
   -30.6485 -30.6482 -30.6419 -30.6416 -30.6360 -30.6353 -30.6260 -30.6253
   -30.6246 -30.6244 -30.5892 -30.5885 -30.5882 -30.5876 -30.5874 -30.5868
   -30.5845 -30.5842 -30.5834 -30.5831 -30.5779 -30.5777 -30.5748 -30.5741
   -30.5648 -30.5642 -30.5629 -30.5627 -30.5561 -30.5558 -30.5556 -30.5554
   -30.5477 -30.5470 -30.5444 -30.5439 -30.5407 -30.5405 -30.5397 -30.5394
   -30.5342 -30.5335 -30.5297 -30.5293 -30.5290 -30.5288 -30.5286 -30.5285
   -30.5235 -30.5228 -30.5204 -30.5200 -30.5154 -30.5147 -30.5080 -30.5077
   -30.5064 -30.5057 -30.4868 -30.4861 -30.4838 -30.4836 -30.4722 -30.4720
    13.1236  13.1246  14.1283  14.1292  14.3654  14.3655  14.4337  14.4346
    14.4579  14.4579  14.4583  14.4587  14.5206  14.5214  14.5627  14.5631
    14.6456  14.6465  14.6738  14.6738  14.6889  14.6890  14.7072  14.7074
    14.7517  14.7525  14.8509  14.8514  14.8960  14.8961  14.9583  14.9590
    15.1335  15.1343  15.1498  15.1503  15.2256  15.2258  15.2911  15.2913
    15.2999  15.3008  15.4794  15.4800  15.5124  15.5124  15.5291  15.5298
    15.7957  15.7958  15.8011  15.8017  15.9064  15.9067  15.9127  15.9133
    15.9365  15.9372  16.0417  16.0422  16.2598  16.2604  16.3443  16.3449
    16.3591  16.3592  16.3801  16.3806  16.4295  16.4298  16.4526  16.4527
    16.4997  16.4999  16.6419  16.6420  16.6903  16.6909  16.6996  16.6998
    16.7246  16.7246  16.7527  16.7533  16.7598  16.7605  16.7652  16.7654
    16.9239  16.9242  16.9525  16.9528  17.0961  17.0965  17.1040  17.1040
    17.1044  17.1048  17.1828  17.1829  17.1992  17.1993  17.2116  17.2118
    17.2563  17.2568  17.5150  17.5156  17.5248  17.5251  17.5761  17.5766
    17.6048  17.6053  17.6207  17.6213  17.6395  17.6397  17.9212  17.9219
    17.9246  17.9251  18.1235  18.1242  18.1387  18.1393  18.1531  18.1538
    18.3136  18.3143  18.4420  18.4427  18.4442  18.4448  18.5671  18.5678
    18.5892  18.5898  18.6333  18.6333  18.6827  18.6829  18.6834  18.6835
    18.8012  18.8017  18.8293  18.8294  18.8519  18.8522  18.8995  18.8998
    18.9015  18.9019  18.9168  18.9170  18.9231  18.9232  18.9404  18.9405
    19.1358  19.1360  19.2080  19.2088  19.2120  19.2125  19.5354  19.5356
    19.6991  19.6999  20.2636  20.2643  20.5676  20.5679  20.8333  20.8339
    22.4542  22.4549  22.8266  22.8272  22.9806  22.9810  23.4427  23.4432
    24.1318  24.1320  24.6091  24.6092  25.0569  25.0576  25.7605  25.7608
    26.5073  26.5074  26.8632  26.8633  26.9657  26.9664  27.2775  27.2782
    27.4389  27.4396  28.5875  28.5876  28.9136  28.9138  29.4913  29.4914
    29.8225  29.8234  29.9657  29.9666  30.3903  30.3911  30.5629  30.5630
    31.2174  31.2180

          k = 0.0556 0.3889 0.0554 ( 33099 PWs)   bands (ev):

   -64.9409 -64.9331 -64.9149 -64.9146 -64.9106 -64.9104 -64.9099 -64.9096
   -64.9063 -64.9061 -64.9016 -64.9009 -64.8992 -64.8992 -64.8990 -64.8989
   -64.8977 -64.8970 -64.8968 -64.8908 -64.8906 -64.8897 -64.8895 -64.8891
   -64.8866 -64.8864 -64.8862 -64.8859 -64.8840 -64.8838 -64.8835 -64.8832
   -30.8083 -30.8042 -30.8040 -30.7982 -30.7903 -30.7894 -30.7797 -30.7774
   -30.7719 -30.7717 -30.7646 -30.7641 -30.7640 -30.7386 -30.7359 -30.7348
   -30.7309 -30.7299 -30.7289 -30.7288 -30.7195 -30.7191 -30.7030 -30.7006
   -30.6951 -30.6935 -30.6854 -30.6829 -30.6800 -30.6799 -30.6780 -30.6780
   -30.6744 -30.6729 -30.6584 -30.6567 -30.6561 -30.6544 -30.6442 -30.6441
   -30.6185 -30.6179 -30.6005 -30.5999 -30.5984 -30.5970 -30.5887 -30.5855
   -30.5811 -30.5735 -30.5733 -30.5726 -30.5723 -30.5722 -30.5719 -30.5712
   -30.5708 -30.5707 -30.5684 -30.5596 -30.5592 -30.5589 -30.5505 -30.5505
   -30.5477 -30.5473 -30.5467 -30.5465 -30.5451 -30.5398 -30.5386 -30.5384
   -30.5379 -30.5378 -30.5307 -30.5224 -30.5217 -30.5189 -30.5175 -30.5150
   -30.5149 -30.5148 -30.5146 -30.5134 -30.5130 -30.5104 -30.5091 -30.5088
   -30.5087 -30.5016 -30.5011 -30.4956 -30.4896 -30.4885 -30.4723 -30.4713
    12.6639  13.2602  14.1845  14.2571  14.2573  14.2653  14.3175  14.3177
    14.3549  14.4056  14.4296  14.5153  14.5171  14.5425  14.5513  14.5942
    14.5947  14.6026  14.6644  14.6741  14.6742  14.7260  14.7421  14.7510
    14.8845  14.8888  14.8905  14.8956  15.0896  15.0946  15.1814  15.1867
    15.2343  15.2427  15.3019  15.3083  15.3244  15.3277  15.4583  15.4662
    15.5196  15.5214  15.5261  15.5263  15.6242  15.6244  15.6630  15.6658
    15.6800  15.6869  15.7199  15.7262  15.7649  15.7759  15.8964  15.9097
    15.9122  15.9437  15.9454  16.0582  16.0918  16.0923  16.1016  16.1025
    16.1310  16.1370  16.1967  16.2016  16.2365  16.2487  16.2599  16.2764
    16.2786  16.3357  16.4054  16.4066  16.5434  16.5829  16.5947  16.6029
    16.6127  16.6284  16.6430  16.6465  16.6512  16.6559  16.8046  16.8460
    16.8557  16.8825  16.9017  16.9038  17.0855  17.0871  17.0892  17.1035
    17.3204  17.3363  17.4625  17.4654  17.4741  17.4879  17.4907  17.6567
    17.6581  17.6921  17.6937  17.7005  17.7034  17.7164  17.7207  17.7323
    17.7539  17.7555  17.8384  17.8402  17.8723  17.8796  17.8816  17.8839
    17.8844  17.8940  17.8979  17.9117  17.9139  17.9957  18.0399  18.1111
    18.1122  18.1741  18.2501  18.2672  18.3516  18.3526  18.3853  18.4248
    18.5065  18.5093  18.5096  18.5677  18.5751  18.5756  18.5966  18.5974
    18.7487  18.7488  18.7643  18.8543  18.8620  18.8678  18.8924  18.8936
    18.9016  18.9026  18.9423  19.0044  19.0064  19.0135  19.0142  19.0790
    19.1967  19.2019  19.3409  19.3791  19.3805  19.3856  19.3863  19.5949
    19.6026  20.0018  20.0151  20.4110  20.6999  20.8248  20.9597  20.9609
    21.2368  21.2382  21.4283  21.7716  23.2958  23.3230  23.8413  23.8492
    23.8713  23.9065  24.9194  24.9465  25.2111  25.2677  25.4664  25.4958
    26.7659  27.1814  27.1840  27.6641  27.9742  28.0977  28.1326  28.5028
    28.5056  28.7549  28.7886  29.0119  29.0533  29.0565  29.3988  29.4397
    29.5196  29.5968  29.6218  29.6626  30.0601  30.0892  30.1215  30.1318
    30.2884  30.3524

          k = 0.0556 0.3889 0.1661 ( 33113 PWs)   bands (ev):

   -64.9400 -64.9323 -64.9198 -64.9148 -64.9142 -64.9101 -64.9093 -64.9059
   -64.9050 -64.9041 -64.9027 -64.9021 -64.9010 -64.9003 -64.8973 -64.8967
   -64.8966 -64.8964 -64.8951 -64.8918 -64.8910 -64.8900 -64.8890 -64.8883
   -64.8870 -64.8868 -64.8866 -64.8854 -64.8849 -64.8846 -64.8836 -64.8833
   -30.8087 -30.8060 -30.7966 -30.7888 -30.7874 -30.7860 -30.7799 -30.7781
   -30.7760 -30.7636 -30.7627 -30.7619 -30.7535 -30.7461 -30.7440 -30.7393
   -30.7390 -30.7383 -30.7373 -30.7333 -30.7242 -30.7210 -30.7162 -30.7109
   -30.7006 -30.6985 -30.6940 -30.6892 -30.6863 -30.6774 -30.6686 -30.6638
   -30.6635 -30.6633 -30.6577 -30.6520 -30.6452 -30.6423 -30.6415 -30.6299
   -30.6272 -30.6156 -30.5949 -30.5944 -30.5937 -30.5936 -30.5922 -30.5921
   -30.5858 -30.5846 -30.5827 -30.5748 -30.5744 -30.5718 -30.5710 -30.5697
   -30.5670 -30.5659 -30.5630 -30.5612 -30.5534 -30.5525 -30.5497 -30.5494
   -30.5490 -30.5487 -30.5485 -30.5462 -30.5460 -30.5456 -30.5456 -30.5351
   -30.5332 -30.5328 -30.5264 -30.5254 -30.5252 -30.5242 -30.5238 -30.5226
   -30.5218 -30.5204 -30.5150 -30.5137 -30.5134 -30.5105 -30.5086 -30.5055
   -30.5053 -30.5019 -30.4964 -30.4919 -30.4917 -30.4847 -30.4744 -30.4684
    12.7313  13.3199  14.2319  14.2449  14.2536  14.2786  14.2927  14.3120
    14.4003  14.4232  14.4552  14.4691  14.5336  14.5419  14.5480  14.5723
    14.6001  14.6319  14.6330  14.6371  14.7002  14.7139  14.7622  14.7729
    14.7939  14.8166  14.9092  14.9267  14.9426  15.0237  15.1376  15.1508
    15.1554  15.1763  15.2173  15.2732  15.2762  15.3990  15.4114  15.4309
    15.4593  15.4782  15.5345  15.5537  15.5683  15.5794  15.5810  15.5890
    15.6155  15.6671  15.7204  15.7529  15.7587  15.8197  15.9041  15.9223
    15.9558  16.0007  16.1075  16.1171  16.1422  16.1682  16.1889  16.1891
    16.1929  16.1970  16.2358  16.2871  16.2877  16.2929  16.3148  16.3338
    16.3882  16.4085  16.4267  16.5418  16.5554  16.6025  16.6061  16.6283
    16.6341  16.6444  16.6818  16.6875  16.7039  16.7671  16.7708  16.7802
    16.8703  16.8851  16.8865  16.9719  16.9977  17.0190  17.0562  17.0762
    17.2354  17.2558  17.2779  17.2925  17.3053  17.3244  17.4229  17.5130
    17.5158  17.5327  17.5972  17.6456  17.6938  17.7081  17.7170  17.7172
    17.7377  17.7414  17.7919  17.8239  17.8625  17.8860  17.8905  17.8958
    17.9537  17.9623  18.0052  18.0304  18.0609  18.1140  18.1389  18.1447
    18.1792  18.1834  18.1923  18.3229  18.3410  18.3436  18.3705  18.3773
    18.4867  18.5278  18.5687  18.5961  18.6356  18.6558  18.6616  18.6691
    18.6724  18.6754  18.7012  18.7656  18.7665  18.8647  18.8689  18.8964
    18.9224  18.9604  18.9613  19.0065  19.0068  19.0158  19.0193  19.1029
    19.1786  19.2481  19.3100  19.3157  19.3192  19.3232  19.5707  19.5793
    19.7072  19.9506  19.9932  20.2272  20.4843  20.5557  20.7560  21.1274
    21.5806  21.8483  21.9375  22.3645  22.7654  23.3381  23.4547  23.8780
    24.1017  24.3688  24.4128  24.7333  24.9952  25.4249  25.5211  26.0168
    26.4461  26.7727  27.3443  27.4620  27.4876  27.6753  27.8907  27.9909
    28.1465  28.2038  28.4279  28.6857  28.8442  29.0719  29.4099  29.5033
    29.6428  29.7877  29.8299  29.9794  29.9892  30.2435  30.2713  30.3042
    30.3742  30.6545

          k = 0.0556 0.3889 0.2769 ( 33132 PWs)   bands (ev):

   -64.9383 -64.9309 -64.9245 -64.9189 -64.9134 -64.9095 -64.9086 -64.9064
   -64.9054 -64.9044 -64.9029 -64.9016 -64.9004 -64.8980 -64.8962 -64.8956
   -64.8952 -64.8943 -64.8932 -64.8928 -64.8914 -64.8906 -64.8889 -64.8876
   -64.8875 -64.8873 -64.8872 -64.8865 -64.8861 -64.8850 -64.8840 -64.8835
   -30.8051 -30.8041 -30.7857 -30.7815 -30.7793 -30.7793 -30.7770 -30.7762
   -30.7750 -30.7605 -30.7605 -30.7601 -30.7564 -30.7526 -30.7486 -30.7485
   -30.7473 -30.7409 -30.7403 -30.7400 -30.7346 -30.7296 -30.7243 -30.7214
   -30.7212 -30.7085 -30.6989 -30.6973 -30.6884 -30.6763 -30.6633 -30.6595
   -30.6556 -30.6472 -30.6435 -30.6383 -30.6374 -30.6366 -30.6283 -30.6267
   -30.6110 -30.6055 -30.6037 -30.5985 -30.5984 -30.5958 -30.5893 -30.5881
   -30.5869 -30.5842 -30.5835 -30.5802 -30.5766 -30.5749 -30.5724 -30.5662
   -30.5653 -30.5645 -30.5638 -30.5638 -30.5613 -30.5556 -30.5536 -30.5522
   -30.5508 -30.5484 -30.5438 -30.5438 -30.5424 -30.5402 -30.5400 -30.5392
   -30.5335 -30.5331 -30.5319 -30.5281 -30.5272 -30.5268 -30.5266 -30.5260
   -30.5201 -30.5187 -30.5182 -30.5151 -30.5143 -30.5136 -30.5135 -30.5098
   -30.5048 -30.5036 -30.4964 -30.4858 -30.4841 -30.4801 -30.4787 -30.4664
    12.8644  13.4371  13.9275  14.2571  14.3242  14.3270  14.3379  14.3525
    14.3610  14.5093  14.5099  14.5118  14.5217  14.5479  14.5519  14.5911
    14.6140  14.6216  14.6232  14.6682  14.6783  14.7068  14.7538  14.7718
    14.7824  14.8384  14.8663  14.8787  14.9497  14.9747  14.9956  15.0077
    15.0469  15.1452  15.1498  15.1841  15.2313  15.2555  15.2612  15.3110
    15.3227  15.3692  15.4016  15.4380  15.4769  15.5856  15.6289  15.6459
    15.6605  15.7149  15.7677  15.8047  15.8340  15.8548  15.9147  16.0164
    16.0252  16.0313  16.1127  16.1721  16.1784  16.2438  16.2802  16.2929
    16.3145  16.3173  16.3214  16.3735  16.4042  16.4112  16.4342  16.5240
    16.5267  16.5716  16.5902  16.5922  16.5927  16.6270  16.6289  16.6624
    16.6755  16.6760  16.6850  16.7708  16.7754  16.7982  16.7983  16.8205
    16.8317  16.8874  16.8937  16.9092  16.9753  16.9904  17.0714  17.0861
    17.0868  17.1245  17.1489  17.1578  17.1694  17.2134  17.2397  17.3280
    17.4438  17.4452  17.4646  17.4794  17.4857  17.4972  17.5575  17.5761
    17.6094  17.6436  17.7012  17.7179  17.7275  17.8099  17.9677  18.0143
    18.0323  18.0353  18.0533  18.0582  18.1836  18.1858  18.2057  18.2131
    18.2182  18.2635  18.3672  18.3874  18.3901  18.4016  18.4565  18.4687
    18.4758  18.5449  18.5743  18.6087  18.6113  18.6720  18.6975  18.7665
    18.7806  18.7807  18.7900  18.7907  18.8053  18.8064  18.8360  18.8595
    18.9485  19.0037  19.0039  19.0045  19.0106  19.0134  19.0204  19.0308
    19.0806  19.1497  19.1882  19.1932  19.2053  19.2258  19.5090  19.5822
    19.8041  19.9546  20.0712  20.1821  20.2266  20.3142  21.0529  21.5901
    22.2403  22.2420  22.4467  22.5367  22.8195  23.0175  23.3506  23.8106
    23.8586  24.0126  24.4605  25.0219  25.0389  25.4225  25.7216  26.2580
    26.4519  26.5523  26.6703  26.8235  27.0500  27.0544  27.3081  27.5166
    27.8053  27.8058  28.0077  28.2399  28.7998  29.1192  29.6830  29.8041
    29.8812  29.9134  29.9835  30.0879  30.1773  30.2658  30.7455  30.8027
    30.9520  31.0401

          k = 0.0556 0.3889 0.3876 ( 33146 PWs)   bands (ev):

   -64.9358 -64.9288 -64.9287 -64.9226 -64.9121 -64.9086 -64.9085 -64.9076
   -64.9059 -64.9048 -64.9046 -64.9027 -64.8961 -64.8957 -64.8944 -64.8941
   -64.8940 -64.8938 -64.8922 -64.8921 -64.8915 -64.8914 -64.8891 -64.8887
   -64.8886 -64.8885 -64.8882 -64.8876 -64.8863 -64.8847 -64.8845 -64.8837
   -30.7981 -30.7981 -30.7757 -30.7754 -30.7751 -30.7744 -30.7729 -30.7722
   -30.7704 -30.7692 -30.7609 -30.7595 -30.7592 -30.7571 -30.7558 -30.7490
   -30.7485 -30.7419 -30.7410 -30.7407 -30.7403 -30.7399 -30.7397 -30.7278
   -30.7258 -30.7252 -30.7110 -30.6963 -30.6920 -30.6760 -30.6753 -30.6505
   -30.6418 -30.6418 -30.6321 -30.6296 -30.6227 -30.6161 -30.6157 -30.6123
   -30.6101 -30.6101 -30.6099 -30.6074 -30.6044 -30.5887 -30.5861 -30.5821
   -30.5819 -30.5819 -30.5816 -30.5813 -30.5787 -30.5786 -30.5771 -30.5769
   -30.5747 -30.5741 -30.5613 -30.5610 -30.5593 -30.5589 -30.5589 -30.5540
   -30.5539 -30.5442 -30.5441 -30.5420 -30.5415 -30.5411 -30.5409 -30.5384
   -30.5330 -30.5325 -30.5323 -30.5316 -30.5315 -30.5294 -30.5259 -30.5225
   -30.5219 -30.5194 -30.5178 -30.5173 -30.5170 -30.5156 -30.5127 -30.5068
   -30.5061 -30.5031 -30.5027 -30.4850 -30.4792 -30.4772 -30.4771 -30.4673
    13.0593  13.6042  13.6076  14.0772  14.3022  14.3956  14.4071  14.4566
    14.4568  14.4879  14.4880  14.4898  14.6047  14.6049  14.6318  14.6490
    14.6491  14.6641  14.6656  14.6659  14.6667  14.6873  14.6900  14.8069
    14.8107  14.8233  14.8419  14.8756  14.8796  14.9802  14.9809  14.9830
    14.9843  15.0105  15.0109  15.0522  15.0525  15.1840  15.1851  15.2008
    15.2022  15.2278  15.2291  15.4650  15.4663  15.5112  15.7007  15.7031
    15.7058  15.7070  15.8046  15.8686  15.9058  15.9078  15.9088  15.9192
    15.9321  16.1182  16.2315  16.2331  16.2883  16.4090  16.4125  16.4236
    16.4505  16.4510  16.4533  16.4565  16.4594  16.4631  16.4919  16.4975
    16.5281  16.5415  16.6712  16.6838  16.7018  16.7078  16.7189  16.7427
    16.7506  16.7680  16.7713  16.7924  16.7941  16.7980  16.8996  16.9024
    16.9042  16.9060  16.9173  16.9192  16.9342  16.9397  17.0211  17.0332
    17.0339  17.0483  17.1311  17.1321  17.1343  17.1865  17.2303  17.2366
    17.2406  17.2507  17.2523  17.2658  17.2730  17.2908  17.2975  17.4473
    17.5538  17.5546  17.5785  17.5787  17.6787  17.7455  17.7485  17.7866
[...]
    23.8787  23.8787  23.8788  23.8788  25.9841  25.9845  25.9845  25.9847
    26.3441  26.3441  26.3442  26.3443  26.3443  26.3443  26.3443  26.3443
    27.1404  27.1407  27.1408  27.1408  29.7404  29.7406  29.7406  29.7408
    30.2960  30.2962  30.2962  30.2962  30.8858  30.8859  30.8859  30.8859
    31.4389  31.4392

          k =-0.5000-0.5000 0.1661 ( 33164 PWs)   bands (ev):

   -64.9290 -64.9288 -64.9288 -64.9286 -64.9132 -64.9131 -64.9130 -64.9129
   -64.9017 -64.9016 -64.9015 -64.9014 -64.8922 -64.8920 -64.8920 -64.8918
   -64.8915 -64.8913 -64.8912 -64.8912 -64.8912 -64.8911 -64.8910 -64.8909
   -64.8906 -64.8905 -64.8905 -64.8903 -64.8860 -64.8858 -64.8858 -64.8856
   -30.7790 -30.7790 -30.7790 -30.7789 -30.7789 -30.7789 -30.7789 -30.7789
   -30.7566 -30.7566 -30.7564 -30.7564 -30.7564 -30.7564 -30.7563 -30.7563
   -30.7546 -30.7544 -30.7544 -30.7542 -30.7522 -30.7521 -30.7521 -30.7520
   -30.7083 -30.7082 -30.7082 -30.7081 -30.6657 -30.6657 -30.6656 -30.6656
   -30.6101 -30.6101 -30.6101 -30.6101 -30.6101 -30.6100 -30.6100 -30.6099
   -30.6080 -30.6080 -30.6079 -30.6079 -30.6079 -30.6078 -30.6077 -30.6077
   -30.5906 -30.5906 -30.5906 -30.5905 -30.5693 -30.5693 -30.5692 -30.5692
   -30.5692 -30.5691 -30.5691 -30.5690 -30.5675 -30.5675 -30.5675 -30.5675
   -30.5483 -30.5482 -30.5482 -30.5481 -30.5466 -30.5466 -30.5466 -30.5465
   -30.5465 -30.5464 -30.5464 -30.5464 -30.5331 -30.5331 -30.5331 -30.5331
   -30.5079 -30.5079 -30.5079 -30.5079 -30.5034 -30.5033 -30.5033 -30.5032
   -30.4973 -30.4972 -30.4971 -30.4970 -30.4734 -30.4734 -30.4734 -30.4734
    13.5836  13.5840  13.5841  13.5844  14.2826  14.2828  14.2828  14.2830
    14.6247  14.6247  14.6248  14.6248  14.6306  14.6307  14.6307  14.6307
    14.7040  14.7041  14.7042  14.7042  14.7044  14.7045  14.7046  14.7046
    14.9026  14.9027  14.9027  14.9027  14.9028  14.9029  14.9029  14.9029
    15.0079  15.0079  15.0080  15.0080  15.0083  15.0083  15.0084  15.0084
    15.2001  15.2001  15.2002  15.2002  15.6986  15.6986  15.6989  15.6989
    15.6990  15.6990  15.6992  15.6992  16.0155  16.0159  16.0159  16.0160
    16.0348  16.0351  16.0351  16.0352  16.5091  16.5092  16.5092  16.5093
    16.5820  16.5821  16.5821  16.5821  16.5847  16.5849  16.5849  16.5850
    16.7478  16.7479  16.7479  16.7481  16.7549  16.7549  16.7550  16.7550
    16.7550  16.7550  16.7552  16.7552  16.7916  16.7916  16.7917  16.7918
    16.8259  16.8259  16.8259  16.8262  17.0741  17.0741  17.0741  17.0742
    17.0742  17.0743  17.0743  17.0744  17.1086  17.1087  17.1087  17.1088
    17.1909  17.1911  17.1911  17.1914  17.3090  17.3090  17.3090  17.3091
    17.3092  17.3092  17.3092  17.3093  17.6437  17.6439  17.6439  17.6440
    18.1177  18.1178  18.1178  18.1179  18.2564  18.2564  18.2564  18.2565
    18.2565  18.2565  18.2566  18.2566  18.2611  18.2612  18.2613  18.2613
    18.5877  18.5877  18.5878  18.5878  18.6506  18.6507  18.6507  18.6508
    19.0010  19.0010  19.0011  19.0011  19.0011  19.0011  19.0012  19.0012
    19.0262  19.0262  19.0263  19.0263  19.0263  19.0263  19.0264  19.0264
    19.0358  19.0360  19.0360  19.0361  19.0593  19.0594  19.0594  19.0595
    20.3046  20.3048  20.3049  20.3050  22.0258  22.0258  22.0260  22.0260
    22.0261  22.0261  22.0262  22.0262  23.7058  23.7058  23.7059  23.7059
    23.7060  23.7060  23.7061  23.7061  25.3913  25.3917  25.3917  25.3920
    26.5820  26.5820  26.5822  26.5822  26.5822  26.5822  26.5823  26.5823
    27.2708  27.2711  27.2711  27.2711  29.7252  29.7254  29.7254  29.7254
    30.3751  30.3753  30.3753  30.3755  30.5507  30.5508  30.5509  30.5510
    30.5511  30.5511

          k =-0.5000-0.5000 0.2769 ( 33092 PWs)   bands (ev):

   -64.9277 -64.9275 -64.9274 -64.9273 -64.9169 -64.9167 -64.9166 -64.9165
   -64.8981 -64.8979 -64.8979 -64.8977 -64.8922 -64.8920 -64.8920 -64.8918
   -64.8915 -64.8913 -64.8912 -64.8912 -64.8912 -64.8911 -64.8910 -64.8909
   -64.8906 -64.8905 -64.8905 -64.8903 -64.8873 -64.8872 -64.8871 -64.8870
   -30.7763 -30.7762 -30.7762 -30.7762 -30.7762 -30.7761 -30.7761 -30.7761
   -30.7606 -30.7605 -30.7605 -30.7604 -30.7603 -30.7602 -30.7601 -30.7600
   -30.7596 -30.7596 -30.7595 -30.7595 -30.7595 -30.7595 -30.7594 -30.7594
   -30.6888 -30.6887 -30.6887 -30.6887 -30.6499 -30.6499 -30.6499 -30.6499
   -30.6100 -30.6100 -30.6100 -30.6100 -30.6100 -30.6099 -30.6099 -30.6098
   -30.6086 -30.6086 -30.6085 -30.6085 -30.6085 -30.6085 -30.6084 -30.6084
   -30.6062 -30.6062 -30.6062 -30.6061 -30.5678 -30.5678 -30.5678 -30.5677
   -30.5657 -30.5657 -30.5657 -30.5656 -30.5656 -30.5655 -30.5655 -30.5655
   -30.5646 -30.5646 -30.5646 -30.5646 -30.5490 -30.5490 -30.5490 -30.5489
   -30.5489 -30.5488 -30.5488 -30.5488 -30.5410 -30.5410 -30.5410 -30.5410
   -30.4999 -30.4999 -30.4999 -30.4998 -30.4945 -30.4944 -30.4944 -30.4943
   -30.4921 -30.4920 -30.4920 -30.4919 -30.4763 -30.4763 -30.4762 -30.4762
    13.6508  13.6512  13.6512  13.6516  14.1402  14.1405  14.1405  14.1407
    14.6601  14.6601  14.6601  14.6601  14.6813  14.6813  14.6813  14.6813
    14.6816  14.6816  14.6817  14.6817  14.6849  14.6849  14.6849  14.6850
    14.8339  14.8339  14.8340  14.8340  14.8342  14.8342  14.8342  14.8342
    15.1462  15.1462  15.1462  15.1462  15.1466  15.1466  15.1466  15.1466
    15.2559  15.2559  15.2560  15.2560  15.6869  15.6870  15.6873  15.6873
    15.6874  15.6874  15.6876  15.6876  15.8128  15.8131  15.8131  15.8132
    16.1271  16.1273  16.1273  16.1274  16.5229  16.5231  16.5231  16.5232
    16.6555  16.6556  16.6556  16.6556  16.6599  16.6600  16.6601  16.6602
    16.7310  16.7312  16.7312  16.7314  16.7388  16.7389  16.7389  16.7390
    16.7395  16.7395  16.7395  16.7395  16.7396  16.7396  16.7397  16.7397
    16.7789  16.7789  16.7789  16.7792  17.0417  17.0417  17.0418  17.0418
    17.0419  17.0419  17.0419  17.0421  17.1078  17.1080  17.1080  17.1082
    17.2605  17.2605  17.2606  17.2606  17.3840  17.3841  17.3841  17.3841
    17.3842  17.3842  17.3842  17.3843  17.7716  17.7717  17.7718  17.7719
    17.9685  17.9686  17.9686  17.9687  18.0001  18.0001  18.0001  18.0002
    18.0002  18.0003  18.0003  18.0003  18.2089  18.2090  18.2091  18.2092
    18.2705  18.2705  18.2706  18.2706  18.4756  18.4757  18.4758  18.4759
    19.0884  19.0884  19.0884  19.0884  19.0885  19.0885  19.0885  19.0885
    19.1033  19.1034  19.1034  19.1035  19.1263  19.1263  19.1263  19.1263
    19.1264  19.1264  19.1264  19.1265  19.1377  19.1378  19.1378  19.1379
    21.0555  21.0557  21.0558  21.0559  22.2074  22.2074  22.2075  22.2076
    22.2077  22.2077  22.2078  22.2078  23.4253  23.4253  23.4253  23.4254
    23.4255  23.4255  23.4256  23.4256  24.5501  24.5504  24.5504  24.5506
    26.9984  26.9984  26.9985  26.9985  26.9986  26.9986  26.9987  26.9987
    27.4989  27.4992  27.4992  27.4992  29.1803  29.1805  29.1806  29.1806
    29.6986  29.6986  29.6986  29.6986  29.6988  29.6989  29.6989  29.6989
    31.3231  31.3233

          k =-0.5000-0.5000 0.3876 ( 33116 PWs)   bands (ev):

   -64.9257 -64.9256 -64.9255 -64.9254 -64.9202 -64.9201 -64.9200 -64.9199
   -64.8947 -64.8946 -64.8945 -64.8944 -64.8922 -64.8920 -64.8920 -64.8918
   -64.8915 -64.8913 -64.8912 -64.8912 -64.8912 -64.8911 -64.8910 -64.8909
   -64.8906 -64.8905 -64.8905 -64.8903 -64.8892 -64.8891 -64.8890 -64.8889
   -30.7725 -30.7725 -30.7725 -30.7724 -30.7724 -30.7724 -30.7724 -30.7723
   -30.7655 -30.7654 -30.7654 -30.7653 -30.7650 -30.7649 -30.7648 -30.7647
   -30.7637 -30.7636 -30.7636 -30.7636 -30.7635 -30.7635 -30.7634 -30.7634
   -30.6679 -30.6679 -30.6679 -30.6678 -30.6308 -30.6307 -30.6307 -30.6307
   -30.6255 -30.6255 -30.6255 -30.6254 -30.6100 -30.6100 -30.6100 -30.6099
   -30.6099 -30.6099 -30.6098 -30.6097 -30.6092 -30.6091 -30.6091 -30.6091
   -30.6091 -30.6090 -30.6090 -30.6090 -30.5887 -30.5886 -30.5886 -30.5885
   -30.5614 -30.5614 -30.5614 -30.5613 -30.5612 -30.5612 -30.5612 -30.5612
   -30.5604 -30.5604 -30.5604 -30.5603 -30.5525 -30.5525 -30.5525 -30.5524
   -30.5523 -30.5523 -30.5523 -30.5522 -30.5483 -30.5483 -30.5483 -30.5483
   -30.4925 -30.4925 -30.4925 -30.4925 -30.4890 -30.4889 -30.4889 -30.4888
   -30.4883 -30.4881 -30.4881 -30.4880 -30.4806 -30.4806 -30.4805 -30.4805
    13.7463  13.7467  13.7467  13.7471  13.9981  13.9984  13.9984  13.9987
    14.6847  14.6848  14.6848  14.6848  14.6851  14.6851  14.6851  14.6851
    14.6914  14.6914  14.6914  14.6914  14.7129  14.7130  14.7130  14.7130
    14.7665  14.7665  14.7666  14.7666  14.7668  14.7668  14.7669  14.7669
    15.3046  15.3046  15.3047  15.3047  15.3050  15.3050  15.3051  15.3051
    15.3446  15.3448  15.3448  15.3448  15.6051  15.6051  15.6054  15.6054
    15.6056  15.6056  15.6057  15.6058  15.6271  15.6273  15.6274  15.6275
    16.2546  16.2548  16.2548  16.2549  16.4953  16.4954  16.4954  16.4955
    16.6770  16.6770  16.6770  16.6771  16.7090  16.7091  16.7091  16.7093
    16.7134  16.7135  16.7135  16.7136  16.7379  16.7379  16.7379  16.7381
    16.7567  16.7568  16.7568  16.7569  16.7932  16.7933  16.7933  16.7933
    16.7933  16.7934  16.7935  16.7935  16.9814  16.9815  16.9815  16.9816
    16.9816  16.9816  16.9817  16.9818  16.9978  16.9980  16.9980  16.9981
    17.4293  17.4294  17.4294  17.4295  17.4741  17.4741  17.4742  17.4742
    17.4743  17.4743  17.4743  17.4744  17.7718  17.7718  17.7718  17.7719
    17.7719  17.7720  17.7720  17.7721  17.7929  17.7930  17.7930  17.7931
    17.9312  17.9313  17.9314  17.9315  18.1189  18.1189  18.1190  18.1190
    18.1461  18.1462  18.1463  18.1463  18.2924  18.2925  18.2925  18.2926
    19.1515  19.1515  19.1516  19.1516  19.1516  19.1516  19.1517  19.1517
    19.1588  19.1589  19.1589  19.1590  19.1806  19.1807  19.1807  19.1807
    19.1883  19.1883  19.1883  19.1883  19.1884  19.1884  19.1884  19.1884
    21.8716  21.8719  21.8719  21.8721  22.4619  22.4619  22.4620  22.4620
    22.4622  22.4622  22.4623  22.4623  23.0988  23.0989  23.0989  23.0989
    23.0991  23.0991  23.0992  23.0992  23.6432  23.6435  23.6435  23.6437
    27.5409  27.5409  27.5410  27.5410  27.5411  27.5411  27.5412  27.5412
    27.8165  27.8167  27.8168  27.8168  28.6717  28.6719  28.6719  28.6719
    28.9046  28.9046  28.9047  28.9047  28.9049  28.9049  28.9049  28.9050
    32.3899  32.3899

          k =-0.5000-0.5000-0.4983 ( 33072 PWs)   bands (ev):

   -64.9236 -64.9234 -64.9234 -64.9233 -64.9228 -64.9227 -64.9226 -64.9225
   -64.8922 -64.8922 -64.8921 -64.8920 -64.8919 -64.8919 -64.8918 -64.8918
   -64.8915 -64.8914 -64.8913 -64.8913 -64.8912 -64.8912 -64.8911 -64.8911
   -64.8911 -64.8910 -64.8910 -64.8908 -64.8906 -64.8905 -64.8905 -64.8903
   -30.7687 -30.7686 -30.7686 -30.7686 -30.7682 -30.7682 -30.7681 -30.7681
   -30.7680 -30.7679 -30.7679 -30.7679 -30.7675 -30.7675 -30.7674 -30.7674
   -30.7669 -30.7668 -30.7667 -30.7666 -30.7666 -30.7665 -30.7665 -30.7664
   -30.6467 -30.6466 -30.6466 -30.6465 -30.6464 -30.6463 -30.6463 -30.6463
   -30.6101 -30.6100 -30.6100 -30.6100 -30.6099 -30.6099 -30.6099 -30.6098
   -30.6098 -30.6098 -30.6098 -30.6097 -30.6096 -30.6096 -30.6096 -30.6096
   -30.6096 -30.6095 -30.6095 -30.6094 -30.6094 -30.6093 -30.6093 -30.6093
   -30.5569 -30.5569 -30.5568 -30.5568 -30.5568 -30.5568 -30.5567 -30.5567
   -30.5565 -30.5565 -30.5564 -30.5564 -30.5564 -30.5563 -30.5563 -30.5563
   -30.5553 -30.5553 -30.5553 -30.5553 -30.5545 -30.5545 -30.5545 -30.5545
   -30.4871 -30.4870 -30.4870 -30.4869 -30.4869 -30.4868 -30.4868 -30.4867
   -30.4864 -30.4864 -30.4864 -30.4863 -30.4856 -30.4856 -30.4856 -30.4856
    13.8640  13.8643  13.8644  13.8647  13.8647  13.8651  13.8651  13.8654
    14.7122  14.7123  14.7123  14.7123  14.7129  14.7130  14.7130  14.7130
    14.7142  14.7143  14.7143  14.7144  14.7144  14.7144  14.7145  14.7145
    14.7146  14.7146  14.7147  14.7147  14.7148  14.7149  14.7149  14.7149
    15.4659  15.4661  15.4663  15.4663  15.4664  15.4665  15.4665  15.4665
    15.4665  15.4666  15.4666  15.4667  15.4669  15.4669  15.4670  15.4671
    15.4685  15.4687  15.4687  15.4688  15.4693  15.4695  15.4696  15.4696
    16.3936  16.3938  16.3938  16.3939  16.3939  16.3939  16.3939  16.3939
    16.6874  16.6875  16.6875  16.6876  16.6878  16.6879  16.6879  16.6880
    16.7139  16.7140  16.7140  16.7141  16.7142  16.7143  16.7143  16.7145
    16.8753  16.8754  16.8754  16.8755  16.8758  16.8759  16.8759  16.8761
    16.8903  16.8904  16.8904  16.8905  16.8905  16.8906  16.8906  16.8906
    16.8906  16.8907  16.8907  16.8907  16.8908  16.8908  16.8909  16.8909
    17.5960  17.5960  17.5962  17.5963  17.5963  17.5964  17.5965  17.5965
    17.5965  17.5966  17.5966  17.5967  17.5968  17.5968  17.5970  17.5971
    17.6092  17.6093  17.6093  17.6094  17.6095  17.6096  17.6096  17.6097
    18.0991  18.0992  18.0993  18.0994  18.0997  18.0998  18.0999  18.0999
    18.1080  18.1081  18.1081  18.1083  18.1084  18.1084  18.1085  18.1086
    19.1868  19.1869  19.1869  19.1869  19.1870  19.1871  19.1871  19.1871
    19.1914  19.1915  19.1915  19.1915  19.1917  19.1917  19.1917  19.1918
    19.1919  19.1919  19.1919  19.1919  19.1921  19.1921  19.1921  19.1922
    22.7399  22.7402  22.7402  22.7403  22.7404  22.7406  22.7406  22.7408
    22.7672  22.7674  22.7674  22.7675  22.7675  22.7677  22.7677  22.7678
    22.7679  22.7680  22.7680  22.7682  22.7682  22.7684  22.7684  22.7684
    28.1812  28.1812  28.1813  28.1813  28.1814  28.1814  28.1814  28.1815
    28.1818  28.1818  28.1818  28.1819  28.1819  28.1820  28.1820  28.1821
    28.2118  28.2121  28.2121  28.2121  28.2126  28.2129  28.2129  28.2129
    33.4868  33.4873

     the Fermi energy is    19.2119 ev

!    total energy              =  -16384.95907229 Ry
     Harris-Foulkes estimate   =  -16384.95906123 Ry
     estimated scf accuracy    <       0.00000049 Ry

     total all-electron energy =   -322945.812779 Ry

     The total energy is the sum of the following terms:

     one-electron contribution =   -2495.57311257 Ry
     hartree contribution      =    1664.04849329 Ry
     xc contribution           =    -986.44998300 Ry
     ewald contribution        =   -6399.59534177 Ry
     one-center paw contrib.   =   -8167.42312132 Ry
     smearing contrib. (-TS)   =       0.03399308 Ry

     convergence has been achieved in  11 iterations

     Forces acting on atoms (cartesian axes, Ry/au):

     atom    1 type  1   force =     0.00000000    0.00000000    0.00000000
     atom    2 type  1   force =     0.00009329    0.00009329    0.00000000
     atom    3 type  1   force =     0.00005382    0.00000000   -0.00001189
     atom    4 type  1   force =     0.00000000    0.00005382   -0.00001189
     atom    5 type  1   force =     0.00000000    0.00000000    0.00000000
     atom    6 type  1   force =     0.00012668    0.00012668    0.00000000
     atom    7 type  1   force =     0.00005382   -0.00000000    0.00001189
     atom    8 type  1   force =     0.00000000    0.00005382    0.00001189
     atom    9 type  1   force =     0.00000000    0.00000000    0.00000000
     atom   10 type  1   force =     0.00009329   -0.00009329    0.00000000
     atom   11 type  1   force =     0.00016042   -0.00000000   -0.00001261
     atom   12 type  1   force =     0.00000000   -0.00005382   -0.00001189
     atom   13 type  1   force =     0.00000000    0.00000000    0.00000000
     atom   14 type  1   force =     0.00012668   -0.00012668    0.00000000
     atom   15 type  1   force =     0.00016042    0.00000000    0.00001261
     atom   16 type  1   force =     0.00000000   -0.00005382    0.00001189
     atom   17 type  1   force =     0.00000000    0.00000000    0.00000000
     atom   18 type  1   force =    -0.00009329    0.00009329    0.00000000
     atom   19 type  1   force =    -0.00005382    0.00000000   -0.00001189
     atom   20 type  1   force =     0.00000000    0.00016042   -0.00001261
     atom   21 type  1   force =     0.00000000    0.00000000    0.00000000
     atom   22 type  1   force =    -0.00012668    0.00012668    0.00000000
     atom   23 type  1   force =    -0.00005382    0.00000000    0.00001189
     atom   24 type  1   force =     0.00000000    0.00016042    0.00001261
     atom   25 type  1   force =     0.00000000    0.00000000    0.00000000
     atom   26 type  1   force =    -0.00009329   -0.00009329    0.00000000
     atom   27 type  1   force =    -0.00016042    0.00000000   -0.00001261
     atom   28 type  1   force =     0.00000000   -0.00016042   -0.00001261
     atom   29 type  1   force =     0.00000000    0.00000000    0.00000000
     atom   30 type  1   force =    -0.00012668   -0.00012668    0.00000000
     atom   31 type  1   force =    -0.00016042   -0.00000000    0.00001261
     atom   32 type  1   force =     0.00000000   -0.00016042    0.00001261

     Total force =     0.000655     Total SCF correction =     0.005418
     SCF correction compared to forces is large: reduce conv_thr to get better values


     Computing stress (Cartesian axis) and pressure

          total   stress  (Ry/bohr**3)                   (kbar)     P=   -4.46
  -0.00002466   0.00000000   0.00000000         -3.63      0.00      0.00
   0.00000000  -0.00002466   0.00000000          0.00     -3.63      0.00
   0.00000000   0.00000000  -0.00004165          0.00      0.00     -6.13


     Writing output data file TvrzIpRGdQqdJcSk.save/
 
     init_run     :     40.84s CPU     44.28s WALL (       1 calls)
     electrons    :   1942.92s CPU   2048.03s WALL (       1 calls)
     forces       :     18.68s CPU     19.39s WALL (       1 calls)
     stress       :    186.85s CPU    187.52s WALL (       1 calls)

     Called by init_run:
     wfcinit      :     39.99s CPU     43.37s WALL (       1 calls)
     potinit      :      0.38s CPU      0.39s WALL (       1 calls)
     hinit0       :      0.28s CPU      0.31s WALL (       1 calls)

     Called by electrons:
     c_bands      :   1765.29s CPU   1851.41s WALL (      12 calls)
     sum_band     :    173.60s CPU    192.17s WALL (      12 calls)
     v_of_rho     :      0.34s CPU      0.36s WALL (      12 calls)
     newd         :      0.85s CPU      1.11s WALL (      12 calls)
     PAW_pot      :      3.04s CPU      3.09s WALL (      12 calls)
     mix_rho      :      0.08s CPU      0.10s WALL (      12 calls)

     Called by c_bands:
     init_us_2    :     10.77s CPU     10.83s WALL (    2025 calls)
     cegterg      :   1704.70s CPU   1790.52s WALL (     900 calls)

     Called by sum_band:
     sum_band:bec :      1.33s CPU      1.35s WALL (     900 calls)
     addusdens    :      0.95s CPU      1.27s WALL (      12 calls)

     Called by *egterg:
     h_psi        :    694.62s CPU    771.92s WALL (    2576 calls)
     s_psi        :     86.34s CPU     86.63s WALL (    2576 calls)
     g_psi        :      2.48s CPU      2.50s WALL (    1601 calls)
     cdiaghg      :    647.28s CPU    649.33s WALL (    2426 calls)

     Called by h_psi:
     h_psi:pot    :    687.96s CPU    764.99s WALL (    2576 calls)
     h_psi:calbec :     88.68s CPU     92.85s WALL (    2576 calls)
     vloc_psi     :    513.93s CPU    586.35s WALL (    2576 calls)
     add_vuspsi   :     85.32s CPU     85.77s WALL (    2576 calls)

     General routines
     calbec       :    145.19s CPU    152.08s WALL (    3851 calls)
     fft          :      0.32s CPU      0.37s WALL (     181 calls)
     ffts         :      0.03s CPU      0.03s WALL (      24 calls)
     fftw         :    597.46s CPU    681.26s WALL ( 1703524 calls)
     interpolate  :      0.04s CPU      0.04s WALL (      12 calls)
 
     Parallel routines
     fft_scatt_xy :     49.51s CPU     55.47s WALL ( 1703729 calls)
     fft_scatt_yz :    391.07s CPU    450.36s WALL ( 1703729 calls)
 
     PWSCF        : 36m36.14s CPU    39m57.56s WALL

 
   This run was terminated on:  20:41:27  11Nov2020            

=------------------------------------------------------------------------------=
   JOB DONE.
=------------------------------------------------------------------------------=
