--------------------------------------------------------------------------
WARNING: No preset parameters were found for the device that Open MPI
detected:

  Local host:            bear-pg0206u14b
  Device name:           mlx5_0
  Device vendor ID:      0x02c9
  Device vendor part ID: 4123

Default device parameters will be used, which may result in lower
performance.  You can edit any of the files specified by the
btl_openib_device_param_files MCA parameter to set values for your
device.

NOTE: You can turn off this warning by setting the MCA parameter
      btl_openib_warn_no_device_params_found to 0.
--------------------------------------------------------------------------
--------------------------------------------------------------------------
WARNING: There was an error initializing an OpenFabrics device.

  Local host:   bear-pg0206u14b
  Local device: mlx5_0
--------------------------------------------------------------------------

     Program PWSCF v.6.3 starts on 11Nov2020 at 20:41:30 

     This program is part of the open-source Quantum ESPRESSO suite
     for quantum simulation of materials; please cite
         "P. Giannozzi et al., J. Phys.:Condens. Matter 21 395502 (2009);
         "P. Giannozzi et al., J. Phys.:Condens. Matter 29 465901 (2017);
          URL http://www.quantum-espresso.org", 
     in publications or presentations arising from this work. More details at
     http://www.quantum-espresso.org/quote

     Parallel version (MPI & OpenMP), running on      20 processor cores
     Number of MPI processes:                20
     Threads/MPI process:                     1

     MPI processes distributed on     1 nodes
     R & G space division:  proc/nbgrp/npool/nimage =      20
     Reading input from wd/ec/ec_3_006.in
Warning: card &IONS ignored
Warning: card ION_DYNAMICS = 'BFGS', ignored
Warning: card / ignored
Warning: card &CELL ignored
Warning: card CELL_DYNAMICS = 'BFGS', ignored
Warning: card CELL_FACTOR = 2.0, ignored
Warning: card PRESS = 0.0, ignored
Warning: card / ignored

     Current dimensions of program PWSCF are:
     Max number of different atomic species (ntypx) = 10
     Max number of k-points (npk) =  40000
     Max angular momentum in pseudopotentials (lmaxx) =  3
               file Pd.pbe-spn-kjpaw_psl.1.0.0.UPF: wavefunction(s)  4S 5S 4D renormalized

     Subspace diagonalization in iterative solution of the eigenvalue problem:
     a serial algorithm will be used

 
     Parallelization info
     --------------------
     sticks:   dense  smooth     PW     G-vecs:    dense   smooth      PW
     Min         376     247     67                24694    13247    1879
     Max         377     248     68                24699    13254    1884
     Sum        7521    4957   1353               493915   265035   37625
 


     bravais-lattice index     =            0
     lattice parameter (alat)  =      14.8394  a.u.
     unit-cell volume          =    3281.3803 (a.u.)^3
     number of atoms/cell      =           32
     number of atomic types    =            1
     number of electrons       =       576.00
     number of Kohn-Sham states=          346
     kinetic-energy cutoff     =      71.0000  Ry
     charge density cutoff     =     430.0000  Ry
     convergence threshold     =      1.0E-06
     mixing beta               =       0.1000
     number of iterations used =           10  plain     mixing
     Exchange-correlation      = SLA PW PBX PBC ( 1  4  3  4 0 0)

     celldm(1)=  14.839420  celldm(2)=   0.000000  celldm(3)=   0.000000
     celldm(4)=   0.000000  celldm(5)=   0.000000  celldm(6)=   0.000000

     crystal axes: (cart. coord. in units of alat)
               a(1) = (   1.000000   0.000000   0.000000 )  
               a(2) = (   0.000000   1.000000   0.000000 )  
               a(3) = (   0.000000   0.000000   1.004167 )  

     reciprocal axes: (cart. coord. in units 2 pi/alat)
               b(1) = (  1.000000  0.000000  0.000000 )  
               b(2) = (  0.000000  1.000000  0.000000 )  
               b(3) = (  0.000000  0.000000  0.995851 )  


     PseudoPot. # 1 for Pd read from file:
     /rds/homes/b/bxp912/pp/Pd.pbe-spn-kjpaw_psl.1.0.0.UPF
     MD5 check sum: 790f2ebce206edfd9790dcb9844eca51
     Pseudo is Projector augmented-wave + core cor, Zval = 18.0
     Generated using "atomic" code by A. Dal Corso v.6.3
     Shape of augmentation charge: PSQ
     Using radial grid of 1235 points,  6 beta functions with: 
                l(1) =   0
                l(2) =   0
                l(3) =   1
                l(4) =   1
                l(5) =   2
                l(6) =   2
     Q(r) pseudized with 0 coefficients 


     atomic species   valence    mass     pseudopotential
        Pd            18.00   106.42000     Pd( 1.00)

     16 Sym. Ops., with inversion, found



   Cartesian axes

     site n.     atom                  positions (alat units)
         1           Pd  tau(   1) = (   0.0000000   0.0000000   0.0000000  )
         2           Pd  tau(   2) = (   0.2500045   0.2500045   0.0000000  )
         3           Pd  tau(   3) = (   0.2500045   0.0000000   0.2510456  )
         4           Pd  tau(   4) = (   0.0000000   0.2500045   0.2510456  )
         5           Pd  tau(   5) = (   0.0000000   0.0000000   0.5020823  )
         6           Pd  tau(   6) = (   0.2500116   0.2500116   0.5020823  )
         7           Pd  tau(   7) = (   0.2500045   0.0000000   0.7531200  )
         8           Pd  tau(   8) = (   0.0000000   0.2500045   0.7531200  )
         9           Pd  tau(   9) = (   0.0000000   0.4999998   0.0000000  )
        10           Pd  tau(  10) = (   0.2500045   0.7499952   0.0000000  )
        11           Pd  tau(  11) = (   0.2500116   0.4999998   0.2510526  )
        12           Pd  tau(  12) = (   0.0000000   0.7499952   0.2510456  )
        13           Pd  tau(  13) = (   0.0000000   0.4999998   0.5020823  )
        14           Pd  tau(  14) = (   0.2500116   0.7499881   0.5020823  )
        15           Pd  tau(  15) = (   0.2500116   0.4999998   0.7531131  )
        16           Pd  tau(  16) = (   0.0000000   0.7499952   0.7531200  )
        17           Pd  tau(  17) = (   0.4999998   0.0000000   0.0000000  )
        18           Pd  tau(  18) = (   0.7499952   0.2500045   0.0000000  )
        19           Pd  tau(  19) = (   0.7499952   0.0000000   0.2510456  )
        20           Pd  tau(  20) = (   0.4999998   0.2500116   0.2510526  )
        21           Pd  tau(  21) = (   0.4999998   0.0000000   0.5020823  )
        22           Pd  tau(  22) = (   0.7499881   0.2500116   0.5020823  )
        23           Pd  tau(  23) = (   0.7499952   0.0000000   0.7531200  )
        24           Pd  tau(  24) = (   0.4999998   0.2500116   0.7531131  )
        25           Pd  tau(  25) = (   0.4999998   0.4999998   0.0000000  )
        26           Pd  tau(  26) = (   0.7499952   0.7499952   0.0000000  )
        27           Pd  tau(  27) = (   0.7499881   0.4999998   0.2510526  )
        28           Pd  tau(  28) = (   0.4999998   0.7499881   0.2510526  )
        29           Pd  tau(  29) = (   0.4999998   0.4999998   0.5020823  )
        30           Pd  tau(  30) = (   0.7499881   0.7499881   0.5020823  )
        31           Pd  tau(  31) = (   0.7499881   0.4999998   0.7531131  )
        32           Pd  tau(  32) = (   0.4999998   0.7499881   0.7531131  )

     number of k points=    75  Marzari-Vanderbilt smearing, width (Ry)=  0.0400
                       cart. coord. in units 2pi/alat
        k(    1) = (   0.0555556   0.0555556   0.0553250), wk =   0.0219479
        k(    2) = (   0.0555556   0.0555556   0.1659751), wk =   0.0219479
        k(    3) = (   0.0555556   0.0555556   0.2766252), wk =   0.0219479
        k(    4) = (   0.0555556   0.0555556   0.3872752), wk =   0.0219479
        k(    5) = (   0.0555556   0.0555556  -0.4979253), wk =   0.0109739
        k(    6) = (   0.0555556   0.1666667   0.0553250), wk =   0.0438957
        k(    7) = (   0.0555556   0.1666667   0.1659751), wk =   0.0438957
        k(    8) = (   0.0555556   0.1666667   0.2766252), wk =   0.0438957
        k(    9) = (   0.0555556   0.1666667   0.3872752), wk =   0.0438957
        k(   10) = (   0.0555556   0.1666667  -0.4979253), wk =   0.0219479
        k(   11) = (   0.0555556   0.2777778   0.0553250), wk =   0.0438957
        k(   12) = (   0.0555556   0.2777778   0.1659751), wk =   0.0438957
        k(   13) = (   0.0555556   0.2777778   0.2766252), wk =   0.0438957
        k(   14) = (   0.0555556   0.2777778   0.3872752), wk =   0.0438957
        k(   15) = (   0.0555556   0.2777778  -0.4979253), wk =   0.0219479
        k(   16) = (   0.0555556   0.3888889   0.0553250), wk =   0.0438957
        k(   17) = (   0.0555556   0.3888889   0.1659751), wk =   0.0438957
        k(   18) = (   0.0555556   0.3888889   0.2766252), wk =   0.0438957
        k(   19) = (   0.0555556   0.3888889   0.3872752), wk =   0.0438957
        k(   20) = (   0.0555556   0.3888889  -0.4979253), wk =   0.0219479
        k(   21) = (   0.0555556  -0.5000000   0.0553250), wk =   0.0219479
        k(   22) = (   0.0555556  -0.5000000   0.1659751), wk =   0.0219479
        k(   23) = (   0.0555556  -0.5000000   0.2766252), wk =   0.0219479
        k(   24) = (   0.0555556  -0.5000000   0.3872752), wk =   0.0219479
        k(   25) = (   0.0555556  -0.5000000  -0.4979253), wk =   0.0109739
        k(   26) = (   0.1666667   0.1666667   0.0553250), wk =   0.0219479
        k(   27) = (   0.1666667   0.1666667   0.1659751), wk =   0.0219479
        k(   28) = (   0.1666667   0.1666667   0.2766252), wk =   0.0219479
        k(   29) = (   0.1666667   0.1666667   0.3872752), wk =   0.0219479
        k(   30) = (   0.1666667   0.1666667  -0.4979253), wk =   0.0109739
        k(   31) = (   0.1666667   0.2777778   0.0553250), wk =   0.0438957
        k(   32) = (   0.1666667   0.2777778   0.1659751), wk =   0.0438957
        k(   33) = (   0.1666667   0.2777778   0.2766252), wk =   0.0438957
        k(   34) = (   0.1666667   0.2777778   0.3872752), wk =   0.0438957
        k(   35) = (   0.1666667   0.2777778  -0.4979253), wk =   0.0219479
        k(   36) = (   0.1666667   0.3888889   0.0553250), wk =   0.0438957
        k(   37) = (   0.1666667   0.3888889   0.1659751), wk =   0.0438957
        k(   38) = (   0.1666667   0.3888889   0.2766252), wk =   0.0438957
        k(   39) = (   0.1666667   0.3888889   0.3872752), wk =   0.0438957
        k(   40) = (   0.1666667   0.3888889  -0.4979253), wk =   0.0219479
        k(   41) = (   0.1666667  -0.5000000   0.0553250), wk =   0.0219479
        k(   42) = (   0.1666667  -0.5000000   0.1659751), wk =   0.0219479
        k(   43) = (   0.1666667  -0.5000000   0.2766252), wk =   0.0219479
        k(   44) = (   0.1666667  -0.5000000   0.3872752), wk =   0.0219479
        k(   45) = (   0.1666667  -0.5000000  -0.4979253), wk =   0.0109739
        k(   46) = (   0.2777778   0.2777778   0.0553250), wk =   0.0219479
        k(   47) = (   0.2777778   0.2777778   0.1659751), wk =   0.0219479
        k(   48) = (   0.2777778   0.2777778   0.2766252), wk =   0.0219479
        k(   49) = (   0.2777778   0.2777778   0.3872752), wk =   0.0219479
        k(   50) = (   0.2777778   0.2777778  -0.4979253), wk =   0.0109739
        k(   51) = (   0.2777778   0.3888889   0.0553250), wk =   0.0438957
        k(   52) = (   0.2777778   0.3888889   0.1659751), wk =   0.0438957
        k(   53) = (   0.2777778   0.3888889   0.2766252), wk =   0.0438957
        k(   54) = (   0.2777778   0.3888889   0.3872752), wk =   0.0438957
        k(   55) = (   0.2777778   0.3888889  -0.4979253), wk =   0.0219479
        k(   56) = (   0.2777778  -0.5000000   0.0553250), wk =   0.0219479
        k(   57) = (   0.2777778  -0.5000000   0.1659751), wk =   0.0219479
        k(   58) = (   0.2777778  -0.5000000   0.2766252), wk =   0.0219479
        k(   59) = (   0.2777778  -0.5000000   0.3872752), wk =   0.0219479
        k(   60) = (   0.2777778  -0.5000000  -0.4979253), wk =   0.0109739
        k(   61) = (   0.3888889   0.3888889   0.0553250), wk =   0.0219479
        k(   62) = (   0.3888889   0.3888889   0.1659751), wk =   0.0219479
        k(   63) = (   0.3888889   0.3888889   0.2766252), wk =   0.0219479
        k(   64) = (   0.3888889   0.3888889   0.3872752), wk =   0.0219479
        k(   65) = (   0.3888889   0.3888889  -0.4979253), wk =   0.0109739
        k(   66) = (   0.3888889  -0.5000000   0.0553250), wk =   0.0219479
        k(   67) = (   0.3888889  -0.5000000   0.1659751), wk =   0.0219479
        k(   68) = (   0.3888889  -0.5000000   0.2766252), wk =   0.0219479
        k(   69) = (   0.3888889  -0.5000000   0.3872752), wk =   0.0219479
        k(   70) = (   0.3888889  -0.5000000  -0.4979253), wk =   0.0109739
        k(   71) = (  -0.5000000  -0.5000000   0.0553250), wk =   0.0054870
        k(   72) = (  -0.5000000  -0.5000000   0.1659751), wk =   0.0054870
        k(   73) = (  -0.5000000  -0.5000000   0.2766252), wk =   0.0054870
        k(   74) = (  -0.5000000  -0.5000000   0.3872752), wk =   0.0054870
        k(   75) = (  -0.5000000  -0.5000000  -0.4979253), wk =   0.0027435

     Dense  grid:   493915 G-vectors     FFT dimensions: ( 100, 100, 100)

     Smooth grid:   265035 G-vectors     FFT dimensions: (  80,  80,  80)

     Estimated max dynamical RAM per process >     894.18 MB

     Estimated total dynamical RAM >      17.46 GB

     Check: negative/imaginary core charge=   -0.000002    0.000000

     Initial potential from superposition of free atoms

     starting charge  575.98776, renormalised to  576.00000
     Starting wfcs are  320 randomized atomic wfcs +   26 random wfcs
     Checking if some PAW data can be deallocated... 

     total cpu time spent up to now is       45.1 secs

     Self-consistent Calculation

     iteration #  1     ecut=    71.00 Ry     beta= 0.10
     Davidson diagonalization with overlap
     ethr =  1.00E-02,  avg # of iterations =  3.1

     Threshold (ethr) on eigenvalues was too large:
     Diagonalizing with lowered threshold

     Davidson diagonalization with overlap
     ethr =  8.54E-05,  avg # of iterations =  3.2

     total cpu time spent up to now is      495.4 secs

     total energy              =  -16385.02266202 Ry
     Harris-Foulkes estimate   =  -16385.09204539 Ry
     estimated scf accuracy    <       0.48600681 Ry

     iteration #  2     ecut=    71.00 Ry     beta= 0.10
     Davidson diagonalization with overlap
     ethr =  8.44E-05,  avg # of iterations =  1.0

     total cpu time spent up to now is      631.1 secs

     total energy              =  -16384.92954407 Ry
     Harris-Foulkes estimate   =  -16385.03063282 Ry
     estimated scf accuracy    <       0.26392668 Ry

     iteration #  3     ecut=    71.00 Ry     beta= 0.10
     Davidson diagonalization with overlap
     ethr =  4.58E-05,  avg # of iterations =  2.1

     total cpu time spent up to now is      816.7 secs

     total energy              =  -16384.96262026 Ry
     Harris-Foulkes estimate   =  -16384.96812475 Ry
     estimated scf accuracy    <       0.07273997 Ry

     iteration #  4     ecut=    71.00 Ry     beta= 0.10
     Davidson diagonalization with overlap
     ethr =  1.26E-05,  avg # of iterations =  1.6

     total cpu time spent up to now is      968.2 secs

     total energy              =  -16384.96318586 Ry
     Harris-Foulkes estimate   =  -16384.96534823 Ry
     estimated scf accuracy    <       0.02214892 Ry

     iteration #  5     ecut=    71.00 Ry     beta= 0.10
     Davidson diagonalization with overlap
     ethr =  3.85E-06,  avg # of iterations =  1.3

     total cpu time spent up to now is     1111.0 secs

     total energy              =  -16384.95810112 Ry
     Harris-Foulkes estimate   =  -16384.96337978 Ry
     estimated scf accuracy    <       0.01511243 Ry

     iteration #  6     ecut=    71.00 Ry     beta= 0.10
     Davidson diagonalization with overlap
     ethr =  2.62E-06,  avg # of iterations =  1.0

     total cpu time spent up to now is     1247.1 secs

     total energy              =  -16384.95911708 Ry
     Harris-Foulkes estimate   =  -16384.95912453 Ry
     estimated scf accuracy    <       0.00021539 Ry

     iteration #  7     ecut=    71.00 Ry     beta= 0.10
     Davidson diagonalization with overlap
     ethr =  3.74E-08,  avg # of iterations =  3.0

     total cpu time spent up to now is     1491.7 secs

     total energy              =  -16384.95919833 Ry
     Harris-Foulkes estimate   =  -16384.95921427 Ry
     estimated scf accuracy    <       0.00025478 Ry

     iteration #  8     ecut=    71.00 Ry     beta= 0.10
     Davidson diagonalization with overlap
     ethr =  3.74E-08,  avg # of iterations =  1.1

     total cpu time spent up to now is     1630.4 secs

     total energy              =  -16384.95920196 Ry
     Harris-Foulkes estimate   =  -16384.95920630 Ry
     estimated scf accuracy    <       0.00005368 Ry

     iteration #  9     ecut=    71.00 Ry     beta= 0.10
     Davidson diagonalization with overlap
     ethr =  9.32E-09,  avg # of iterations =  1.0

     total cpu time spent up to now is     1765.0 secs

     total energy              =  -16384.95920161 Ry
     Harris-Foulkes estimate   =  -16384.95920296 Ry
     estimated scf accuracy    <       0.00003760 Ry

     iteration # 10     ecut=    71.00 Ry     beta= 0.10
     Davidson diagonalization with overlap
     ethr =  6.53E-09,  avg # of iterations =  2.0

     total cpu time spent up to now is     1949.2 secs

     total energy              =  -16384.95920891 Ry
     Harris-Foulkes estimate   =  -16384.95920579 Ry
     estimated scf accuracy    <       0.00000421 Ry

     iteration # 11     ecut=    71.00 Ry     beta= 0.10
     Davidson diagonalization with overlap
     ethr =  7.31E-10,  avg # of iterations =  1.0

     total cpu time spent up to now is     2085.2 secs

     End of self-consistent calculation

          k = 0.0556 0.0556 0.0553 ( 33123 PWs)   bands (ev):

   -64.9655 -64.9372 -64.9369 -64.9368 -64.9318 -64.9314 -64.9313 -64.9215
   -64.9214 -64.9213 -64.9191 -64.9188 -64.9185 -64.9185 -64.9184 -64.9183
   -64.9183 -64.9182 -64.9181 -64.9176 -64.9159 -64.9158 -64.9158 -64.9035
   -64.9034 -64.9031 -64.9030 -64.9029 -64.9029 -64.9026 -64.9024 -64.9018
   -30.8473 -30.8473 -30.8473 -30.8454 -30.8275 -30.8275 -30.8260 -30.7522
   -30.7494 -30.7494 -30.7480 -30.7480 -30.7452 -30.7452 -30.7450 -30.7449
   -30.7404 -30.7373 -30.7373 -30.7347 -30.7347 -30.7327 -30.7327 -30.7321
   -30.7320 -30.7165 -30.7165 -30.7141 -30.7141 -30.7137 -30.7136 -30.6747
   -30.6747 -30.6736 -30.6507 -30.6507 -30.6494 -30.6446 -30.6445 -30.6437
   -30.6356 -30.6356 -30.6352 -30.6352 -30.6342 -30.6342 -30.6211 -30.6211
   -30.6206 -30.6206 -30.6201 -30.6200 -30.6196 -30.6196 -30.6194 -30.6184
   -30.6180 -30.6171 -30.6166 -30.6164 -30.6154 -30.5562 -30.5562 -30.5540
   -30.5539 -30.5538 -30.5535 -30.5438 -30.5438 -30.5420 -30.5419 -30.5417
   -30.5416 -30.5396 -30.5395 -30.5378 -30.5356 -30.5350 -30.5350 -30.5345
   -30.5345 -30.5344 -30.5344 -30.5337 -30.5335 -30.5331 -30.5328 -30.5324
   -30.5322 -30.5313 -30.5275 -30.5274 -30.5259 -30.4820 -30.4797 -30.4797
    12.2174  13.9766  13.9768  13.9768  14.0427  14.0564  14.0564  14.0564
    14.2324  14.2466  14.2466  14.2501  14.2503  14.2503  14.4282  14.4420
    14.4421  14.9750  14.9751  14.9890  14.9891  14.9893  14.9894  15.1276
    15.1417  15.1417  15.2832  15.2841  15.2841  15.3110  15.3281  15.3281
    15.3648  15.3648  15.3661  15.3669  15.3670  15.3674  15.3674  15.3701
    15.3701  15.7029  15.7029  15.7115  15.7115  15.7145  15.7145  15.8071
    15.8208  15.8209  15.8282  15.8282  15.8423  15.8423  15.8441  15.8442
    15.8841  15.9001  15.9001  16.0555  16.0555  16.0653  16.0653  16.0693
    16.0693  16.1659  16.1659  16.1710  16.1711  16.1714  16.1715  16.1747
    16.1773  16.1774  16.2795  16.2796  16.2817  16.3262  16.3428  16.3428
    16.3468  16.3760  16.3761  16.3789  16.3823  16.3928  16.4138  16.4242
    17.1903  17.2113  17.2113  17.2620  17.2620  17.2709  17.3341  17.3341
    17.3353  17.3354  17.3410  17.3411  17.3423  17.3424  17.3477  17.3756
    17.3986  17.3987  17.4881  17.4882  17.5035  17.6101  17.6102  17.6144
    17.7310  17.7310  17.7450  17.7888  17.7888  17.8011  17.8635  17.8635
    17.8672  17.8673  17.8676  17.8677  17.8845  17.8846  17.8863  17.9123
    17.9358  17.9359  17.9365  17.9366  17.9472  17.9472  17.9514  18.0447
    18.0447  18.0555  18.4271  18.4271  18.4444  18.5290  18.5290  18.5438
    18.9115  18.9115  18.9231  19.0371  19.0371  19.0392  19.0566  19.0726
    19.0764  19.0889  19.0889  19.3108  19.3117  19.3117  19.3595  19.3595
    19.3605  19.3605  19.3686  19.3737  19.3738  19.3811  19.3812  20.0453
    20.3491  20.3492  20.3494  20.8532  20.8532  20.8767  21.3595  21.3596
    21.3609  21.3610  21.3884  21.3884  21.8866  21.8867  21.9189  22.4360
    22.5143  22.5143  26.2131  26.2131  26.2138  26.3702  27.3356  27.3357
    27.3715  27.3715  27.4077  27.4078  28.0268  28.0268  28.0606  28.0606
    28.0993  28.0994  29.4424  29.4424  29.4574  29.4575  29.4936  29.4936
    29.5505  29.6601  29.6601  30.5461  30.6113  30.6114  30.6241  30.6242
    30.6500  30.6501

          k = 0.0556 0.0556 0.1660 ( 33127 PWs)   bands (ev):

   -64.9646 -64.9426 -64.9364 -64.9363 -64.9309 -64.9308 -64.9265 -64.9243
   -64.9242 -64.9213 -64.9208 -64.9207 -64.9192 -64.9191 -64.9184 -64.9182
   -64.9178 -64.9176 -64.9158 -64.9155 -64.9154 -64.9134 -64.9133 -64.9045
   -64.9036 -64.9035 -64.9034 -64.9034 -64.9033 -64.9026 -64.9024 -64.9018
   -30.8445 -30.8429 -30.8429 -30.8398 -30.8244 -30.8244 -30.8212 -30.7632
   -30.7582 -30.7581 -30.7522 -30.7522 -30.7513 -30.7512 -30.7504 -30.7501
   -30.7500 -30.7386 -30.7386 -30.7359 -30.7358 -30.7314 -30.7314 -30.7275
   -30.7274 -30.7166 -30.7165 -30.7108 -30.7107 -30.7029 -30.6990 -30.6989
   -30.6793 -30.6793 -30.6654 -30.6654 -30.6504 -30.6504 -30.6496 -30.6496
   -30.6379 -30.6248 -30.6248 -30.6240 -30.6240 -30.6207 -30.6207 -30.6182
   -30.6179 -30.6163 -30.6161 -30.6150 -30.6144 -30.6144 -30.6142 -30.6142
   -30.6139 -30.6134 -30.6101 -30.6062 -30.6062 -30.5657 -30.5653 -30.5590
   -30.5589 -30.5513 -30.5512 -30.5471 -30.5470 -30.5464 -30.5464 -30.5437
   -30.5437 -30.5419 -30.5392 -30.5392 -30.5386 -30.5386 -30.5377 -30.5354
   -30.5336 -30.5335 -30.5329 -30.5327 -30.5321 -30.5317 -30.5316 -30.5303
   -30.5299 -30.5296 -30.5261 -30.5230 -30.5230 -30.4881 -30.4816 -30.4809
    12.2902  13.9344  14.0104  14.0225  14.0226  14.0704  14.0977  14.0977
    14.1110  14.2774  14.2923  14.2923  14.2972  14.2973  14.4932  14.4933
    14.4995  14.8905  14.8906  14.9522  15.0231  15.0232  15.0302  15.0303
    15.0521  15.1323  15.1323  15.1677  15.1677  15.1712  15.1782  15.1782
    15.3245  15.3246  15.3499  15.3499  15.3576  15.3576  15.3949  15.3949
    15.4397  15.4397  15.4972  15.6906  15.6906  15.7171  15.7172  15.7630
    15.7630  15.7722  15.7723  15.8293  15.8293  15.9170  15.9171  15.9207
    15.9650  15.9650  16.0106  16.0258  16.0258  16.0261  16.0262  16.0738
    16.0738  16.1133  16.1133  16.1454  16.1455  16.2866  16.3124  16.3124
    16.3262  16.3263  16.3358  16.3466  16.3466  16.3477  16.3922  16.4015
    16.4051  16.4204  16.4204  16.4360  16.4506  16.4513  16.4513  16.4563
    17.0240  17.0240  17.1237  17.1339  17.1588  17.1589  17.2124  17.2124
    17.2293  17.2782  17.2848  17.2848  17.4051  17.4159  17.4160  17.4285
    17.4286  17.4660  17.4660  17.4693  17.4693  17.6855  17.6856  17.6967
    17.7091  17.7092  17.7821  17.7822  17.8631  17.8631  17.8680  17.8680
    17.8716  17.8717  17.8720  17.9554  17.9589  17.9590  17.9673  17.9968
    18.0790  18.0790  18.0916  18.0916  18.1200  18.1201  18.1821  18.1917
    18.1918  18.2224  18.3483  18.4740  18.4741  18.6028  18.6029  18.6106
    18.6440  18.6571  18.6571  18.8731  18.9749  18.9749  18.9907  19.0163
    19.0496  19.0549  19.0549  19.0772  19.0772  19.2419  19.2890  19.2890
    19.2908  19.2908  19.3079  19.3786  19.3788  19.3810  19.3812  20.0378
    20.3927  20.3927  20.5202  20.5202  20.7495  20.8477  20.8741  20.8741
    21.3654  21.3654  21.8994  21.9232  21.9232  22.0764  22.4626  22.4626
    22.8001  22.8001  26.2110  26.3701  26.3701  26.6267  26.6267  26.6589
    26.6589  26.6648  27.2196  27.2196  27.5379  27.5379  28.2225  28.2226
    28.6986  28.6987  29.5404  29.5404  29.5936  29.6461  29.6461  29.7932
    29.7932  29.8591  29.8591  30.0024  30.0850  30.0850  30.1377  30.1377
    30.6338  30.6339

          k = 0.0556 0.0556 0.2766 ( 33144 PWs)   bands (ev):

   -64.9627 -64.9477 -64.9353 -64.9353 -64.9301 -64.9300 -64.9271 -64.9270
   -64.9231 -64.9230 -64.9214 -64.9212 -64.9196 -64.9191 -64.9184 -64.9182
   -64.9176 -64.9174 -64.9160 -64.9128 -64.9127 -64.9111 -64.9110 -64.9063
   -64.9046 -64.9045 -64.9042 -64.9041 -64.9034 -64.9026 -64.9024 -64.9018
   -30.8377 -30.8348 -30.8348 -30.8303 -30.8183 -30.8183 -30.8115 -30.7796
   -30.7741 -30.7741 -30.7690 -30.7690 -30.7662 -30.7526 -30.7526 -30.7508
   -30.7507 -30.7410 -30.7409 -30.7321 -30.7321 -30.7306 -30.7301 -30.7301
   -30.7177 -30.7176 -30.7156 -30.7156 -30.7050 -30.7050 -30.6874 -30.6874
   -30.6821 -30.6820 -30.6795 -30.6795 -30.6633 -30.6633 -30.6608 -30.6608
   -30.6315 -30.6315 -30.6204 -30.6180 -30.6177 -30.6161 -30.6159 -30.6108
   -30.6094 -30.6081 -30.6081 -30.6065 -30.6065 -30.6052 -30.6052 -30.6044
   -30.6044 -30.5956 -30.5924 -30.5923 -30.5851 -30.5772 -30.5764 -30.5642
   -30.5642 -30.5564 -30.5564 -30.5546 -30.5546 -30.5521 -30.5515 -30.5514
   -30.5474 -30.5474 -30.5466 -30.5465 -30.5415 -30.5373 -30.5344 -30.5336
   -30.5336 -30.5335 -30.5329 -30.5327 -30.5321 -30.5312 -30.5312 -30.5294
   -30.5264 -30.5209 -30.5208 -30.5187 -30.5182 -30.4991 -30.4857 -30.4848
    12.4340  13.5864  14.0754  14.1116  14.1116  14.1394  14.1796  14.1796
    14.2055  14.3316  14.3762  14.3762  14.3950  14.3951  14.4702  14.5924
    14.5925  14.7454  14.7455  14.7894  14.8062  14.8833  14.8833  14.9344
    15.0407  15.0407  15.0868  15.0869  15.1103  15.1104  15.1149  15.1149
    15.2193  15.2194  15.2240  15.2241  15.3393  15.3393  15.3925  15.3925
    15.5029  15.5029  15.6475  15.6475  15.6730  15.6731  15.6805  15.7001
    15.7002  15.7188  15.7189  15.7435  15.7435  15.8548  15.8549  15.9279
    15.9280  15.9677  15.9761  15.9761  16.0421  16.0421  16.0806  16.0807
    16.0851  16.0851  16.1351  16.1700  16.1701  16.2312  16.2591  16.2716
    16.2716  16.3302  16.3507  16.3508  16.4604  16.4905  16.4905  16.5110
    16.5164  16.5200  16.6586  16.6586  16.6773  16.7256  16.8212  16.8213
    16.8680  16.8680  16.8941  16.8942  16.9655  17.0395  17.0497  17.0498
    17.0663  17.0737  17.3428  17.3688  17.3688  17.4616  17.4616  17.5346
    17.5348  17.5508  17.5509  17.6079  17.6079  17.6386  17.6387  17.6990
    17.6992  17.7943  17.8461  17.8461  17.8488  17.8488  17.8723  17.8723
    17.8755  17.8756  17.9985  18.0699  18.1249  18.1249  18.1406  18.1406
    18.1570  18.2440  18.2509  18.2581  18.2860  18.2860  18.2892  18.2892
    18.3287  18.3287  18.3600  18.3706  18.3706  18.4516  18.6206  18.6206
    18.6750  18.6793  18.6793  18.7429  18.8324  18.8324  18.8816  18.8816
    18.8824  18.9671  18.9677  18.9678  18.9777  19.1090  19.1576  19.1576
    19.1597  19.1597  19.1961  19.3792  19.3796  19.3808  19.3812  19.9680
    19.9681  20.2111  20.4161  20.4162  20.7449  20.7450  20.7882  21.1208
    21.3163  21.3163  21.4709  21.8543  22.5539  22.5540  23.0993  23.0993
    23.2811  23.2811  25.7485  25.7485  25.9391  25.9391  26.3076  26.3076
    26.3782  26.6815  26.6816  27.0858  27.7842  27.7842  28.4584  28.4585
    28.7078  29.2025  29.2025  29.2541  29.2541  29.5578  29.5578  29.6183
    29.6183  29.6938  29.6938  29.8139  29.9684  29.9685  30.1304  30.1304
    30.1384  30.1385

          k = 0.0556 0.0556 0.3873 ( 33117 PWs)   bands (ev):

   -64.9600 -64.9523 -64.9339 -64.9338 -64.9296 -64.9295 -64.9289 -64.9288
   -64.9253 -64.9252 -64.9210 -64.9200 -64.9191 -64.9184 -64.9182 -64.9176
   -64.9171 -64.9167 -64.9161 -64.9102 -64.9101 -64.9090 -64.9090 -64.9089
   -64.9060 -64.9059 -64.9054 -64.9054 -64.9034 -64.9026 -64.9024 -64.9018
   -30.8272 -30.8231 -30.8231 -30.8173 -30.8094 -30.8094 -30.7971 -30.7970
   -30.7917 -30.7917 -30.7844 -30.7844 -30.7841 -30.7560 -30.7526 -30.7526
   -30.7479 -30.7478 -30.7463 -30.7462 -30.7370 -30.7369 -30.7199 -30.7199
   -30.7126 -30.7126 -30.7022 -30.7022 -30.6977 -30.6977 -30.6972 -30.6972
   -30.6924 -30.6924 -30.6761 -30.6761 -30.6739 -30.6739 -30.6664 -30.6664
   -30.6408 -30.6408 -30.6177 -30.6173 -30.6164 -30.6160 -30.6048 -30.6035
   -30.6009 -30.5934 -30.5934 -30.5934 -30.5934 -30.5923 -30.5923 -30.5906
   -30.5906 -30.5876 -30.5867 -30.5796 -30.5796 -30.5793 -30.5718 -30.5718
   -30.5674 -30.5674 -30.5672 -30.5671 -30.5657 -30.5590 -30.5590 -30.5588
   -30.5588 -30.5585 -30.5513 -30.5413 -30.5412 -30.5367 -30.5352 -30.5336
   -30.5329 -30.5328 -30.5328 -30.5327 -30.5321 -30.5285 -30.5282 -30.5282
   -30.5268 -30.5212 -30.5211 -30.5147 -30.5085 -30.5077 -30.4917 -30.4907
    12.6449  13.2364  14.1663  14.2389  14.2390  14.2491  14.3012  14.3012
    14.3384  14.3831  14.4117  14.5014  14.5014  14.5330  14.5330  14.5717
    14.5717  14.5853  14.6429  14.6564  14.6564  14.7080  14.7322  14.7323
    14.8721  14.8721  14.8752  14.8752  15.0732  15.0733  15.1696  15.1697
    15.2255  15.2256  15.2957  15.2957  15.3086  15.3087  15.4536  15.4537
    15.5017  15.5018  15.5160  15.5161  15.6150  15.6150  15.6510  15.6511
    15.6645  15.6645  15.7101  15.7101  15.7550  15.7550  15.8547  15.8980
    15.8981  15.9254  15.9254  16.0269  16.0865  16.0865  16.0871  16.0872
    16.1029  16.1029  16.1501  16.1652  16.2020  16.2205  16.2205  16.2736
    16.2736  16.2976  16.4028  16.4029  16.5471  16.5885  16.5886  16.6125
    16.6147  16.6157  16.6425  16.6426  16.6495  16.6496  16.8044  16.8453
    16.8453  16.8866  16.8932  16.8999  17.0706  17.0758  17.0758  17.0881
    17.3102  17.3102  17.4293  17.4322  17.4323  17.4556  17.4556  17.6284
    17.6285  17.6671  17.6671  17.6736  17.6738  17.6859  17.6878  17.6879
    17.7275  17.7276  17.8163  17.8164  17.8555  17.8556  17.8562  17.8563
    17.8582  17.8804  17.8804  17.8872  17.8873  17.9800  18.0446  18.0859
    18.0859  18.1760  18.2351  18.2351  18.3270  18.3271  18.3645  18.4028
    18.4864  18.4864  18.4966  18.5454  18.5505  18.5505  18.5711  18.5711
    18.7246  18.7246  18.7369  18.8379  18.8379  18.8397  18.8648  18.8765
    18.8797  18.8798  18.9203  18.9815  18.9815  18.9817  18.9817  19.0590
    19.1755  19.1755  19.2805  19.3795  19.3800  19.3806  19.3811  19.5729
    19.5729  19.9806  19.9806  20.4023  20.6956  20.7458  20.9514  20.9514
    21.2354  21.2354  21.4186  21.7711  23.2569  23.2569  23.8037  23.8037
    23.8742  23.8742  24.8678  24.8678  25.2253  25.2253  25.4163  25.4163
    26.7246  27.1408  27.1408  27.6228  27.9149  28.1318  28.1319  28.4462
    28.4462  28.7901  28.7902  29.0002  29.0418  29.0418  29.4292  29.4292
    29.5769  29.5769  29.6534  29.6535  30.0767  30.0768  30.1139  30.1139
    30.3375  30.3375

          k = 0.0556 0.0556-0.4979 ( 33138 PWs)   bands (ev):

   -64.9569 -64.9561 -64.9323 -64.9322 -64.9316 -64.9315 -64.9276 -64.9275
   -64.9268 -64.9267 -64.9209 -64.9201 -64.9191 -64.9184 -64.9182 -64.9176
   -64.9170 -64.9162 -64.9129 -64.9121 -64.9083 -64.9082 -64.9076 -64.9075
   -64.9074 -64.9074 -64.9067 -64.9066 -64.9034 -64.9026 -64.9024 -64.9018
   -30.8135 -30.8132 -30.8090 -30.8087 -30.8082 -30.8079 -30.8018 -30.8014
   -30.7984 -30.7984 -30.7976 -30.7976 -30.7787 -30.7780 -30.7506 -30.7505
   -30.7503 -30.7502 -30.7432 -30.7432 -30.7430 -30.7430 -30.7092 -30.7091
   -30.7088 -30.7087 -30.7041 -30.7041 -30.7034 -30.7034 -30.6882 -30.6882
   -30.6879 -30.6879 -30.6878 -30.6878 -30.6871 -30.6871 -30.6529 -30.6529
   -30.6522 -30.6522 -30.6175 -30.6169 -30.6166 -30.6161 -30.5973 -30.5965
   -30.5961 -30.5953 -30.5824 -30.5821 -30.5821 -30.5820 -30.5813 -30.5813
   -30.5805 -30.5805 -30.5801 -30.5801 -30.5799 -30.5798 -30.5795 -30.5795
   -30.5742 -30.5739 -30.5734 -30.5732 -30.5687 -30.5687 -30.5679 -30.5679
   -30.5644 -30.5640 -30.5367 -30.5366 -30.5364 -30.5363 -30.5362 -30.5356
   -30.5351 -30.5345 -30.5335 -30.5328 -30.5326 -30.5320 -30.5281 -30.5273
   -30.5240 -30.5239 -30.5237 -30.5236 -30.4997 -30.4989 -30.4988 -30.4981
    12.9157  12.9167  14.2734  14.2742  14.3959  14.3963  14.3967  14.3973
    14.3983  14.3984  14.4605  14.4605  14.4614  14.4614  14.5071  14.5071
    14.5157  14.5166  14.6667  14.6667  14.6676  14.6676  14.6984  14.6985
    14.6992  14.6993  14.8992  14.8992  14.8999  14.9000  15.2511  15.2511
    15.2514  15.2515  15.3668  15.3669  15.3676  15.3677  15.3951  15.3951
    15.3958  15.3958  15.5294  15.5294  15.5300  15.5301  15.6791  15.6791
    15.6793  15.6793  15.6857  15.6857  15.6858  15.6858  15.8970  15.8970
    15.8970  15.8971  16.0130  16.0137  16.0889  16.0890  16.0896  16.0896
    16.0945  16.0951  16.1621  16.1626  16.1628  16.1633  16.2537  16.2543
    16.4388  16.4388  16.4389  16.4390  16.5005  16.5006  16.5007  16.5007
    16.6628  16.6630  16.7118  16.7120  16.7126  16.7129  16.7371  16.7380
    16.7393  16.7401  16.7469  16.7472  17.4495  17.4495  17.4500  17.4501
    17.4654  17.4654  17.4657  17.4657  17.4691  17.4695  17.5122  17.5125
    17.5574  17.5581  17.6697  17.6699  17.6704  17.6705  17.7568  17.7569
    17.7575  17.7576  17.7694  17.7695  17.7700  17.7701  17.7701  17.7702
    17.7705  17.7705  17.8103  17.8104  17.8110  17.8111  17.9847  17.9847
    17.9854  17.9854  18.1038  18.1046  18.5342  18.5347  18.5348  18.5353
    18.5612  18.5614  18.6739  18.6741  18.6746  18.6747  18.6835  18.6841
    18.7156  18.7158  18.7177  18.7179  18.7727  18.7727  18.7732  18.7732
    18.7798  18.7798  18.7803  18.7803  18.9391  18.9395  19.2069  19.2069
    19.2070  19.2071  19.3795  19.3802  19.3803  19.3810  19.5653  19.5653
    19.5654  19.5655  19.9926  19.9932  20.5665  20.5673  21.1153  21.1154
    21.1161  21.1161  21.6317  21.6325  24.0308  24.0308  24.0312  24.0312
    24.5310  24.5310  24.5316  24.5316  24.5773  24.5773  24.5776  24.5776
    27.2440  27.2441  27.7346  27.7347  27.7353  27.7354  28.2650  28.2651
    28.5583  28.5583  28.5590  28.5591  29.1959  29.1960  29.1967  29.1968
    29.5189  29.5193  29.5195  29.5200  30.2860  30.2861  30.2869  30.2870
    30.5680  30.5687

          k = 0.0556 0.1667 0.0553 ( 33131 PWs)   bands (ev):

   -64.9646 -64.9422 -64.9367 -64.9363 -64.9313 -64.9309 -64.9259 -64.9244
   -64.9243 -64.9213 -64.9209 -64.9209 -64.9192 -64.9185 -64.9184 -64.9183
   -64.9181 -64.9178 -64.9159 -64.9153 -64.9153 -64.9134 -64.9133 -64.9040
   -64.9036 -64.9035 -64.9033 -64.9031 -64.9030 -64.9029 -64.9028 -64.9022
   -30.8446 -30.8430 -30.8429 -30.8397 -30.8243 -30.8229 -30.8224 -30.7610
   -30.7559 -30.7557 -30.7540 -30.7530 -30.7515 -30.7506 -30.7505 -30.7498
   -30.7478 -30.7414 -30.7382 -30.7381 -30.7365 -30.7334 -30.7310 -30.7304
   -30.7272 -30.7191 -30.7171 -30.7132 -30.7103 -30.7041 -30.6961 -30.6959
   -30.6796 -30.6782 -30.6659 -30.6644 -30.6508 -30.6504 -30.6497 -30.6487
   -30.6386 -30.6249 -30.6245 -30.6229 -30.6208 -30.6203 -30.6199 -30.6192
   -30.6191 -30.6189 -30.6181 -30.6150 -30.6147 -30.6147 -30.6146 -30.6136
   -30.6129 -30.6125 -30.6108 -30.6057 -30.6048 -30.5685 -30.5658 -30.5567
   -30.5565 -30.5531 -30.5509 -30.5470 -30.5452 -30.5445 -30.5443 -30.5436
   -30.5422 -30.5404 -30.5402 -30.5394 -30.5387 -30.5385 -30.5375 -30.5350
   -30.5348 -30.5345 -30.5345 -30.5343 -30.5334 -30.5318 -30.5316 -30.5315
   -30.5304 -30.5299 -30.5277 -30.5229 -30.5215 -30.4883 -30.4817 -30.4811
    12.2908  13.9474  14.0112  14.0230  14.0231  14.0705  14.0977  14.0978
    14.1112  14.2781  14.2841  14.2920  14.2922  14.2977  14.4805  14.4939
    14.5117  14.9029  14.9036  14.9635  15.0105  15.0169  15.0237  15.0304
    15.0539  15.1350  15.1352  15.1540  15.1671  15.1747  15.1787  15.1797
    15.3255  15.3260  15.3334  15.3492  15.3534  15.3585  15.3878  15.3972
    15.4364  15.4397  15.5174  15.6971  15.7009  15.7059  15.7147  15.7506
    15.7601  15.7601  15.7701  15.8176  15.8327  15.9073  15.9172  15.9336
    15.9778  15.9819  16.0227  16.0272  16.0316  16.0338  16.0378  16.0600
    16.0703  16.1105  16.1162  16.1390  16.1430  16.3097  16.3099  16.3207
    16.3212  16.3384  16.3397  16.3420  16.3606  16.3650  16.3869  16.3918
    16.3939  16.3966  16.4123  16.4222  16.4227  16.4406  16.4547  16.4567
    17.0042  17.0154  17.1210  17.1341  17.1389  17.1523  17.2008  17.2010
    17.2188  17.2622  17.2875  17.2960  17.4084  17.4168  17.4244  17.4317
    17.4360  17.4702  17.4749  17.4793  17.4890  17.6875  17.6986  17.7154
    17.7161  17.7259  17.7833  17.7835  17.8603  17.8637  17.8696  17.8702
    17.8734  17.8788  17.8950  17.9445  17.9475  17.9628  17.9639  17.9843
    18.0785  18.0809  18.0843  18.0852  18.1200  18.1285  18.1753  18.1922
    18.2013  18.2308  18.3286  18.4728  18.4877  18.6013  18.6027  18.6133
    18.6317  18.6490  18.6599  18.8647  18.9770  18.9778  19.0020  19.0137
    19.0528  19.0613  19.0656  19.0786  19.0951  19.2428  19.2900  19.2902
    19.3087  19.3096  19.3118  19.3563  19.3585  19.3614  19.3650  20.0323
    20.3921  20.4111  20.5159  20.5160  20.7462  20.8249  20.8720  20.8970
    21.3374  21.3389  21.8685  21.9272  21.9578  22.1511  22.4651  22.5000
    22.7285  22.8041  26.2126  26.3722  26.3739  26.6200  26.6631  26.6678
    26.6914  26.6966  27.2538  27.2882  27.4684  27.5047  28.1504  28.1857
    28.6656  28.7343  29.4796  29.5190  29.5377  29.6457  29.6470  29.7239
    29.8017  29.8140  29.8768  30.0214  30.0813  30.1153  30.1872  30.1906
    30.5681  30.6894

          k = 0.0556 0.1667 0.1660 ( 33137 PWs)   bands (ev):

   -64.9636 -64.9420 -64.9416 -64.9358 -64.9305 -64.9277 -64.9261 -64.9256
   -64.9241 -64.9241 -64.9208 -64.9207 -64.9202 -64.9187 -64.9176 -64.9174
   -64.9174 -64.9172 -64.9156 -64.9154 -64.9136 -64.9135 -64.9113 -64.9044
   -64.9040 -64.9039 -64.9038 -64.9037 -64.9032 -64.9031 -64.9029 -64.9022
   -30.8419 -30.8418 -30.8373 -30.8326 -30.8213 -30.8197 -30.8183 -30.7656
   -30.7637 -30.7633 -30.7609 -30.7538 -30.7517 -30.7508 -30.7504 -30.7498
   -30.7486 -30.7481 -30.7474 -30.7467 -30.7400 -30.7398 -30.7395 -30.7374
   -30.7141 -30.7082 -30.7079 -30.7073 -30.7061 -30.7038 -30.7013 -30.6961
   -30.6933 -30.6845 -30.6809 -30.6571 -30.6521 -30.6516 -30.6382 -30.6378
   -30.6351 -30.6339 -30.6295 -30.6226 -30.6218 -30.6212 -30.6186 -30.6149
   -30.6145 -30.6143 -30.6139 -30.6132 -30.6130 -30.6120 -30.6114 -30.6103
   -30.6096 -30.6093 -30.5973 -30.5965 -30.5918 -30.5713 -30.5685 -30.5635
   -30.5632 -30.5557 -30.5534 -30.5525 -30.5467 -30.5467 -30.5462 -30.5448
   -30.5435 -30.5425 -30.5425 -30.5424 -30.5418 -30.5408 -30.5375 -30.5364
   -30.5358 -30.5355 -30.5340 -30.5331 -30.5324 -30.5319 -30.5305 -30.5304
   -30.5264 -30.5262 -30.5233 -30.5219 -30.5166 -30.4960 -30.4836 -30.4808
    12.3627  13.9872  13.9993  14.0570  14.0571  14.0642  14.0831  14.1242
    14.1639  14.1640  14.3191  14.3196  14.3370  14.3377  14.5315  14.5521
    14.5633  14.9139  14.9242  14.9332  14.9455  14.9658  14.9662  14.9824
    14.9933  15.0080  15.0637  15.0639  15.0784  15.0796  15.2034  15.2047
    15.2070  15.2122  15.2155  15.2674  15.3810  15.4067  15.4067  15.4087
    15.4114  15.4394  15.4412  15.5153  15.5347  15.6667  15.6751  15.7562
    15.7577  15.7682  15.8544  15.8616  15.8692  15.8749  15.9320  15.9376
    15.9448  15.9966  16.0062  16.0136  16.0209  16.0628  16.0731  16.1693
    16.2139  16.2176  16.2459  16.2563  16.2677  16.2687  16.3202  16.3295
    16.3731  16.3745  16.3747  16.3779  16.3785  16.3869  16.3960  16.4110
    16.4371  16.4457  16.4462  16.4505  16.4523  16.4707  16.4814  16.4845
    16.9208  16.9665  16.9826  17.0298  17.1228  17.1389  17.2328  17.2458
    17.2522  17.2658  17.2683  17.3119  17.3223  17.3349  17.3458  17.3879
    17.3900  17.4072  17.4790  17.5481  17.5606  17.5628  17.5784  17.5810
    17.5991  17.8584  17.8590  17.8674  17.8720  17.8799  17.9468  17.9506
    17.9507  17.9606  17.9668  17.9729  17.9737  17.9749  18.0540  18.0595
    18.0809  18.0819  18.2591  18.2654  18.2993  18.3111  18.3175  18.3188
    18.3584  18.3592  18.3635  18.3747  18.4192  18.4232  18.4510  18.4893
    18.6125  18.7204  18.7724  18.7767  18.9035  18.9085  18.9113  18.9255
    19.0262  19.0500  19.0513  19.0639  19.0692  19.0851  19.2320  19.2330
    19.2875  19.2927  19.3065  19.3080  19.3106  19.3183  19.3310  19.7548
    19.9641  20.3615  20.3795  20.4173  20.8508  20.8729  21.0414  21.0427
    21.4157  21.4205  21.9110  21.9444  22.3677  22.4354  22.4512  22.4869
    23.0457  23.0615  26.0024  26.0406  26.2092  26.2111  26.6712  26.7167
    26.7812  26.7955  26.8257  27.0718  27.3488  27.4139  27.7854  27.8188
    28.8261  28.8630  29.0741  29.1305  29.5223  29.6132  29.6268  29.6696
    29.7592  29.7631  29.9534  29.9863  29.9940  30.1050  30.4249  30.4536
    30.7099  30.7751

          k = 0.0556 0.1667 0.2766 ( 33133 PWs)   bands (ev):

   -64.9618 -64.9470 -64.9405 -64.9348 -64.9309 -64.9297 -64.9268 -64.9249
   -64.9238 -64.9229 -64.9211 -64.9210 -64.9207 -64.9192 -64.9191 -64.9170
   -64.9165 -64.9155 -64.9143 -64.9138 -64.9129 -64.9113 -64.9095 -64.9062
   -64.9049 -64.9048 -64.9046 -64.9040 -64.9039 -64.9031 -64.9029 -64.9022
   -30.8365 -30.8352 -30.8281 -30.8218 -30.8152 -30.8142 -30.8091 -30.7823
   -30.7790 -30.7690 -30.7663 -30.7660 -30.7638 -30.7635 -30.7555 -30.7540
   -30.7526 -30.7478 -30.7473 -30.7454 -30.7438 -30.7423 -30.7392 -30.7324
   -30.7252 -30.7130 -30.7093 -30.7029 -30.6991 -30.6981 -30.6952 -30.6933
   -30.6881 -30.6879 -30.6793 -30.6680 -30.6648 -30.6516 -30.6473 -30.6377
   -30.6341 -30.6326 -30.6292 -30.6211 -30.6205 -30.6143 -30.6142 -30.6134
   -30.6125 -30.6114 -30.6088 -30.6059 -30.6037 -30.6013 -30.6010 -30.5985
   -30.5962 -30.5935 -30.5846 -30.5834 -30.5799 -30.5784 -30.5767 -30.5748
   -30.5603 -30.5603 -30.5594 -30.5584 -30.5557 -30.5555 -30.5548 -30.5541
   -30.5485 -30.5471 -30.5440 -30.5437 -30.5433 -30.5415 -30.5389 -30.5379
   -30.5377 -30.5370 -30.5355 -30.5342 -30.5317 -30.5309 -30.5285 -30.5226
   -30.5215 -30.5212 -30.5210 -30.5147 -30.5126 -30.5082 -30.4877 -30.4830
    12.5047  13.6425  14.1001  14.1225  14.1360  14.1447  14.1466  14.1904
    14.2554  14.2677  14.3725  14.4026  14.4133  14.4263  14.5218  14.6020
    14.6636  14.7357  14.7573  14.7862  14.8178  14.8227  14.8346  14.8669
    14.9621  14.9689  14.9916  15.0036  15.0278  15.0530  15.1253  15.1318
    15.1427  15.1565  15.1873  15.2370  15.2810  15.2985  15.3258  15.4309
    15.4446  15.4489  15.4943  15.5675  15.5999  15.6124  15.6249  15.6943
    15.7173  15.7276  15.7479  15.7605  15.8060  15.8692  15.8735  15.9182
    15.9288  15.9421  16.0321  16.0719  16.1107  16.1248  16.1700  16.1814
    16.1924  16.2010  16.2050  16.2452  16.2569  16.2899  16.2906  16.3323
    16.3634  16.3652  16.4367  16.4677  16.4858  16.5079  16.5097  16.5157
    16.5434  16.5562  16.5689  16.5704  16.5821  16.6850  16.7734  16.7955
    16.8291  16.8344  16.8515  16.9403  16.9705  17.0675  17.0752  17.0921
    17.1615  17.1713  17.1789  17.2412  17.2514  17.3258  17.3309  17.4402
    17.4499  17.4748  17.4825  17.5300  17.5805  17.6621  17.7104  17.7200
    17.7346  17.7970  17.8262  17.8406  17.8691  17.9209  17.9488  17.9814
    17.9869  18.0387  18.0396  18.0759  18.0835  18.0944  18.0991  18.1043
    18.1178  18.1439  18.2253  18.2714  18.2810  18.3103  18.3447  18.4055
    18.4147  18.4405  18.4484  18.4499  18.4542  18.4738  18.4829  18.5644
    18.5761  18.5967  18.6922  18.7735  18.8012  18.8241  18.9013  18.9152
    18.9870  19.0224  19.0273  19.0300  19.1055  19.1249  19.1265  19.1361
    19.1570  19.1628  19.2018  19.3074  19.3116  19.3170  19.3172  19.5775
    19.7905  19.9362  20.3158  20.3934  20.4477  20.8242  20.9353  21.3334
    21.5291  21.7667  21.9121  22.0326  22.4499  22.5551  22.9058  23.0972
    23.5079  23.6802  25.1736  25.3973  25.8179  26.0858  26.2105  26.3313
    26.3786  26.8437  27.0864  27.0966  27.1043  27.5737  27.6238  28.1938
    28.3468  28.6374  28.7251  28.9596  29.0936  29.1753  29.3848  29.5823
    29.7622  29.8339  29.8626  30.0832  30.1321  30.3560  30.4048  30.4772
    30.6993  30.7855

          k = 0.0556 0.1667 0.3873 ( 33138 PWs)   bands (ev):

   -64.9591 -64.9516 -64.9388 -64.9339 -64.9334 -64.9293 -64.9285 -64.9250
   -64.9239 -64.9234 -64.9218 -64.9209 -64.9205 -64.9195 -64.9167 -64.9164
   -64.9158 -64.9157 -64.9143 -64.9114 -64.9104 -64.9093 -64.9089 -64.9078
   -64.9065 -64.9063 -64.9058 -64.9048 -64.9040 -64.9032 -64.9029 -64.9022
   -30.8275 -30.8250 -30.8155 -30.8079 -30.8064 -30.8061 -30.7994 -30.7959
   -30.7954 -30.7833 -30.7831 -30.7816 -30.7734 -30.7633 -30.7616 -30.7566
   -30.7565 -30.7560 -30.7550 -30.7517 -30.7425 -30.7388 -30.7358 -30.7282
   -30.7204 -30.7161 -30.7112 -30.7075 -30.7044 -30.6961 -30.6876 -30.6829
   -30.6817 -30.6803 -30.6766 -30.6733 -30.6643 -30.6639 -30.6597 -30.6494
   -30.6479 -30.6384 -30.6142 -30.6135 -30.6119 -30.6116 -30.6110 -30.6081
   -30.6069 -30.6028 -30.6025 -30.5947 -30.5920 -30.5907 -30.5906 -30.5900
   -30.5865 -30.5856 -30.5847 -30.5808 -30.5738 -30.5729 -30.5695 -30.5690
   -30.5685 -30.5682 -30.5678 -30.5672 -30.5664 -30.5661 -30.5660 -30.5547
   -30.5538 -30.5533 -30.5461 -30.5458 -30.5448 -30.5429 -30.5427 -30.5409
   -30.5397 -30.5389 -30.5336 -30.5332 -30.5314 -30.5298 -30.5267 -30.5244
   -30.5236 -30.5221 -30.5160 -30.5113 -30.5106 -30.5041 -30.4937 -30.4879
    12.7129  13.2967  14.2142  14.2289  14.2438  14.2614  14.2748  14.2957
    14.3841  14.4067  14.4333  14.4513  14.5161  14.5265  14.5312  14.5576
    14.5796  14.6103  14.6171  14.6198  14.6789  14.6964  14.7444  14.7547
    14.7758  14.8059  14.8927  14.9089  14.9281  15.0097  15.1201  15.1428
    15.1471  15.1601  15.2003  15.2564  15.2605  15.3848  15.3973  15.4186
    15.4462  15.4624  15.5204  15.5401  15.5548  15.5613  15.5637  15.5700
    15.6120  15.6505  15.7104  15.7384  15.7465  15.8078  15.8642  15.9036
    15.9290  15.9785  16.0869  16.0901  16.1214  16.1516  16.1561  16.1633
    16.1673  16.1796  16.2308  16.2527  16.2764  16.2829  16.2835  16.3179
    16.3472  16.4051  16.4124  16.5480  16.5511  16.6023  16.6108  16.6227
    16.6266  16.6295  16.6676  16.6841  16.7027  16.7625  16.7699  16.7714
    16.8538  16.8603  16.8895  16.9549  16.9853  17.0138  17.0507  17.0742
    17.2204  17.2239  17.2416  17.2630  17.2801  17.2932  17.3907  17.4768
    17.4844  17.5050  17.5703  17.6181  17.6648  17.6899  17.6943  17.6954
    17.7016  17.7262  17.7689  17.7995  17.8379  17.8599  17.8702  17.8799
    17.9271  17.9326  17.9813  18.0316  18.0364  18.0875  18.1168  18.1282
    18.1600  18.1634  18.1786  18.2982  18.3182  18.3224  18.3479  18.3544
    18.4703  18.5043  18.5443  18.5787  18.6103  18.6363  18.6371  18.6449
    18.6471  18.6539  18.6779  18.7382  18.7436  18.8447  18.8472  18.8723
    18.8942  18.9349  18.9387  18.9826  18.9837  18.9845  18.9866  19.0789
    19.1524  19.2262  19.3074  19.3109  19.3128  19.3155  19.5413  19.5611
    19.6583  19.9405  19.9592  20.2197  20.4650  20.5447  20.7506  21.0565
    21.5718  21.8498  21.9254  22.3659  22.7258  23.2737  23.4764  23.8127
    24.0722  24.3161  24.3771  24.7452  24.9188  25.3847  25.4460  25.9689
    26.4067  26.7294  27.3728  27.4268  27.4580  27.6372  27.9220  27.9291
    28.1656  28.1724  28.4133  28.7125  28.8374  29.0189  29.4128  29.4836
    29.5904  29.7812  29.8090  29.9595  30.0438  30.2363  30.2517  30.2839
    30.3615  30.6435

          k = 0.0556 0.1667-0.4979 ( 33138 PWs)   bands (ev):

   -64.9561 -64.9553 -64.9369 -64.9362 -64.9319 -64.9311 -64.9273 -64.9265
   -64.9230 -64.9229 -64.9223 -64.9221 -64.9204 -64.9196 -64.9165 -64.9158
   -64.9153 -64.9146 -64.9127 -64.9120 -64.9091 -64.9086 -64.9084 -64.9078
   -64.9078 -64.9070 -64.9066 -64.9058 -64.9040 -64.9032 -64.9029 -64.9022
   -30.8150 -30.8146 -30.8118 -30.8115 -30.8005 -30.8001 -30.7960 -30.7954
   -30.7952 -30.7947 -30.7916 -30.7912 -30.7781 -30.7774 -30.7603 -30.7602
   -30.7574 -30.7574 -30.7573 -30.7570 -30.7381 -30.7379 -30.7285 -30.7280
   -30.7166 -30.7163 -30.7162 -30.7159 -30.6966 -30.6963 -30.6874 -30.6870
   -30.6766 -30.6761 -30.6711 -30.6704 -30.6662 -30.6659 -30.6600 -30.6595
   -30.6505 -30.6497 -30.6142 -30.6135 -30.6112 -30.6108 -30.6005 -30.5997
   -30.5953 -30.5952 -30.5946 -30.5944 -30.5920 -30.5917 -30.5847 -30.5844
   -30.5819 -30.5815 -30.5804 -30.5801 -30.5788 -30.5784 -30.5783 -30.5780
   -30.5763 -30.5756 -30.5661 -30.5658 -30.5629 -30.5622 -30.5559 -30.5556
   -30.5555 -30.5549 -30.5501 -30.5496 -30.5447 -30.5443 -30.5419 -30.5411
   -30.5404 -30.5396 -30.5377 -30.5373 -30.5326 -30.5319 -30.5254 -30.5252
   -30.5249 -30.5246 -30.5128 -30.5125 -30.5018 -30.5010 -30.4953 -30.4948
    12.9801  12.9811  14.3224  14.3232  14.3611  14.3611  14.4088  14.4095
    14.4201  14.4209  14.4331  14.4339  14.4393  14.4394  14.5479  14.5480
    14.5537  14.5546  14.5777  14.5778  14.6340  14.6346  14.6899  14.6908
    14.7264  14.7271  14.8026  14.8031  14.9777  14.9784  15.0622  15.0623
    15.2550  15.2552  15.2637  15.2643  15.2958  15.2967  15.3982  15.3990
    15.4726  15.4727  15.5016  15.5024  15.5522  15.5526  15.5750  15.5753
    15.6226  15.6226  15.6619  15.6626  15.6643  15.6648  16.0034  16.0040
    16.0184  16.0191  16.0327  16.0333  16.0478  16.0484  16.1182  16.1184
    16.2094  16.2100  16.2323  16.2327  16.3180  16.3185  16.3735  16.3742
    16.4376  16.4378  16.4787  16.4788  16.4953  16.4955  16.6103  16.6104
    16.6545  16.6547  16.7157  16.7159  16.7335  16.7342  16.7395  16.7403
    16.7977  16.7980  16.8227  16.8230  17.2497  17.2502  17.2590  17.2595
    17.3239  17.3241  17.3363  17.3365  17.3615  17.3618  17.4095  17.4098
    17.4413  17.4418  17.5785  17.5792  17.5948  17.5954  17.6725  17.6728
    17.6827  17.6833  17.7223  17.7226  17.7259  17.7264  17.7940  17.7947
    17.9026  17.9033  17.9419  17.9425  18.0127  18.0134  18.0976  18.0984
    18.2089  18.2096  18.2585  18.2592  18.3304  18.3309  18.4969  18.4975
    18.5380  18.5381  18.5548  18.5554  18.6936  18.6938  18.7133  18.7134
    18.7731  18.7736  18.7974  18.7978  18.8037  18.8038  18.8088  18.8090
    18.8172  18.8176  18.8194  18.8198  18.9112  18.9113  18.9627  18.9629
    19.1751  19.1752  19.3079  19.3086  19.3136  19.3144  19.5447  19.5448
    20.0065  20.0067  20.0921  20.0928  20.3308  20.3314  20.6540  20.6547
    21.7414  21.7421  22.2014  22.2021  23.4912  23.4916  24.0645  24.0648
    24.0984  24.0990  24.5977  24.5980  24.7069  24.7076  25.1405  25.1408
    26.8175  26.8176  27.2539  27.2541  27.7450  27.7457  27.9048  27.9056
    28.2820  28.2821  28.2899  28.2907  28.8404  28.8405  29.2468  29.2470
    29.8007  29.8015  29.9519  29.9525  29.9663  29.9667  30.0834  30.0843
    30.7226  30.9410

          k = 0.0556 0.2778 0.0553 ( 33113 PWs)   bands (ev):

   -64.9627 -64.9474 -64.9356 -64.9353 -64.9305 -64.9300 -64.9272 -64.9271
   -64.9233 -64.9232 -64.9211 -64.9207 -64.9197 -64.9185 -64.9184 -64.9183
   -64.9181 -64.9174 -64.9161 -64.9126 -64.9125 -64.9111 -64.9109 -64.9056
   -64.9044 -64.9043 -64.9041 -64.9038 -64.9034 -64.9032 -64.9028 -64.9024
   -30.8376 -30.8346 -30.8345 -30.8300 -30.8181 -30.8168 -30.8127 -30.7781
   -30.7724 -30.7722 -30.7677 -30.7668 -30.7642 -30.7553 -30.7533 -30.7531
   -30.7512 -30.7430 -30.7421 -30.7339 -30.7326 -30.7322 -30.7319 -30.7295
   -30.7197 -30.7183 -30.7177 -30.7151 -30.7072 -30.7045 -30.6882 -30.6863
   -30.6803 -30.6788 -30.6788 -30.6786 -30.6645 -30.6626 -30.6618 -30.6601
   -30.6285 -30.6274 -30.6203 -30.6202 -30.6191 -30.6182 -30.6153 -30.6147
   -30.6105 -30.6083 -30.6080 -30.6053 -30.6050 -30.6047 -30.6041 -30.6033
   -30.6031 -30.5955 -30.5915 -30.5909 -30.5859 -30.5802 -30.5771 -30.5620
   -30.5619 -30.5562 -30.5546 -30.5545 -30.5533 -30.5505 -30.5496 -30.5495
   -30.5478 -30.5463 -30.5462 -30.5458 -30.5402 -30.5391 -30.5361 -30.5347
   -30.5346 -30.5345 -30.5343 -30.5339 -30.5334 -30.5312 -30.5309 -30.5302
   -30.5281 -30.5208 -30.5199 -30.5197 -30.5186 -30.4994 -30.4859 -30.4849
    12.4358  13.5973  14.0772  14.1132  14.1133  14.1397  14.1799  14.1801
    14.2061  14.3331  14.3752  14.3762  14.3839  14.3965  14.4801  14.5817
    14.5942  14.7554  14.7562  14.7980  14.8079  14.8856  14.8856  14.9372
    15.0407  15.0442  15.0772  15.0880  15.0988  15.1094  15.1112  15.1166
    15.2065  15.2175  15.2253  15.2281  15.3363  15.3418  15.3771  15.3906
    15.5001  15.5052  15.6389  15.6431  15.6758  15.6815  15.6901  15.6951
    15.7039  15.7084  15.7173  15.7409  15.7430  15.8501  15.8566  15.9233
    15.9247  15.9807  15.9809  15.9845  16.0531  16.0588  16.0668  16.0757
    16.0779  16.0831  16.1526  16.1572  16.1598  16.2536  16.2781  16.2910
    16.2983  16.3386  16.3393  16.3519  16.4377  16.4625  16.4832  16.4844
    16.4872  16.5180  16.6525  16.6582  16.6723  16.7221  16.8018  16.8085
    16.8569  16.8750  16.8754  16.8841  16.9491  17.0261  17.0344  17.0346
    17.0520  17.0605  17.3649  17.3763  17.3825  17.4740  17.4807  17.5396
    17.5448  17.5562  17.5589  17.6143  17.6172  17.6432  17.6511  17.7071
    17.7152  17.8219  17.8484  17.8498  17.8512  17.8556  17.8730  17.8762
    17.8818  17.8820  17.9719  18.0790  18.1290  18.1304  18.1449  18.1453
    18.1534  18.2362  18.2366  18.2403  18.2812  18.2821  18.2845  18.2887
    18.3305  18.3348  18.3576  18.3728  18.3784  18.4463  18.6187  18.6274
    18.6767  18.6964  18.7013  18.7334  18.8344  18.8353  18.8838  18.8839
    18.8916  18.9632  18.9698  18.9794  18.9879  19.1098  19.1594  19.1595
    19.1742  19.1756  19.1973  19.3547  19.3574  19.3621  19.3642  19.9672
    19.9816  20.2006  20.4138  20.4347  20.7352  20.7361  20.7668  21.1129
    21.2902  21.2918  21.5398  21.8260  22.5618  22.5946  23.1055  23.1422
    23.2174  23.2905  25.7806  25.8139  25.8966  25.9675  26.3378  26.3736
    26.3850  26.6884  26.6910  27.0937  27.7143  27.7543  28.3872  28.4255
    28.7515  29.1723  29.1963  29.2939  29.2974  29.4937  29.5129  29.5496
    29.6168  29.6631  29.6812  29.8531  29.8790  29.9668  30.0505  30.0719
    30.1272  30.1278

          k = 0.0556 0.2778 0.1660 ( 33126 PWs)   bands (ev):

   -64.9618 -64.9467 -64.9407 -64.9348 -64.9310 -64.9297 -64.9268 -64.9254
   -64.9238 -64.9230 -64.9211 -64.9205 -64.9205 -64.9195 -64.9192 -64.9170
   -64.9165 -64.9157 -64.9140 -64.9139 -64.9127 -64.9113 -64.9094 -64.9056
   -64.9048 -64.9047 -64.9043 -64.9043 -64.9038 -64.9037 -64.9030 -64.9024
   -30.8365 -30.8350 -30.8279 -30.8216 -30.8150 -30.8126 -30.8103 -30.7810
   -30.7773 -30.7670 -30.7657 -30.7655 -30.7650 -30.7644 -30.7560 -30.7537
   -30.7536 -30.7486 -30.7475 -30.7453 -30.7452 -30.7415 -30.7413 -30.7337
   -30.7274 -30.7118 -30.7111 -30.7032 -30.6989 -30.6979 -30.6955 -30.6937
   -30.6905 -30.6856 -30.6762 -30.6685 -30.6646 -30.6514 -30.6489 -30.6368
   -30.6336 -30.6324 -30.6252 -30.6209 -30.6188 -30.6182 -30.6143 -30.6137
   -30.6136 -30.6131 -30.6099 -30.6050 -30.6024 -30.6013 -30.6001 -30.5972
   -30.5966 -30.5942 -30.5836 -30.5835 -30.5831 -30.5780 -30.5753 -30.5740
   -30.5600 -30.5592 -30.5585 -30.5574 -30.5552 -30.5547 -30.5539 -30.5527
   -30.5497 -30.5459 -30.5457 -30.5433 -30.5430 -30.5422 -30.5391 -30.5380
   -30.5375 -30.5364 -30.5358 -30.5357 -30.5323 -30.5307 -30.5300 -30.5241
   -30.5224 -30.5210 -30.5204 -30.5148 -30.5126 -30.5084 -30.4879 -30.4830
    12.5059  13.6525  14.0898  14.1237  14.1362  14.1457  14.1478  14.1907
    14.2556  14.2681  14.3738  14.4023  14.4142  14.4258  14.5309  14.6030
    14.6542  14.7366  14.7648  14.7964  14.8172  14.8311  14.8361  14.8680
    14.9556  14.9715  14.9944  15.0040  15.0168  15.0427  15.1260  15.1332
    15.1432  15.1534  15.1884  15.2343  15.2800  15.2952  15.3268  15.4296
    15.4434  15.4495  15.4928  15.5498  15.5989  15.6177  15.6190  15.7158
    15.7164  15.7272  15.7445  15.7581  15.8108  15.8656  15.8817  15.9228
    15.9238  15.9331  16.0198  16.0768  16.1155  16.1287  16.1706  16.1830
    16.1904  16.1997  16.2225  16.2448  16.2767  16.2971  16.3051  16.3265
    16.3527  16.3887  16.4327  16.4436  16.4817  16.4921  16.4954  16.5013
    16.5427  16.5548  16.5581  16.5654  16.5867  16.6866  16.7654  16.7861
    16.8114  16.8280  16.8578  16.9475  16.9509  17.0425  17.0592  17.0743
    17.1474  17.1652  17.1893  17.2576  17.2626  17.3385  17.3405  17.4501
    17.4619  17.4785  17.4927  17.5354  17.5830  17.6665  17.7208  17.7218
    17.7399  17.8160  17.8275  17.8433  17.8767  17.9190  17.9611  17.9630
    17.9880  18.0345  18.0409  18.0778  18.0879  18.0958  18.0994  18.1089
    18.1142  18.1459  18.2163  18.2526  18.2804  18.3113  18.3407  18.4076
    18.4168  18.4421  18.4459  18.4535  18.4641  18.4795  18.4800  18.5638
    18.5859  18.5951  18.6923  18.7677  18.8030  18.8247  18.9010  18.9242
    18.9904  19.0283  19.0283  19.0339  19.1184  19.1262  19.1263  19.1329
    19.1740  19.1778  19.2095  19.2864  19.2946  19.3033  19.3036  19.5773
    19.7819  19.9495  20.2987  20.4113  20.4414  20.8036  20.9301  21.3257
    21.5253  21.8276  21.8813  22.0414  22.4176  22.5942  22.8462  23.1381
    23.5136  23.6839  25.2074  25.3566  25.8802  26.1118  26.2140  26.3817
    26.3869  26.8668  27.0334  27.0831  27.1009  27.5575  27.5784  28.2404
    28.3161  28.5787  28.7719  28.9551  29.0594  29.1161  29.4101  29.5810
    29.7601  29.8618  29.8690  29.9766  30.0881  30.3541  30.4391  30.4754
    30.6852  30.7126

          k = 0.0556 0.2778 0.2766 ( 33133 PWs)   bands (ev):

   -64.9600 -64.9456 -64.9454 -64.9346 -64.9339 -64.9289 -64.9264 -64.9263
   -64.9227 -64.9226 -64.9224 -64.9205 -64.9200 -64.9199 -64.9159 -64.9157
   -64.9156 -64.9154 -64.9132 -64.9130 -64.9118 -64.9118 -64.9079 -64.9061
   -64.9057 -64.9056 -64.9055 -64.9051 -64.9045 -64.9036 -64.9035 -64.9025
   -30.8315 -30.8314 -30.8178 -30.8099 -30.8092 -30.8058 -30.8045 -30.7821
   -30.7811 -30.7808 -30.7791 -30.7687 -30.7668 -30.7610 -30.7599 -30.7574
   -30.7570 -30.7556 -30.7541 -30.7522 -30.7511 -30.7427 -30.7424 -30.7408
   -30.7370 -30.7358 -30.7090 -30.7036 -30.6975 -30.6957 -30.6888 -30.6885
   -30.6811 -30.6803 -30.6741 -30.6711 -30.6468 -30.6447 -30.6444 -30.6342
   -30.6339 -30.6338 -30.6318 -30.6247 -30.6207 -30.6094 -30.6091 -30.6086
   -30.6080 -30.6074 -30.6067 -30.6060 -30.6035 -30.6021 -30.5945 -30.5941
   -30.5888 -30.5857 -30.5857 -30.5851 -30.5724 -30.5721 -30.5721 -30.5717
   -30.5677 -30.5674 -30.5656 -30.5651 -30.5565 -30.5564 -30.5548 -30.5542
   -30.5530 -30.5527 -30.5518 -30.5516 -30.5426 -30.5421 -30.5411 -30.5408
   -30.5390 -30.5386 -30.5338 -30.5326 -30.5315 -30.5308 -30.5270 -30.5259
   -30.5226 -30.5220 -30.5214 -30.5096 -30.5095 -30.5069 -30.4921 -30.4832
    12.6442  13.7521  13.7606  14.1700  14.2114  14.2142  14.2143  14.2380
    14.3650  14.3651  14.4474  14.4540  14.4551  14.5236  14.5771  14.6220
    14.6224  14.6298  14.6698  14.6699  14.7822  14.7860  14.7864  14.7866
    14.8657  14.8746  14.8896  14.8975  15.0578  15.0600  15.0605  15.0639
    15.0665  15.1653  15.1661  15.1992  15.1995  15.2372  15.2374  15.3181
    15.3183  15.4001  15.5133  15.5142  15.5186  15.5212  15.5478  15.7190
    15.7385  15.7570  15.7611  15.7698  15.7703  15.7788  15.7813  16.0259
    16.0345  16.0930  16.0990  16.1859  16.1883  16.1900  16.2022  16.2282
    16.2289  16.2457  16.2624  16.2643  16.2904  16.3833  16.4089  16.4111
    16.4131  16.4974  16.5044  16.5059  16.5379  16.5598  16.5910  16.6029
    16.6079  16.6099  16.6540  16.6604  16.6608  16.6676  16.6840  16.7194
    16.8162  16.8214  16.8351  16.8473  16.9902  17.0113  17.0413  17.0643
    17.1266  17.1446  17.1848  17.2225  17.2773  17.2894  17.3087  17.3201
    17.3235  17.3353  17.3937  17.3956  17.5398  17.5419  17.6734  17.7641
    17.7658  17.7762  17.7766  17.7773  17.8108  17.8917  17.8945  17.9764
    18.0089  18.0614  18.0644  18.1178  18.1210  18.1633  18.1643  18.2027
    18.2106  18.3133  18.3141  18.3144  18.3258  18.3389  18.3391  18.3394
    18.3468  18.3870  18.3872  18.5423  18.5849  18.6103  18.6140  18.6209
    18.6215  18.6215  18.6238  18.7243  18.7261  18.7695  18.8855  18.8877
    18.9637  19.0329  19.0360  19.0573  19.0645  19.0651  19.1590  19.1665
    19.1759  19.1807  19.1924  19.2027  19.2327  19.2483  19.5564  19.5679
    19.5801  19.8732  19.8860  20.2639  20.3498  20.3666  21.5256  21.5352
    21.9129  21.9160  22.2366  22.2893  22.5476  22.5834  23.0748  23.1110
    23.9137  24.3085  24.5830  24.6189  25.8493  25.8855  26.2103  26.2139
    26.3629  26.3844  26.7993  26.8362  27.4176  27.4421  27.6094  27.7138
    27.7625  28.1371  28.2292  28.2789  28.3608  29.4565  29.6340  29.6660
    29.8029  29.8030  30.1942  30.2391  30.4503  30.4796  30.6373  30.6421
    30.7668  30.8715

          k = 0.0556 0.2778 0.3873 ( 33150 PWs)   bands (ev):

   -64.9574 -64.9501 -64.9435 -64.9380 -64.9325 -64.9286 -64.9278 -64.9257
   -64.9245 -64.9235 -64.9223 -64.9208 -64.9192 -64.9168 -64.9160 -64.9149
   -64.9145 -64.9134 -64.9126 -64.9124 -64.9109 -64.9099 -64.9087 -64.9071
   -64.9070 -64.9067 -64.9066 -64.9055 -64.9046 -64.9043 -64.9033 -64.9025
   -30.8238 -30.8229 -30.8047 -30.8004 -30.7992 -30.7985 -30.7966 -30.7951
   -30.7923 -30.7804 -30.7784 -30.7780 -30.7760 -30.7723 -30.7667 -30.7660
   -30.7658 -30.7602 -30.7582 -30.7575 -30.7527 -30.7493 -30.7421 -30.7413
   -30.7397 -30.7262 -30.7174 -30.7158 -30.7063 -30.6949 -30.6838 -30.6782
   -30.6745 -30.6638 -30.6625 -30.6588 -30.6581 -30.6561 -30.6473 -30.6438
   -30.6337 -30.6250 -30.6234 -30.6198 -30.6154 -30.6143 -30.6087 -30.6072
   -30.6057 -30.6025 -30.6020 -30.5969 -30.5965 -30.5962 -30.5926 -30.5855
   -30.5854 -30.5837 -30.5832 -30.5827 -30.5807 -30.5757 -30.5732 -30.5717
   -30.5703 -30.5679 -30.5644 -30.5640 -30.5623 -30.5596 -30.5595 -30.5595
   -30.5532 -30.5510 -30.5503 -30.5485 -30.5461 -30.5457 -30.5457 -30.5456
   -30.5394 -30.5392 -30.5365 -30.5351 -30.5339 -30.5329 -30.5327 -30.5281
   -30.5238 -30.5231 -30.5153 -30.5054 -30.5037 -30.4996 -30.4981 -30.4860
    12.8469  13.4151  13.9166  14.2413  14.3075  14.3109  14.3220  14.3371
    14.3440  14.4928  14.4936  14.4956  14.5054  14.5303  14.5312  14.5764
    14.5973  14.6034  14.6065  14.6518  14.6627  14.6852  14.7374  14.7508
    14.7706  14.8238  14.8485  14.8610  14.9336  14.9583  14.9858  14.9979
    15.0302  15.1295  15.1343  15.1697  15.2155  15.2407  15.2438  15.2955
    15.3087  15.3545  15.3854  15.4217  15.4605  15.5699  15.6107  15.6308
    15.6453  15.6997  15.7643  15.7923  15.8114  15.8368  15.8786  15.9916
    16.0087  16.0134  16.0990  16.1415  16.1559  16.2148  16.2628  16.2683
    16.3036  16.3121  16.3127  16.3363  16.3749  16.4080  16.4222  16.5007
    16.5143  16.5556  16.5795  16.5826  16.5863  16.6077  16.6206  16.6512
    16.6597  16.6664  16.6716  16.7616  16.7659  16.7785  16.7890  16.7924
    16.8103  16.8850  16.8890  16.8929  16.9670  16.9897  17.0347  17.0498
    17.0737  17.1207  17.1231  17.1419  17.1531  17.1796  17.2164  17.3019
    17.4182  17.4184  17.4476  17.4526  17.4679  17.4800  17.5276  17.5506
    17.5919  17.6175  17.6798  17.6951  17.6956  17.7892  17.9504  17.9952
    18.0088  18.0273  18.0285  18.0374  18.1598  18.1643  18.1798  18.1949
    18.2066  18.2401  18.3470  18.3674  18.3690  18.3778  18.4362  18.4506
    18.4514  18.5248  18.5508  18.5852  18.5892  18.6518  18.6735  18.7466
    18.7565  18.7570  18.7696  18.7706  18.7840  18.7841  18.8124  18.8334
    18.9270  18.9788  18.9804  18.9820  18.9859  18.9901  18.9928  18.9985
    19.0541  19.1244  19.1811  19.1843  19.1948  19.2123  19.4799  19.5687
    19.7934  19.9215  20.0580  20.1380  20.2117  20.3060  21.0372  21.5259
    22.2021  22.2289  22.4288  22.5407  22.8355  23.0198  23.2902  23.7569
    23.7991  24.0200  24.4353  24.9711  24.9892  25.3719  25.6852  26.2245
    26.4113  26.5127  26.6714  26.8106  26.9896  27.0740  27.3245  27.4534
    27.7874  27.8240  27.9958  28.2056  28.7657  29.0962  29.6346  29.7822
    29.8601  29.8906  29.9867  30.0668  30.1336  30.2179  30.7807  30.7981
    30.9465  31.0331

          k = 0.0556 0.2778-0.4979 ( 33140 PWs)   bands (ev):

   -64.9545 -64.9537 -64.9414 -64.9406 -64.9311 -64.9304 -64.9267 -64.9259
   -64.9251 -64.9243 -64.9220 -64.9212 -64.9185 -64.9177 -64.9145 -64.9138
   -64.9137 -64.9130 -64.9124 -64.9117 -64.9100 -64.9092 -64.9091 -64.9085
   -64.9084 -64.9078 -64.9057 -64.9055 -64.9050 -64.9047 -64.9033 -64.9026
   -30.8128 -30.8125 -30.8112 -30.8109 -30.7910 -30.7903 -30.7896 -30.7893
   -30.7889 -30.7889 -30.7784 -30.7780 -30.7768 -30.7761 -30.7738 -30.7738
   -30.7733 -30.7731 -30.7633 -30.7628 -30.7458 -30.7452 -30.7448 -30.7442
   -30.7293 -30.7289 -30.7152 -30.7152 -30.7108 -30.7104 -30.6707 -30.6704
   -30.6674 -30.6671 -30.6609 -30.6606 -30.6550 -30.6542 -30.6456 -30.6449
   -30.6436 -30.6434 -30.6083 -30.6077 -30.6077 -30.6070 -30.6065 -30.6057
   -30.6037 -30.6035 -30.6027 -30.6025 -30.5972 -30.5970 -30.5938 -30.5931
   -30.5841 -30.5835 -30.5823 -30.5822 -30.5754 -30.5752 -30.5750 -30.5748
   -30.5672 -30.5664 -30.5637 -30.5632 -30.5600 -30.5597 -30.5591 -30.5588
   -30.5537 -30.5530 -30.5489 -30.5486 -30.5484 -30.5481 -30.5480 -30.5479
   -30.5431 -30.5423 -30.5398 -30.5394 -30.5348 -30.5341 -30.5275 -30.5272
   -30.5258 -30.5250 -30.5064 -30.5056 -30.5034 -30.5032 -30.4918 -30.4916
    13.1070  13.1080  14.1119  14.1128  14.3496  14.3497  14.4177  14.4186
    14.4421  14.4421  14.4427  14.4432  14.5046  14.5054  14.5466  14.5471
    14.6296  14.6304  14.6576  14.6577  14.6727  14.6728  14.6912  14.6915
    14.7361  14.7370  14.8347  14.8352  14.8802  14.8802  14.9421  14.9427
    15.1175  15.1183  15.1341  15.1346  15.2090  15.2092  15.2747  15.2749
    15.2838  15.2846  15.4628  15.4634  15.4952  15.4952  15.5128  15.5136
    15.7790  15.7791  15.7850  15.7855  15.8899  15.8901  15.8941  15.8947
    15.9185  15.9192  16.0216  16.0221  16.2420  16.2426  16.3258  16.3264
    16.3417  16.3418  16.3612  16.3617  16.4122  16.4125  16.4370  16.4371
    16.4843  16.4845  16.6248  16.6249  16.6736  16.6742  16.6822  16.6825
    16.7086  16.7086  16.7354  16.7360  16.7433  16.7440  16.7464  16.7467
    16.9056  16.9060  16.9356  16.9359  17.0751  17.0755  17.0830  17.0834
    17.0863  17.0863  17.1646  17.1647  17.1817  17.1819  17.1935  17.1938
    17.2350  17.2355  17.4940  17.4946  17.5054  17.5056  17.5564  17.5569
    17.5850  17.5855  17.5984  17.5990  17.6207  17.6209  17.9012  17.9018
    17.9040  17.9045  18.1059  18.1066  18.1178  18.1184  18.1325  18.1332
    18.2929  18.2936  18.4216  18.4222  18.4232  18.4238  18.5465  18.5472
    18.5682  18.5688  18.6122  18.6122  18.6619  18.6622  18.6628  18.6629
    18.7797  18.7803  18.8080  18.8081  18.8298  18.8301  18.8775  18.8778
    18.8795  18.8798  18.8948  18.8950  18.9013  18.9014  18.9191  18.9192
    19.1142  19.1143  19.1884  19.1891  19.1917  19.1922  19.5133  19.5135
    19.6789  19.6796  20.2434  20.2441  20.5445  20.5448  20.8059  20.8064
    22.4334  22.4341  22.8053  22.8059  22.9516  22.9521  23.4203  23.4209
    24.1028  24.1031  24.5806  24.5808  25.0352  25.0359  25.7308  25.7311
    26.4774  26.4775  26.8328  26.8329  26.9428  26.9435  27.2559  27.2567
    27.4166  27.4174  28.5593  28.5594  28.8831  28.8832  29.4608  29.4610
    29.8000  29.8008  29.9440  29.9449  30.3688  30.3697  30.5369  30.5370
    31.1920  31.1927

          k = 0.0556 0.3889 0.0553 ( 33123 PWs)   bands (ev):

   -64.9599 -64.9522 -64.9341 -64.9338 -64.9298 -64.9296 -64.9292 -64.9288
   -64.9256 -64.9253 -64.9208 -64.9201 -64.9185 -64.9184 -64.9183 -64.9181
   -64.9170 -64.9163 -64.9160 -64.9101 -64.9099 -64.9090 -64.9087 -64.9083
   -64.9059 -64.9056 -64.9055 -64.9051 -64.9034 -64.9032 -64.9027 -64.9025
   -30.8268 -30.8227 -30.8226 -30.8168 -30.8090 -30.8078 -30.7985 -30.7960
   -30.7905 -30.7903 -30.7834 -30.7827 -30.7825 -30.7574 -30.7550 -30.7536
   -30.7499 -30.7487 -30.7479 -30.7477 -30.7385 -30.7380 -30.7222 -30.7192
   -30.7143 -30.7122 -30.7046 -30.7016 -30.6993 -30.6991 -30.6968 -30.6967
   -30.6936 -30.6917 -30.6776 -30.6755 -30.6754 -30.6732 -30.6631 -30.6629
   -30.6374 -30.6368 -30.6202 -30.6196 -30.6175 -30.6160 -30.6084 -30.6045
   -30.6004 -30.5928 -30.5925 -30.5918 -30.5915 -30.5914 -30.5911 -30.5909
   -30.5901 -30.5899 -30.5875 -30.5789 -30.5785 -30.5781 -30.5698 -30.5697
   -30.5671 -30.5667 -30.5659 -30.5657 -30.5644 -30.5592 -30.5579 -30.5577
   -30.5572 -30.5571 -30.5500 -30.5419 -30.5411 -30.5385 -30.5371 -30.5346
   -30.5345 -30.5344 -30.5341 -30.5329 -30.5324 -30.5300 -30.5287 -30.5284
   -30.5282 -30.5211 -30.5205 -30.5151 -30.5092 -30.5080 -30.4919 -30.4909
    12.6485  13.2447  14.1696  14.2422  14.2424  14.2497  14.3019  14.3021
    14.3393  14.3906  14.4144  14.4996  14.5018  14.5246  14.5357  14.5791
    14.5798  14.5867  14.6493  14.6581  14.6583  14.7101  14.7244  14.7355
    14.8680  14.8731  14.8733  14.8795  15.0723  15.0786  15.1645  15.1710
    15.2168  15.2273  15.2841  15.2922  15.3076  15.3117  15.4401  15.4500
    15.5028  15.5051  15.5088  15.5091  15.6067  15.6070  15.6454  15.6489
    15.6622  15.6709  15.7017  15.7097  15.7464  15.7600  15.8810  15.8918
    15.8950  15.9263  15.9284  16.0418  16.0726  16.0730  16.0849  16.0858
    16.1137  16.1213  16.1811  16.1853  16.2200  16.2306  16.2447  16.2575
    16.2602  16.3190  16.3864  16.3879  16.5241  16.5622  16.5770  16.5804
    16.5932  16.6123  16.6232  16.6275  16.6314  16.6372  16.7850  16.8255
    16.8376  16.8604  16.8820  16.8867  17.0668  17.0679  17.0705  17.0847
    17.2993  17.3192  17.4438  17.4474  17.4566  17.4693  17.4727  17.6377
    17.6394  17.6729  17.6748  17.6812  17.6848  17.6971  17.7024  17.7143
    17.7346  17.7367  17.8186  17.8209  17.8524  17.8599  17.8624  17.8647
    17.8653  17.8738  17.8786  17.8920  17.8947  17.9759  18.0181  18.0913
    18.0926  18.1522  18.2280  18.2494  18.3313  18.3325  18.3647  18.4043
    18.4854  18.4880  18.4893  18.5470  18.5545  18.5551  18.5760  18.5770
    18.7278  18.7279  18.7436  18.8325  18.8405  18.8477  18.8705  18.8728
    18.8803  18.8816  18.9211  18.9822  18.9844  18.9935  18.9942  19.0574
    19.1747  19.1813  19.3231  19.3548  19.3563  19.3627  19.3637  19.5722
    19.5818  19.9783  19.9948  20.3882  20.6760  20.8076  20.9365  20.9380
    21.2122  21.2139  21.4051  21.7468  23.2700  23.3039  23.8149  23.8173
    23.8523  23.8888  24.8937  24.9275  25.1787  25.2494  25.4402  25.4769
    26.7391  27.1543  27.1575  27.6371  27.9487  28.0635  28.1070  28.4767
    28.4802  28.7203  28.7624  28.9766  29.0283  29.0304  29.3614  29.4128
    29.4769  29.5733  29.5861  29.6371  30.0196  30.0609  30.1092  30.2491
    30.3289  30.4169

          k = 0.0556 0.3889 0.1660 ( 33144 PWs)   bands (ev):

   -64.9591 -64.9514 -64.9390 -64.9340 -64.9334 -64.9293 -64.9285 -64.9251
   -64.9243 -64.9233 -64.9219 -64.9213 -64.9203 -64.9196 -64.9166 -64.9159
   -64.9158 -64.9157 -64.9143 -64.9110 -64.9103 -64.9093 -64.9082 -64.9076
   -64.9063 -64.9061 -64.9059 -64.9047 -64.9043 -64.9040 -64.9029 -64.9026
   -30.8272 -30.8245 -30.8152 -30.8074 -30.8061 -30.8044 -30.7985 -30.7969
   -30.7946 -30.7822 -30.7812 -30.7806 -30.7722 -30.7650 -30.7629 -30.7581
   -30.7579 -30.7571 -30.7562 -30.7521 -30.7431 -30.7400 -30.7348 -30.7301
   -30.7192 -30.7175 -30.7132 -30.7083 -30.7054 -30.6962 -30.6874 -30.6828
   -30.6827 -30.6825 -30.6766 -30.6709 -30.6641 -30.6616 -30.6604 -30.6489
   -30.6463 -30.6345 -30.6140 -30.6134 -30.6132 -30.6131 -30.6119 -30.6113
   -30.6050 -30.6037 -30.6020 -30.5941 -30.5940 -30.5911 -30.5903 -30.5888
   -30.5862 -30.5851 -30.5822 -30.5805 -30.5727 -30.5718 -30.5692 -30.5687
   -30.5683 -30.5680 -30.5678 -30.5655 -30.5654 -30.5649 -30.5647 -30.5544
   -30.5526 -30.5521 -30.5459 -30.5448 -30.5447 -30.5436 -30.5434 -30.5422
   -30.5413 -30.5399 -30.5347 -30.5331 -30.5329 -30.5300 -30.5282 -30.5252
   -30.5247 -30.5213 -30.5159 -30.5116 -30.5113 -30.5042 -30.4941 -30.4879
    12.7158  13.3043  14.2169  14.2293  14.2359  14.2636  14.2777  14.2964
    14.3847  14.4075  14.4401  14.4539  14.5179  14.5265  14.5321  14.5565
    14.5849  14.6146  14.6179  14.6212  14.6850  14.6983  14.7462  14.7568
    14.7779  14.7992  14.8936  14.9106  14.9260  15.0074  15.1217  15.1335
    15.1379  15.1593  15.2015  15.2577  15.2593  15.3818  15.3952  15.4138
    15.4421  15.4620  15.5167  15.5374  15.5508  15.5630  15.5647  15.5726
    15.5969  15.6506  15.7028  15.7358  15.7402  15.8022  15.8886  15.9051
    15.9390  15.9830  16.0899  16.0999  16.1237  16.1501  16.1704  16.1713
    16.1768  16.1817  16.2171  16.2692  16.2724  16.2743  16.2992  16.3172
    16.3734  16.3899  16.4096  16.5206  16.5366  16.5813  16.5842  16.6098
    16.6158  16.6282  16.6648  16.6690  16.6844  16.7472  16.7503  16.7601
    16.8524  16.8642  16.8700  16.9542  16.9789  16.9995  17.0361  17.0560
    17.2147  17.2381  17.2602  17.2737  17.2882  17.3055  17.4046  17.4935
    17.4975  17.5137  17.5786  17.6271  17.6748  17.6892  17.6975  17.6979
    17.7189  17.7214  17.7726  17.8047  17.8430  17.8665  17.8706  17.8758
    17.9345  17.9435  17.9853  18.0093  18.0409  18.0944  18.1187  18.1230
    18.1577  18.1636  18.1743  18.3028  18.3209  18.3234  18.3500  18.3570
    18.4661  18.5077  18.5482  18.5741  18.6148  18.6343  18.6407  18.6489
    18.6516  18.6542  18.6803  18.7445  18.7464  18.8435  18.8477  18.8759
    18.9023  18.9383  18.9399  18.9843  18.9848  18.9959  18.9992  19.0819
    19.1580  19.2263  19.2862  19.2920  19.2966  19.3009  19.5500  19.5562
    19.6874  19.9282  19.9730  20.2039  20.4597  20.5333  20.7323  21.1088
    21.5570  21.8230  21.9142  22.3391  22.7402  23.3188  23.4233  23.8588
    24.0834  24.3437  24.3858  24.7013  24.9758  25.4061  25.5016  25.9900
    26.4194  26.7466  27.3107  27.4372  27.4626  27.6476  27.8568  27.9661
    28.1119  28.1762  28.4036  28.6510  28.8122  29.0451  29.3833  29.4782
    29.6160  29.7569  29.8064  29.9470  29.9572  30.2176  30.2490  30.2748
    30.3460  30.6300

          k = 0.0556 0.3889 0.2766 ( 33153 PWs)   bands (ev):

   -64.9574 -64.9500 -64.9436 -64.9381 -64.9325 -64.9287 -64.9278 -64.9256
   -64.9246 -64.9236 -64.9221 -64.9208 -64.9197 -64.9173 -64.9154 -64.9149
   -64.9144 -64.9136 -64.9125 -64.9121 -64.9107 -64.9099 -64.9081 -64.9069
   -64.9068 -64.9065 -64.9065 -64.9059 -64.9054 -64.9043 -64.9033 -64.9027
   -30.8237 -30.8226 -30.8044 -30.8002 -30.7979 -30.7978 -30.7956 -30.7948
   -30.7938 -30.7794 -30.7792 -30.7786 -30.7752 -30.7714 -30.7675 -30.7673
   -30.7660 -30.7597 -30.7590 -30.7588 -30.7536 -30.7481 -30.7434 -30.7401
   -30.7399 -30.7276 -30.7178 -30.7164 -30.7075 -30.6954 -30.6821 -30.6784
   -30.6745 -30.6666 -30.6624 -30.6574 -30.6564 -30.6555 -30.6474 -30.6462
   -30.6299 -30.6245 -30.6228 -30.6181 -30.6175 -30.6150 -30.6083 -30.6073
   -30.6063 -30.6036 -30.6026 -30.5999 -30.5958 -30.5940 -30.5918 -30.5855
   -30.5846 -30.5837 -30.5831 -30.5831 -30.5806 -30.5749 -30.5730 -30.5716
   -30.5701 -30.5677 -30.5631 -30.5629 -30.5618 -30.5596 -30.5593 -30.5585
   -30.5529 -30.5526 -30.5514 -30.5474 -30.5466 -30.5463 -30.5460 -30.5453
   -30.5395 -30.5380 -30.5377 -30.5345 -30.5338 -30.5331 -30.5330 -30.5294
   -30.5244 -30.5230 -30.5161 -30.5054 -30.5037 -30.4997 -30.4983 -30.4861
    12.8487  13.4213  13.9102  14.2415  14.3089  14.3119  14.3223  14.3354
    14.3458  14.4935  14.4940  14.4960  14.5059  14.5326  14.5365  14.5756
    14.5981  14.6063  14.6072  14.6525  14.6624  14.6916  14.7378  14.7565
    14.7654  14.8224  14.8502  14.8626  14.9340  14.9589  14.9785  14.9909
    15.0303  15.1285  15.1331  15.1673  15.2154  15.2387  15.2451  15.2948
    15.3060  15.3517  15.3852  15.4213  15.4604  15.5693  15.6123  15.6290
    15.6425  15.6985  15.7488  15.7873  15.8171  15.8372  15.8989  15.9988
    16.0067  16.0142  16.0950  16.1550  16.1613  16.2285  16.2624  16.2776
    16.2960  16.2989  16.3027  16.3586  16.3891  16.3928  16.4158  16.5060
    16.5082  16.5549  16.5717  16.5727  16.5746  16.6064  16.6105  16.6417
    16.6579  16.6593  16.6659  16.7520  16.7579  16.7801  16.7815  16.8037
    16.8153  16.8657  16.8732  16.8918  16.9554  16.9695  17.0539  17.0667
    17.0684  17.1047  17.1296  17.1382  17.1499  17.1953  17.2227  17.3082
    17.4243  17.4272  17.4453  17.4613  17.4671  17.4784  17.5381  17.5565
    17.5900  17.6245  17.6820  17.6987  17.7073  17.7901  17.9466  17.9940
    18.0141  18.0156  18.0335  18.0380  18.1634  18.1649  18.1863  18.1922
    18.1984  18.2433  18.3467  18.3665  18.3699  18.3815  18.4361  18.4483
    18.4563  18.5242  18.5539  18.5885  18.5904  18.6510  18.6764  18.7451
    18.7593  18.7595  18.7681  18.7691  18.7842  18.7856  18.8154  18.8393
    18.9273  18.9817  18.9824  18.9834  18.9888  18.9910  19.0006  19.0105
    19.0602  19.1293  19.1650  19.1710  19.1833  19.2031  19.4884  19.5604
    19.7814  19.9343  20.0466  20.1609  20.2047  20.2911  21.0270  21.5698
    22.2165  22.2175  22.4235  22.5105  22.7890  22.9915  23.3309  23.7862
    23.8387  23.9815  24.4412  24.9942  25.0186  25.4002  25.7021  26.2308
    26.4257  26.5256  26.6401  26.7990  27.0221  27.0255  27.2751  27.4924
    27.7721  27.7823  27.9760  28.2115  28.7716  29.0901  29.6554  29.7818
    29.8592  29.8892  29.9567  30.0659  30.1544  30.2382  30.7061  30.7763
    30.9210  31.0143

          k = 0.0556 0.3889 0.3873 ( 33175 PWs)   bands (ev):

   -64.9549 -64.9479 -64.9478 -64.9418 -64.9313 -64.9278 -64.9277 -64.9268
   -64.9251 -64.9240 -64.9238 -64.9219 -64.9154 -64.9149 -64.9137 -64.9134
   -64.9133 -64.9130 -64.9115 -64.9113 -64.9108 -64.9107 -64.9084 -64.9080
   -64.9079 -64.9078 -64.9075 -64.9068 -64.9056 -64.9039 -64.9038 -64.9029
   -30.8167 -30.8167 -30.7943 -30.7940 -30.7938 -30.7930 -30.7917 -30.7909
   -30.7892 -30.7877 -30.7797 -30.7781 -30.7778 -30.7759 -30.7743 -30.7679
   -30.7673 -30.7606 -30.7598 -30.7592 -30.7592 -30.7585 -30.7584 -30.7468
   -30.7448 -30.7440 -30.7300 -30.7152 -30.7111 -30.6951 -30.6943 -30.6696
   -30.6609 -30.6608 -30.6517 -30.6485 -30.6417 -30.6353 -30.6348 -30.6318
   -30.6293 -30.6291 -30.6291 -30.6270 -30.6233 -30.6083 -30.6051 -30.6012
   -30.6010 -30.6010 -30.6007 -30.6007 -30.5979 -30.5977 -30.5964 -30.5961
   -30.5942 -30.5935 -30.5805 -30.5802 -30.5787 -30.5784 -30.5782 -30.5733
   -30.5731 -30.5636 -30.5635 -30.5614 -30.5610 -30.5603 -30.5601 -30.5576
   -30.5524 -30.5519 -30.5516 -30.5511 -30.5510 -30.5489 -30.5452 -30.5420
   -30.5414 -30.5389 -30.5373 -30.5366 -30.5364 -30.5352 -30.5320 -30.5264
   -30.5255 -30.5227 -30.5222 -30.5045 -30.4988 -30.4968 -30.4967 -30.4869
    13.0432  13.5872  13.5916  14.0604  14.2865  14.3799  14.3918  14.4409
    14.4413  14.4720  14.4722  14.4740  14.5888  14.5890  14.6161  14.6330
    14.6331  14.6483  14.6501  14.6502  14.6512  14.6709  14.6742  14.7903
    14.7951  14.8070  14.8262  14.8592  14.8642  14.9638  14.9646  14.9665
    14.9680  14.9946  14.9951  15.0357  15.0362  15.1669  15.1683  15.1844
    15.1862  15.2111  15.2127  15.4485  15.4502  15.4936  15.6833  15.6863
    15.6885  15.6900  15.7879  15.8514  15.8876  15.8887  15.8913  15.9029
    15.9153  16.1000  16.2145  16.2165  16.2722  16.3926  16.3943  16.4081
    16.4326  16.4331  16.4345  16.4384  16.4421  16.4468  16.4731  16.4801
    16.5116  16.5249  16.6514  16.6644  16.6830  16.6905  16.7026  16.7256
    16.7305  16.7495  16.7536  16.7747  16.7772  16.7817  16.8800  16.8809
    16.8848  16.8857  16.8997  16.9013  16.9160  16.9228  16.9998  17.0134
    17.0158  17.0280  17.1133  17.1136  17.1173  17.1660  17.2102  17.2181
    17.2219  17.2322  17.2342  17.2466  17.2554  17.2715  17.2800  17.4270
    17.5332  17.5342  17.5594  17.5596  17.6575  17.7249  17.7286  17.7684
[...]
    23.8550  23.8550  23.8550  23.8551  25.9510  25.9513  25.9513  25.9516
    26.3172  26.3172  26.3173  26.3173  26.3173  26.3173  26.3173  26.3173
    27.1216  27.1219  27.1220  27.1220  29.6976  29.6978  29.6978  29.6980
    30.2708  30.2709  30.2709  30.2709  30.8598  30.8599  30.8599  30.8599
    31.4050  31.4051

          k =-0.5000-0.5000 0.1660 ( 33172 PWs)   bands (ev):

   -64.9481 -64.9480 -64.9479 -64.9478 -64.9324 -64.9323 -64.9322 -64.9321
   -64.9210 -64.9208 -64.9208 -64.9206 -64.9114 -64.9112 -64.9112 -64.9111
   -64.9108 -64.9105 -64.9105 -64.9104 -64.9104 -64.9103 -64.9102 -64.9101
   -64.9099 -64.9097 -64.9097 -64.9096 -64.9053 -64.9052 -64.9051 -64.9050
   -30.7977 -30.7977 -30.7977 -30.7977 -30.7977 -30.7976 -30.7976 -30.7976
   -30.7755 -30.7755 -30.7753 -30.7753 -30.7753 -30.7753 -30.7752 -30.7752
   -30.7732 -30.7730 -30.7730 -30.7728 -30.7707 -30.7706 -30.7706 -30.7705
   -30.7270 -30.7269 -30.7269 -30.7268 -30.6847 -30.6847 -30.6846 -30.6846
   -30.6293 -30.6293 -30.6293 -30.6293 -30.6293 -30.6293 -30.6292 -30.6291
   -30.6270 -30.6270 -30.6269 -30.6269 -30.6269 -30.6268 -30.6267 -30.6267
   -30.6100 -30.6100 -30.6100 -30.6099 -30.5889 -30.5888 -30.5887 -30.5887
   -30.5887 -30.5886 -30.5886 -30.5886 -30.5865 -30.5865 -30.5865 -30.5865
   -30.5678 -30.5677 -30.5677 -30.5676 -30.5661 -30.5661 -30.5660 -30.5660
   -30.5659 -30.5659 -30.5658 -30.5658 -30.5523 -30.5523 -30.5523 -30.5523
   -30.5272 -30.5272 -30.5272 -30.5272 -30.5230 -30.5229 -30.5229 -30.5228
   -30.5168 -30.5167 -30.5166 -30.5165 -30.4929 -30.4929 -30.4929 -30.4929
    13.5678  13.5683  13.5683  13.5687  14.2663  14.2665  14.2665  14.2666
    14.6084  14.6084  14.6084  14.6084  14.6148  14.6149  14.6149  14.6150
    14.6886  14.6887  14.6888  14.6888  14.6890  14.6891  14.6892  14.6892
    14.8866  14.8867  14.8867  14.8867  14.8868  14.8868  14.8869  14.8869
    14.9917  14.9917  14.9918  14.9918  14.9921  14.9921  14.9922  14.9922
    15.1849  15.1850  15.1851  15.1851  15.6820  15.6820  15.6823  15.6823
    15.6824  15.6825  15.6826  15.6827  15.9972  15.9976  15.9976  15.9977
    16.0180  16.0183  16.0183  16.0184  16.4879  16.4880  16.4880  16.4881
    16.5617  16.5618  16.5618  16.5618  16.5656  16.5658  16.5659  16.5660
    16.7261  16.7262  16.7262  16.7264  16.7368  16.7368  16.7369  16.7369
    16.7369  16.7369  16.7371  16.7371  16.7767  16.7768  16.7768  16.7769
    16.8100  16.8101  16.8101  16.8103  17.0561  17.0561  17.0562  17.0563
    17.0563  17.0564  17.0564  17.0565  17.0929  17.0930  17.0930  17.0931
    17.1692  17.1694  17.1694  17.1696  17.2887  17.2887  17.2887  17.2888
    17.2888  17.2889  17.2889  17.2890  17.6266  17.6267  17.6267  17.6268
    18.0983  18.0984  18.0984  18.0985  18.2357  18.2357  18.2358  18.2358
    18.2359  18.2359  18.2360  18.2360  18.2389  18.2390  18.2391  18.2391
    18.5668  18.5669  18.5669  18.5670  18.6296  18.6297  18.6297  18.6298
    18.9790  18.9790  18.9791  18.9791  18.9792  18.9792  18.9792  18.9792
    19.0057  19.0057  19.0058  19.0058  19.0058  19.0058  19.0059  19.0059
    19.0143  19.0145  19.0145  19.0146  19.0369  19.0370  19.0370  19.0371
    20.2807  20.2809  20.2809  20.2810  22.0067  22.0067  22.0068  22.0068
    22.0070  22.0070  22.0071  22.0071  23.6824  23.6824  23.6825  23.6825
    23.6826  23.6826  23.6827  23.6827  25.3591  25.3594  25.3594  25.3597
    26.5548  26.5548  26.5549  26.5549  26.5550  26.5550  26.5550  26.5550
    27.2512  27.2515  27.2516  27.2516  29.7007  29.7009  29.7009  29.7009
    30.3321  30.3323  30.3323  30.3325  30.5178  30.5179  30.5180  30.5181
    30.5181  30.5181

          k =-0.5000-0.5000 0.2766 ( 33128 PWs)   bands (ev):

   -64.9468 -64.9466 -64.9466 -64.9464 -64.9360 -64.9359 -64.9358 -64.9357
   -64.9174 -64.9172 -64.9171 -64.9170 -64.9114 -64.9112 -64.9112 -64.9111
   -64.9108 -64.9105 -64.9105 -64.9104 -64.9104 -64.9103 -64.9102 -64.9101
   -64.9099 -64.9097 -64.9097 -64.9096 -64.9067 -64.9065 -64.9064 -64.9063
   -30.7950 -30.7950 -30.7950 -30.7949 -30.7949 -30.7949 -30.7949 -30.7948
   -30.7791 -30.7790 -30.7790 -30.7789 -30.7788 -30.7787 -30.7787 -30.7786
   -30.7785 -30.7785 -30.7784 -30.7784 -30.7784 -30.7784 -30.7783 -30.7783
   -30.7076 -30.7076 -30.7076 -30.7075 -30.6690 -30.6690 -30.6690 -30.6689
   -30.6292 -30.6292 -30.6292 -30.6292 -30.6292 -30.6291 -30.6291 -30.6290
   -30.6277 -30.6277 -30.6276 -30.6276 -30.6276 -30.6275 -30.6275 -30.6274
   -30.6255 -30.6255 -30.6255 -30.6254 -30.5873 -30.5872 -30.5872 -30.5872
   -30.5853 -30.5853 -30.5852 -30.5852 -30.5851 -30.5851 -30.5850 -30.5850
   -30.5836 -30.5836 -30.5836 -30.5836 -30.5685 -30.5685 -30.5684 -30.5684
   -30.5683 -30.5683 -30.5682 -30.5682 -30.5601 -30.5601 -30.5601 -30.5601
   -30.5192 -30.5192 -30.5192 -30.5192 -30.5141 -30.5140 -30.5140 -30.5139
   -30.5117 -30.5116 -30.5116 -30.5115 -30.4957 -30.4957 -30.4957 -30.4957
    13.6350  13.6354  13.6354  13.6358  14.1239  14.1242  14.1242  14.1244
    14.6442  14.6442  14.6442  14.6442  14.6658  14.6658  14.6658  14.6658
    14.6661  14.6661  14.6662  14.6662  14.6686  14.6687  14.6687  14.6687
    14.8180  14.8181  14.8181  14.8181  14.8183  14.8183  14.8183  14.8184
    15.1299  15.1299  15.1299  15.1299  15.1303  15.1303  15.1303  15.1303
    15.2405  15.2406  15.2407  15.2407  15.6701  15.6701  15.6704  15.6704
    15.6705  15.6705  15.6707  15.6707  15.7952  15.7955  15.7956  15.7957
    16.1101  16.1103  16.1103  16.1104  16.5027  16.5029  16.5029  16.5030
    16.6350  16.6351  16.6351  16.6351  16.6397  16.6399  16.6399  16.6400
    16.7093  16.7095  16.7095  16.7097  16.7220  16.7220  16.7220  16.7221
    16.7221  16.7221  16.7222  16.7223  16.7240  16.7241  16.7241  16.7242
    16.7633  16.7634  16.7634  16.7636  17.0239  17.0239  17.0240  17.0240
    17.0241  17.0241  17.0241  17.0243  17.0863  17.0865  17.0865  17.0867
    17.2443  17.2444  17.2444  17.2445  17.3636  17.3636  17.3636  17.3637
    17.3637  17.3637  17.3638  17.3639  17.7539  17.7540  17.7540  17.7541
    17.9498  17.9499  17.9499  17.9500  17.9796  17.9796  17.9796  17.9797
    17.9797  17.9798  17.9798  17.9798  18.1869  18.1870  18.1871  18.1871
    18.2499  18.2499  18.2500  18.2500  18.4552  18.4553  18.4553  18.4554
    19.0676  19.0676  19.0677  19.0677  19.0677  19.0677  19.0678  19.0678
    19.0813  19.0815  19.0815  19.0816  19.1044  19.1044  19.1045  19.1045
    19.1045  19.1045  19.1046  19.1046  19.1151  19.1152  19.1152  19.1153
    21.0301  21.0304  21.0304  21.0305  22.1876  22.1876  22.1878  22.1878
    22.1879  22.1879  22.1880  22.1880  23.4024  23.4024  23.4024  23.4024
    23.4026  23.4026  23.4026  23.4027  24.5189  24.5193  24.5193  24.5195
    26.9706  26.9706  26.9707  26.9707  26.9708  26.9708  26.9709  26.9709
    27.4787  27.4789  27.4790  27.4790  29.1567  29.1569  29.1569  29.1569
    29.6668  29.6668  29.6669  29.6669  29.6671  29.6671  29.6672  29.6672
    31.2795  31.2797

          k =-0.5000-0.5000 0.3873 ( 33144 PWs)   bands (ev):

   -64.9449 -64.9447 -64.9446 -64.9445 -64.9394 -64.9392 -64.9391 -64.9390
   -64.9140 -64.9139 -64.9138 -64.9137 -64.9114 -64.9112 -64.9112 -64.9111
   -64.9108 -64.9105 -64.9105 -64.9104 -64.9104 -64.9103 -64.9102 -64.9101
   -64.9099 -64.9097 -64.9097 -64.9096 -64.9086 -64.9084 -64.9083 -64.9082
   -30.7913 -30.7913 -30.7913 -30.7912 -30.7912 -30.7911 -30.7911 -30.7911
   -30.7840 -30.7839 -30.7839 -30.7838 -30.7835 -30.7833 -30.7833 -30.7832
   -30.7825 -30.7825 -30.7824 -30.7824 -30.7824 -30.7824 -30.7823 -30.7823
   -30.6869 -30.6869 -30.6869 -30.6868 -30.6499 -30.6499 -30.6499 -30.6498
   -30.6447 -30.6447 -30.6446 -30.6446 -30.6292 -30.6291 -30.6291 -30.6291
   -30.6291 -30.6290 -30.6290 -30.6289 -30.6283 -30.6283 -30.6282 -30.6282
   -30.6282 -30.6282 -30.6281 -30.6281 -30.6080 -30.6079 -30.6079 -30.6079
   -30.5809 -30.5809 -30.5809 -30.5808 -30.5807 -30.5807 -30.5807 -30.5807
   -30.5794 -30.5794 -30.5794 -30.5794 -30.5719 -30.5719 -30.5719 -30.5719
   -30.5718 -30.5717 -30.5717 -30.5717 -30.5674 -30.5674 -30.5674 -30.5674
   -30.5119 -30.5119 -30.5119 -30.5119 -30.5087 -30.5086 -30.5085 -30.5084
   -30.5079 -30.5078 -30.5077 -30.5076 -30.5000 -30.5000 -30.5000 -30.5000
    13.7303  13.7308  13.7308  13.7311  13.9819  13.9822  13.9822  13.9825
    14.6692  14.6692  14.6692  14.6692  14.6695  14.6695  14.6695  14.6696
    14.6753  14.6754  14.6754  14.6754  14.6967  14.6967  14.6967  14.6968
    14.7508  14.7508  14.7508  14.7509  14.7511  14.7511  14.7511  14.7512
    15.2880  15.2881  15.2882  15.2882  15.2885  15.2885  15.2885  15.2886
    15.3289  15.3291  15.3291  15.3292  15.5882  15.5882  15.5884  15.5885
    15.5886  15.5886  15.5888  15.5888  15.6103  15.6106  15.6106  15.6107
    16.2373  16.2375  16.2375  16.2375  16.4763  16.4765  16.4765  16.4765
    16.6559  16.6559  16.6560  16.6560  16.6873  16.6874  16.6874  16.6876
    16.6986  16.6986  16.6986  16.6988  16.7226  16.7227  16.7227  16.7229
    16.7360  16.7361  16.7361  16.7362  16.7760  16.7761  16.7761  16.7761
    16.7762  16.7762  16.7763  16.7763  16.9639  16.9639  16.9640  16.9641
    16.9641  16.9641  16.9642  16.9643  16.9765  16.9767  16.9767  16.9769
    17.4126  17.4127  17.4127  17.4128  17.4536  17.4536  17.4536  17.4537
    17.4538  17.4538  17.4538  17.4539  17.7513  17.7513  17.7514  17.7514
    17.7515  17.7515  17.7516  17.7516  17.7749  17.7750  17.7750  17.7751
    17.9128  17.9129  17.9129  17.9130  18.0980  18.0981  18.0982  18.0982
    18.1244  18.1244  18.1246  18.1246  18.2726  18.2727  18.2727  18.2728
    19.1305  19.1305  19.1305  19.1305  19.1306  19.1306  19.1306  19.1306
    19.1364  19.1366  19.1366  19.1367  19.1579  19.1580  19.1580  19.1581
    19.1666  19.1666  19.1667  19.1667  19.1667  19.1667  19.1668  19.1668
    21.8448  21.8451  21.8451  21.8453  22.4413  22.4413  22.4414  22.4414
    22.4416  22.4416  22.4417  22.4417  23.0766  23.0766  23.0767  23.0767
    23.0768  23.0769  23.0769  23.0769  23.6134  23.6137  23.6137  23.6139
    27.5123  27.5123  27.5125  27.5125  27.5126  27.5126  27.5127  27.5127
    27.7955  27.7958  27.7958  27.7958  28.6489  28.6491  28.6492  28.6492
    28.8740  28.8740  28.8741  28.8741  28.8743  28.8743  28.8744  28.8744
    32.3455  32.3457

          k =-0.5000-0.5000-0.4979 ( 33120 PWs)   bands (ev):

   -64.9428 -64.9426 -64.9425 -64.9424 -64.9420 -64.9418 -64.9417 -64.9416
   -64.9115 -64.9114 -64.9114 -64.9113 -64.9112 -64.9112 -64.9111 -64.9111
   -64.9108 -64.9107 -64.9106 -64.9105 -64.9105 -64.9105 -64.9104 -64.9104
   -64.9103 -64.9103 -64.9102 -64.9101 -64.9099 -64.9097 -64.9097 -64.9096
   -30.7875 -30.7875 -30.7875 -30.7874 -30.7870 -30.7870 -30.7870 -30.7869
   -30.7868 -30.7868 -30.7867 -30.7867 -30.7863 -30.7863 -30.7863 -30.7863
   -30.7854 -30.7853 -30.7853 -30.7852 -30.7852 -30.7850 -30.7850 -30.7849
   -30.6657 -30.6657 -30.6656 -30.6656 -30.6654 -30.6654 -30.6654 -30.6653
   -30.6293 -30.6293 -30.6293 -30.6292 -30.6291 -30.6291 -30.6291 -30.6291
   -30.6290 -30.6290 -30.6290 -30.6289 -30.6288 -30.6288 -30.6288 -30.6287
   -30.6287 -30.6287 -30.6287 -30.6286 -30.6286 -30.6285 -30.6285 -30.6284
   -30.5764 -30.5764 -30.5763 -30.5763 -30.5763 -30.5762 -30.5762 -30.5762
   -30.5760 -30.5760 -30.5759 -30.5759 -30.5759 -30.5758 -30.5758 -30.5758
   -30.5743 -30.5743 -30.5743 -30.5743 -30.5736 -30.5736 -30.5735 -30.5735
   -30.5068 -30.5067 -30.5066 -30.5065 -30.5065 -30.5064 -30.5064 -30.5063
   -30.5058 -30.5058 -30.5058 -30.5058 -30.5051 -30.5051 -30.5050 -30.5050
    13.8479  13.8483  13.8483  13.8486  13.8486  13.8490  13.8490  13.8493
    14.6961  14.6961  14.6961  14.6961  14.6968  14.6968  14.6968  14.6968
    14.6986  14.6986  14.6986  14.6988  14.6988  14.6988  14.6989  14.6989
    14.6990  14.6990  14.6990  14.6990  14.6992  14.6992  14.6992  14.6992
    15.4491  15.4493  15.4494  15.4495  15.4496  15.4497  15.4497  15.4497
    15.4497  15.4498  15.4498  15.4499  15.4501  15.4501  15.4502  15.4503
    15.4523  15.4525  15.4526  15.4526  15.4531  15.4534  15.4534  15.4534
    16.3757  16.3760  16.3760  16.3760  16.3760  16.3760  16.3761  16.3761
    16.6658  16.6659  16.6659  16.6660  16.6662  16.6663  16.6663  16.6665
    16.6989  16.6990  16.6990  16.6991  16.6992  16.6993  16.6993  16.6995
    16.8543  16.8545  16.8545  16.8546  16.8548  16.8550  16.8550  16.8551
    16.8731  16.8731  16.8732  16.8732  16.8733  16.8733  16.8733  16.8734
    16.8734  16.8734  16.8734  16.8735  16.8735  16.8735  16.8736  16.8736
    17.5755  17.5755  17.5757  17.5757  17.5758  17.5759  17.5760  17.5760
    17.5760  17.5761  17.5761  17.5761  17.5763  17.5763  17.5765  17.5766
    17.5919  17.5920  17.5920  17.5921  17.5922  17.5923  17.5923  17.5924
    18.0779  18.0779  18.0781  18.0781  18.0784  18.0785  18.0786  18.0787
    18.0889  18.0890  18.0891  18.0892  18.0893  18.0893  18.0894  18.0895
    19.1642  19.1643  19.1643  19.1644  19.1644  19.1645  19.1645  19.1646
    19.1700  19.1701  19.1701  19.1701  19.1703  19.1703  19.1703  19.1704
    19.1705  19.1705  19.1705  19.1705  19.1707  19.1707  19.1707  19.1708
    22.7116  22.7119  22.7119  22.7120  22.7121  22.7123  22.7123  22.7125
    22.7458  22.7459  22.7460  22.7461  22.7461  22.7463  22.7463  22.7463
    22.7465  22.7465  22.7466  22.7467  22.7467  22.7469  22.7470  22.7470
    28.1517  28.1517  28.1518  28.1518  28.1519  28.1519  28.1519  28.1520
    28.1523  28.1523  28.1523  28.1524  28.1524  28.1525  28.1525  28.1526
    28.1900  28.1902  28.1903  28.1903  28.1908  28.1910  28.1911  28.1911
    33.4418  33.4423

     the Fermi energy is    19.1904 ev

!    total energy              =  -16384.95922025 Ry
     Harris-Foulkes estimate   =  -16384.95920922 Ry
     estimated scf accuracy    <       0.00000049 Ry

     total all-electron energy =   -322945.812927 Ry

     The total energy is the sum of the following terms:

     one-electron contribution =   -2498.33839857 Ry
     hartree contribution      =    1665.02179371 Ry
     xc contribution           =    -986.43079551 Ry
     ewald contribution        =   -6397.82392990 Ry
     one-center paw contrib.   =   -8167.42218081 Ry
     smearing contrib. (-TS)   =       0.03429084 Ry

     convergence has been achieved in  11 iterations

     Forces acting on atoms (cartesian axes, Ry/au):

     atom    1 type  1   force =     0.00000000    0.00000000    0.00000000
     atom    2 type  1   force =     0.00009311    0.00009311    0.00000000
     atom    3 type  1   force =     0.00005361    0.00000000   -0.00001109
     atom    4 type  1   force =     0.00000000    0.00005361   -0.00001109
     atom    5 type  1   force =     0.00000000    0.00000000    0.00000000
     atom    6 type  1   force =     0.00012466    0.00012466    0.00000000
     atom    7 type  1   force =     0.00005361    0.00000000    0.00001109
     atom    8 type  1   force =     0.00000000    0.00005361    0.00001109
     atom    9 type  1   force =     0.00000000    0.00000000    0.00000000
     atom   10 type  1   force =     0.00009311   -0.00009311    0.00000000
     atom   11 type  1   force =     0.00015825    0.00000000   -0.00001294
     atom   12 type  1   force =     0.00000000   -0.00005361   -0.00001109
     atom   13 type  1   force =     0.00000000    0.00000000    0.00000000
     atom   14 type  1   force =     0.00012466   -0.00012466    0.00000000
     atom   15 type  1   force =     0.00015825    0.00000000    0.00001294
     atom   16 type  1   force =     0.00000000   -0.00005361    0.00001109
     atom   17 type  1   force =     0.00000000    0.00000000    0.00000000
     atom   18 type  1   force =    -0.00009311    0.00009311    0.00000000
     atom   19 type  1   force =    -0.00005361   -0.00000000   -0.00001109
     atom   20 type  1   force =     0.00000000    0.00015825   -0.00001294
     atom   21 type  1   force =     0.00000000    0.00000000    0.00000000
     atom   22 type  1   force =    -0.00012466    0.00012466    0.00000000
     atom   23 type  1   force =    -0.00005361    0.00000000    0.00001109
     atom   24 type  1   force =     0.00000000    0.00015825    0.00001294
     atom   25 type  1   force =     0.00000000    0.00000000    0.00000000
     atom   26 type  1   force =    -0.00009311   -0.00009311    0.00000000
     atom   27 type  1   force =    -0.00015825    0.00000000   -0.00001294
     atom   28 type  1   force =     0.00000000   -0.00015825   -0.00001294
     atom   29 type  1   force =     0.00000000    0.00000000    0.00000000
     atom   30 type  1   force =    -0.00012466   -0.00012466    0.00000000
     atom   31 type  1   force =    -0.00015825    0.00000000    0.00001294
     atom   32 type  1   force =     0.00000000   -0.00015825    0.00001294

     Total force =     0.000648     Total SCF correction =     0.005407
     SCF correction compared to forces is large: reduce conv_thr to get better values


     Computing stress (Cartesian axis) and pressure

          total   stress  (Ry/bohr**3)                   (kbar)     P=   -5.93
  -0.00003328   0.00000000   0.00000000         -4.90      0.00      0.00
   0.00000000  -0.00003328   0.00000000          0.00     -4.90      0.00
   0.00000000   0.00000000  -0.00005446          0.00      0.00     -8.01


     Writing output data file CFqexXEcqcumEClT.save/
 
     init_run     :     40.82s CPU     44.34s WALL (       1 calls)
     electrons    :   1937.51s CPU   2040.16s WALL (       1 calls)
     forces       :     18.67s CPU     19.40s WALL (       1 calls)
     stress       :    184.87s CPU    185.68s WALL (       1 calls)

     Called by init_run:
     wfcinit      :     39.98s CPU     43.41s WALL (       1 calls)
     potinit      :      0.40s CPU      0.41s WALL (       1 calls)
     hinit0       :      0.23s CPU      0.26s WALL (       1 calls)

     Called by electrons:
     c_bands      :   1759.95s CPU   1843.93s WALL (      12 calls)
     sum_band     :    173.52s CPU    191.79s WALL (      12 calls)
     v_of_rho     :      0.35s CPU      0.37s WALL (      12 calls)
     newd         :      0.84s CPU      1.11s WALL (      12 calls)
     PAW_pot      :      3.03s CPU      3.09s WALL (      12 calls)
     mix_rho      :      0.08s CPU      0.10s WALL (      12 calls)

     Called by c_bands:
     init_us_2    :     11.04s CPU     11.09s WALL (    2025 calls)
     cegterg      :   1699.78s CPU   1783.45s WALL (     900 calls)

     Called by sum_band:
     sum_band:bec :      1.35s CPU      1.37s WALL (     900 calls)
     addusdens    :      0.87s CPU      1.18s WALL (      12 calls)

     Called by *egterg:
     h_psi        :    693.94s CPU    769.25s WALL (    2574 calls)
     s_psi        :     85.86s CPU     86.13s WALL (    2574 calls)
     g_psi        :      2.50s CPU      2.51s WALL (    1599 calls)
     cdiaghg      :    642.78s CPU    644.84s WALL (    2424 calls)

     Called by h_psi:
     h_psi:pot    :    687.26s CPU    762.33s WALL (    2574 calls)
     h_psi:calbec :     88.31s CPU     92.61s WALL (    2574 calls)
     vloc_psi     :    514.07s CPU    584.44s WALL (    2574 calls)
     add_vuspsi   :     84.85s CPU     85.26s WALL (    2574 calls)

     General routines
     calbec       :    149.56s CPU    156.58s WALL (    3849 calls)
     fft          :      0.36s CPU      0.40s WALL (     181 calls)
     ffts         :      0.03s CPU      0.03s WALL (      24 calls)
     fftw         :    597.74s CPU    679.39s WALL ( 1703392 calls)
     interpolate  :      0.04s CPU      0.05s WALL (      12 calls)
 
     Parallel routines
     fft_scatt_xy :     48.84s CPU     54.55s WALL ( 1703597 calls)
     fft_scatt_yz :    393.11s CPU    451.25s WALL ( 1703597 calls)
 
     PWSCF        : 36m28.54s CPU    39m48.48s WALL

 
   This run was terminated on:  21:21:18  11Nov2020            

=------------------------------------------------------------------------------=
   JOB DONE.
=------------------------------------------------------------------------------=
