--------------------------------------------------------------------------
WARNING: There was an error initializing an OpenFabrics device.

  Local host:   bear-pg0211u04a
  Local device: mlx5_0
--------------------------------------------------------------------------

     Program PWSCF v.6.3 starts on 12Nov2020 at  7:25:33 

     This program is part of the open-source Quantum ESPRESSO suite
     for quantum simulation of materials; please cite
         "P. Giannozzi et al., J. Phys.:Condens. Matter 21 395502 (2009);
         "P. Giannozzi et al., J. Phys.:Condens. Matter 29 465901 (2017);
          URL http://www.quantum-espresso.org", 
     in publications or presentations arising from this work. More details at
     http://www.quantum-espresso.org/quote

     Parallel version (MPI & OpenMP), running on      20 processor cores
     Number of MPI processes:                20
     Threads/MPI process:                     1

     MPI processes distributed on     1 nodes
     R & G space division:  proc/nbgrp/npool/nimage =      20
     Reading input from wd/ec/ec_4_006.in
Warning: card &IONS ignored
Warning: card ION_DYNAMICS = 'BFGS', ignored
Warning: card / ignored
Warning: card &CELL ignored
Warning: card CELL_DYNAMICS = 'BFGS', ignored
Warning: card CELL_FACTOR = 2.0, ignored
Warning: card PRESS = 0.0, ignored
Warning: card / ignored

     Current dimensions of program PWSCF are:
     Max number of different atomic species (ntypx) = 10
     Max number of k-points (npk) =  40000
     Max angular momentum in pseudopotentials (lmaxx) =  3
               file Pd.pbe-spn-kjpaw_psl.1.0.0.UPF: wavefunction(s)  4S 5S 4D renormalized

     Subspace diagonalization in iterative solution of the eigenvalue problem:
     a serial algorithm will be used

 
     Parallelization info
     --------------------
     sticks:   dense  smooth     PW     G-vecs:    dense   smooth      PW
     Min         376     247     67                24598    13199    1873
     Max         377     248     68                24603    13206    1878
     Sum        7521    4957   1353               491977   264083   37517
 


     bravais-lattice index     =            0
     lattice parameter (alat)  =      14.8394  a.u.
     unit-cell volume          =    3267.7646 (a.u.)^3
     number of atoms/cell      =           32
     number of atomic types    =            1
     number of electrons       =       576.00
     number of Kohn-Sham states=          346
     kinetic-energy cutoff     =      71.0000  Ry
     charge density cutoff     =     430.0000  Ry
     convergence threshold     =      1.0E-06
     mixing beta               =       0.1000
     number of iterations used =           10  plain     mixing
     Exchange-correlation      = SLA PW PBX PBC ( 1  4  3  4 0 0)

     celldm(1)=  14.839420  celldm(2)=   0.000000  celldm(3)=   0.000000
     celldm(4)=   0.000000  celldm(5)=   0.000000  celldm(6)=   0.000000

     crystal axes: (cart. coord. in units of alat)
               a(1) = (   1.000006   0.000000   0.000000 )  
               a(2) = (   0.000000   1.000006   0.004167 )  
               a(3) = (   0.000000   0.004167   1.000006 )  

     reciprocal axes: (cart. coord. in units 2 pi/alat)
               b(1) = (  0.999994  0.000000  0.000000 )  
               b(2) = (  0.000000  1.000012 -0.004167 )  
               b(3) = (  0.000000 -0.004167  1.000012 )  


     PseudoPot. # 1 for Pd read from file:
     /rds/homes/b/bxp912/pp/Pd.pbe-spn-kjpaw_psl.1.0.0.UPF
     MD5 check sum: 790f2ebce206edfd9790dcb9844eca51
     Pseudo is Projector augmented-wave + core cor, Zval = 18.0
     Generated using "atomic" code by A. Dal Corso v.6.3
     Shape of augmentation charge: PSQ
     Using radial grid of 1235 points,  6 beta functions with: 
                l(1) =   0
                l(2) =   0
                l(3) =   1
                l(4) =   1
                l(5) =   2
                l(6) =   2
     Q(r) pseudized with 0 coefficients 


     atomic species   valence    mass     pseudopotential
        Pd            18.00   106.42000     Pd( 1.00)

      8 Sym. Ops., with inversion, found



   Cartesian axes

     site n.     atom                  positions (alat units)
         1           Pd  tau(   1) = (   0.0000000   0.0000000   0.0000000  )
         2           Pd  tau(   2) = (   0.2500059   0.2500059   0.0010417  )
         3           Pd  tau(   3) = (   0.2500059   0.0010417   0.2500054  )
         4           Pd  tau(   4) = (   0.0000000   0.2510476   0.2510471  )
         5           Pd  tau(   5) = (   0.0000000   0.0020833   0.5000019  )
         6           Pd  tau(   6) = (   0.2500130   0.2520964   0.5010436  )
         7           Pd  tau(   7) = (   0.2500059   0.0031250   0.7499994  )
         8           Pd  tau(   8) = (   0.0000000   0.2531309   0.7510411  )
         9           Pd  tau(   9) = (   0.0000000   0.5000027   0.0020833  )
        10           Pd  tau(  10) = (   0.2500059   0.7499996   0.0031250  )
        11           Pd  tau(  11) = (   0.2500130   0.5010444   0.2520957  )
        12           Pd  tau(  12) = (   0.0000000   0.7510413   0.2531304  )
        13           Pd  tau(  13) = (   0.0000000   0.5020860   0.5020852  )
        14           Pd  tau(  14) = (   0.2500130   0.7520758   0.5031269  )
        15           Pd  tau(  15) = (   0.2500130   0.5031277   0.7520758  )
        16           Pd  tau(  16) = (   0.0000000   0.7531246   0.7531244  )
        17           Pd  tau(  17) = (   0.5000027   0.0000000   0.0000000  )
        18           Pd  tau(  18) = (   0.7499996   0.2500059   0.0010417  )
        19           Pd  tau(  19) = (   0.7499996   0.0010417   0.2500054  )
        20           Pd  tau(  20) = (   0.5000027   0.2510548   0.2510541  )
        21           Pd  tau(  21) = (   0.5000027   0.0020833   0.5000019  )
        22           Pd  tau(  22) = (   0.7499924   0.2520964   0.5010436  )
        23           Pd  tau(  23) = (   0.7499996   0.0031250   0.7499994  )
        24           Pd  tau(  24) = (   0.5000027   0.2531380   0.7510342  )
        25           Pd  tau(  25) = (   0.5000027   0.5000027   0.0020833  )
        26           Pd  tau(  26) = (   0.7499996   0.7499996   0.0031250  )
        27           Pd  tau(  27) = (   0.7499924   0.5010444   0.2520957  )
        28           Pd  tau(  28) = (   0.5000027   0.7510342   0.2531373  )
        29           Pd  tau(  29) = (   0.5000027   0.5020860   0.5020852  )
        30           Pd  tau(  30) = (   0.7499924   0.7520758   0.5031269  )
        31           Pd  tau(  31) = (   0.7499924   0.5031277   0.7520758  )
        32           Pd  tau(  32) = (   0.5000027   0.7531174   0.7531174  )

     number of k points=   125  Marzari-Vanderbilt smearing, width (Ry)=  0.0400

     Number of k-points >= 100: set verbosity='high' to print them.

     Dense  grid:   491977 G-vectors     FFT dimensions: ( 100, 100, 100)

     Smooth grid:   264083 G-vectors     FFT dimensions: (  80,  80,  80)

     Estimated max dynamical RAM per process >       1.30 GB

     Estimated total dynamical RAM >      25.91 GB

     Check: negative/imaginary core charge=   -0.000002    0.000000

     Initial potential from superposition of free atoms

     starting charge  575.98776, renormalised to  576.00000
     Starting wfcs are  320 randomized atomic wfcs +   26 random wfcs
     Checking if some PAW data can be deallocated... 

     total cpu time spent up to now is       74.9 secs

     Self-consistent Calculation

     iteration #  1     ecut=    71.00 Ry     beta= 0.10
     Davidson diagonalization with overlap
     ethr =  1.00E-02,  avg # of iterations =  3.1

     Threshold (ethr) on eigenvalues was too large:
     Diagonalizing with lowered threshold

     Davidson diagonalization with overlap
     ethr =  8.31E-05,  avg # of iterations =  3.0

     total cpu time spent up to now is      828.1 secs

     total energy              =  -16385.01968408 Ry
     Harris-Foulkes estimate   =  -16385.08702967 Ry
     estimated scf accuracy    <       0.47279116 Ry

     iteration #  2     ecut=    71.00 Ry     beta= 0.10
     Davidson diagonalization with overlap
     ethr =  8.21E-05,  avg # of iterations =  1.0

     total cpu time spent up to now is     1057.9 secs

     total energy              =  -16384.92748620 Ry
     Harris-Foulkes estimate   =  -16385.02737050 Ry
     estimated scf accuracy    <       0.25740058 Ry

     iteration #  3     ecut=    71.00 Ry     beta= 0.10
     Davidson diagonalization with overlap
     ethr =  4.47E-05,  avg # of iterations =  2.1

     total cpu time spent up to now is     1376.1 secs

     total energy              =  -16384.96137933 Ry
     Harris-Foulkes estimate   =  -16384.96575106 Ry
     estimated scf accuracy    <       0.06047604 Ry

     iteration #  4     ecut=    71.00 Ry     beta= 0.10
     Davidson diagonalization with overlap
     ethr =  1.05E-05,  avg # of iterations =  2.0

     total cpu time spent up to now is     1649.7 secs

     total energy              =  -16384.96119580 Ry
     Harris-Foulkes estimate   =  -16384.96354409 Ry
     estimated scf accuracy    <       0.02177540 Ry

     iteration #  5     ecut=    71.00 Ry     beta= 0.10
     Davidson diagonalization with overlap
     ethr =  3.78E-06,  avg # of iterations =  1.2

     total cpu time spent up to now is     1884.8 secs

     total energy              =  -16384.95637809 Ry
     Harris-Foulkes estimate   =  -16384.96139367 Ry
     estimated scf accuracy    <       0.01434389 Ry

     iteration #  6     ecut=    71.00 Ry     beta= 0.10
     Davidson diagonalization with overlap
     ethr =  2.49E-06,  avg # of iterations =  1.0

     total cpu time spent up to now is     2112.7 secs

     total energy              =  -16384.95738557 Ry
     Harris-Foulkes estimate   =  -16384.95742001 Ry
     estimated scf accuracy    <       0.00029849 Ry

     iteration #  7     ecut=    71.00 Ry     beta= 0.10
     Davidson diagonalization with overlap
     ethr =  5.18E-08,  avg # of iterations =  3.0

     total cpu time spent up to now is     2516.9 secs

     total energy              =  -16384.95746622 Ry
     Harris-Foulkes estimate   =  -16384.95748709 Ry
     estimated scf accuracy    <       0.00024601 Ry

     iteration #  8     ecut=    71.00 Ry     beta= 0.10
     Davidson diagonalization with overlap
     ethr =  4.27E-08,  avg # of iterations =  1.0

     total cpu time spent up to now is     2744.7 secs

     total energy              =  -16384.95747132 Ry
     Harris-Foulkes estimate   =  -16384.95747394 Ry
     estimated scf accuracy    <       0.00005247 Ry

     iteration #  9     ecut=    71.00 Ry     beta= 0.10
     Davidson diagonalization with overlap
     ethr =  9.11E-09,  avg # of iterations =  1.0

     total cpu time spent up to now is     2970.4 secs

     total energy              =  -16384.95747107 Ry
     Harris-Foulkes estimate   =  -16384.95747234 Ry
     estimated scf accuracy    <       0.00003526 Ry

     iteration # 10     ecut=    71.00 Ry     beta= 0.10
     Davidson diagonalization with overlap
     ethr =  6.12E-09,  avg # of iterations =  2.0

     total cpu time spent up to now is     3288.1 secs

     total energy              =  -16384.95747798 Ry
     Harris-Foulkes estimate   =  -16384.95747527 Ry
     estimated scf accuracy    <       0.00000338 Ry

     iteration # 11     ecut=    71.00 Ry     beta= 0.10
     Davidson diagonalization with overlap
     ethr =  5.88E-10,  avg # of iterations =  1.0

     total cpu time spent up to now is     3517.0 secs

     End of self-consistent calculation

     Number of k-points >= 100: set verbosity='high' to print the bands.

     the Fermi energy is    19.2986 ev

!    total energy              =  -16384.95748891 Ry
     Harris-Foulkes estimate   =  -16384.95747825 Ry
     estimated scf accuracy    <       0.00000063 Ry

     total all-electron energy =   -322945.811196 Ry

     The total energy is the sum of the following terms:

     one-electron contribution =   -2484.57353759 Ry
     hartree contribution      =    1660.19105855 Ry
     xc contribution           =    -986.52798445 Ry
     ewald contribution        =   -6406.65321579 Ry
     one-center paw contrib.   =   -8167.42683769 Ry
     smearing contrib. (-TS)   =       0.03302807 Ry

     convergence has been achieved in  11 iterations

     Forces acting on atoms (cartesian axes, Ry/au):

     atom    1 type  1   force =     0.00000000    0.00000000    0.00000000
     atom    2 type  1   force =     0.00000364    0.00007730    0.00000234
     atom    3 type  1   force =     0.00000364    0.00000234    0.00007730
     atom    4 type  1   force =     0.00000000    0.00005373    0.00005373
     atom    5 type  1   force =     0.00000000    0.00000000    0.00000000
     atom    6 type  1   force =     0.00005315    0.00008787   -0.00000437
     atom    7 type  1   force =     0.00000364   -0.00000234   -0.00007730
     atom    8 type  1   force =     0.00000000    0.00004688   -0.00004688
     atom    9 type  1   force =     0.00000000    0.00000000    0.00000000
     atom   10 type  1   force =     0.00000364   -0.00007730   -0.00000234
     atom   11 type  1   force =     0.00005315   -0.00000437    0.00008787
     atom   12 type  1   force =     0.00000000   -0.00004688    0.00004688
     atom   13 type  1   force =     0.00000000    0.00000000    0.00000000
     atom   14 type  1   force =     0.00005315   -0.00008787    0.00000437
     atom   15 type  1   force =     0.00005315    0.00000437   -0.00008787
     atom   16 type  1   force =     0.00000000   -0.00005373   -0.00005373
     atom   17 type  1   force =     0.00000000    0.00000000    0.00000000
     atom   18 type  1   force =    -0.00000364    0.00007730    0.00000234
     atom   19 type  1   force =    -0.00000364    0.00000234    0.00007730
     atom   20 type  1   force =     0.00000000    0.00012696    0.00012696
     atom   21 type  1   force =     0.00000000    0.00000000    0.00000000
     atom   22 type  1   force =    -0.00005315    0.00008787   -0.00000437
     atom   23 type  1   force =    -0.00000364   -0.00000234   -0.00007730
     atom   24 type  1   force =     0.00000000    0.00012487   -0.00012487
     atom   25 type  1   force =     0.00000000    0.00000000    0.00000000
     atom   26 type  1   force =    -0.00000364   -0.00007730   -0.00000234
     atom   27 type  1   force =    -0.00005315   -0.00000437    0.00008787
     atom   28 type  1   force =     0.00000000   -0.00012487    0.00012487
     atom   29 type  1   force =     0.00000000    0.00000000    0.00000000
     atom   30 type  1   force =    -0.00005315   -0.00008787    0.00000437
     atom   31 type  1   force =    -0.00005315    0.00000437   -0.00008787
     atom   32 type  1   force =     0.00000000   -0.00012696   -0.00012696

     Total force =     0.000529     Total SCF correction =     0.004607
     SCF correction compared to forces is large: reduce conv_thr to get better values


     Computing stress (Cartesian axis) and pressure

          total   stress  (Ry/bohr**3)                   (kbar)     P=    1.51
   0.00000880   0.00000000   0.00000000          1.29      0.00      0.00
   0.00000000   0.00001105  -0.00005147          0.00      1.63     -7.57
   0.00000000  -0.00005147   0.00001105          0.00     -7.57      1.63


     Writing output data file LKEKYQxNqsofoDII.save/
-------------------------------------------------------
Primary job  terminated normally, but 1 process returned
a non-zero exit code.. Per user-direction, the job has been aborted.
-------------------------------------------------------
--------------------------------------------------------------------------
mpirun detected that one or more processes exited with non-zero status, thus causing
the job to be terminated. The first process to do so was:

  Process name: [[51566,1],0]
  Exit code:    38
--------------------------------------------------------------------------
