--------------------------------------------------------------------------
WARNING: No preset parameters were found for the device that Open MPI
detected:

  Local host:            bear-pg0206u14b
  Device name:           mlx5_0
  Device vendor ID:      0x02c9
  Device vendor part ID: 4123

Default device parameters will be used, which may result in lower
performance.  You can edit any of the files specified by the
btl_openib_device_param_files MCA parameter to set values for your
device.

NOTE: You can turn off this warning by setting the MCA parameter
      btl_openib_warn_no_device_params_found to 0.
--------------------------------------------------------------------------
--------------------------------------------------------------------------
WARNING: There was an error initializing an OpenFabrics device.

  Local host:   bear-pg0206u14b
  Local device: mlx5_0
--------------------------------------------------------------------------

     Program PWSCF v.6.3 starts on 11Nov2020 at 23: 9:31 

     This program is part of the open-source Quantum ESPRESSO suite
     for quantum simulation of materials; please cite
         "P. Giannozzi et al., J. Phys.:Condens. Matter 21 395502 (2009);
         "P. Giannozzi et al., J. Phys.:Condens. Matter 29 465901 (2017);
          URL http://www.quantum-espresso.org", 
     in publications or presentations arising from this work. More details at
     http://www.quantum-espresso.org/quote

     Parallel version (MPI & OpenMP), running on      20 processor cores
     Number of MPI processes:                20
     Threads/MPI process:                     1

     MPI processes distributed on     1 nodes
     R & G space division:  proc/nbgrp/npool/nimage =      20
     Reading input from wd/ec/ec_4_003.in
Warning: card &IONS ignored
Warning: card ION_DYNAMICS = 'BFGS', ignored
Warning: card / ignored
Warning: card &CELL ignored
Warning: card CELL_DYNAMICS = 'BFGS', ignored
Warning: card CELL_FACTOR = 2.0, ignored
Warning: card PRESS = 0.0, ignored
Warning: card / ignored

     Current dimensions of program PWSCF are:
     Max number of different atomic species (ntypx) = 10
     Max number of k-points (npk) =  40000
     Max angular momentum in pseudopotentials (lmaxx) =  3
               file Pd.pbe-spn-kjpaw_psl.1.0.0.UPF: wavefunction(s)  4S 5S 4D renormalized

     Subspace diagonalization in iterative solution of the eigenvalue problem:
     a serial algorithm will be used

 
     Parallelization info
     --------------------
     sticks:   dense  smooth     PW     G-vecs:    dense   smooth      PW
     Min         376     247     67                24593    13194    1873
     Max         377     248     68                24598    13200    1878
     Sum        7521    4957   1353               491885   263971   37517
 


     bravais-lattice index     =            0
     lattice parameter (alat)  =      14.8394  a.u.
     unit-cell volume          =    3267.7646 (a.u.)^3
     number of atoms/cell      =           32
     number of atomic types    =            1
     number of electrons       =       576.00
     number of Kohn-Sham states=          346
     kinetic-energy cutoff     =      71.0000  Ry
     charge density cutoff     =     430.0000  Ry
     convergence threshold     =      1.0E-06
     mixing beta               =       0.1000
     number of iterations used =           10  plain     mixing
     Exchange-correlation      = SLA PW PBX PBC ( 1  4  3  4 0 0)

     celldm(1)=  14.839420  celldm(2)=   0.000000  celldm(3)=   0.000000
     celldm(4)=   0.000000  celldm(5)=   0.000000  celldm(6)=   0.000000

     crystal axes: (cart. coord. in units of alat)
               a(1) = (   1.000001   0.000000   0.000000 )  
               a(2) = (   0.000000   1.000001   0.001667 )  
               a(3) = (   0.000000   0.001667   1.000001 )  

     reciprocal axes: (cart. coord. in units 2 pi/alat)
               b(1) = (  0.999999  0.000000  0.000000 )  
               b(2) = (  0.000000  1.000002 -0.001667 )  
               b(3) = (  0.000000 -0.001667  1.000002 )  


     PseudoPot. # 1 for Pd read from file:
     /rds/homes/b/bxp912/pp/Pd.pbe-spn-kjpaw_psl.1.0.0.UPF
     MD5 check sum: 790f2ebce206edfd9790dcb9844eca51
     Pseudo is Projector augmented-wave + core cor, Zval = 18.0
     Generated using "atomic" code by A. Dal Corso v.6.3
     Shape of augmentation charge: PSQ
     Using radial grid of 1235 points,  6 beta functions with: 
                l(1) =   0
                l(2) =   0
                l(3) =   1
                l(4) =   1
                l(5) =   2
                l(6) =   2
     Q(r) pseudized with 0 coefficients 


     atomic species   valence    mass     pseudopotential
        Pd            18.00   106.42000     Pd( 1.00)

      8 Sym. Ops., with inversion, found



   Cartesian axes

     site n.     atom                  positions (alat units)
         1           Pd  tau(   1) = (   0.0000000   0.0000000   0.0000000  )
         2           Pd  tau(   2) = (   0.2500047   0.2500047   0.0004167  )
         3           Pd  tau(   3) = (   0.2500047   0.0004167   0.2500042  )
         4           Pd  tau(   4) = (   0.0000000   0.2504214   0.2504209  )
         5           Pd  tau(   5) = (   0.0000000   0.0008333   0.4999995  )
         6           Pd  tau(   6) = (   0.2500118   0.2508452   0.5004162  )
         7           Pd  tau(   7) = (   0.2500047   0.0012500   0.7499957  )
         8           Pd  tau(   8) = (   0.0000000   0.2512547   0.7504124  )
         9           Pd  tau(   9) = (   0.0000000   0.5000003   0.0008333  )
        10           Pd  tau(  10) = (   0.2500047   0.7499959   0.0012500  )
        11           Pd  tau(  11) = (   0.2500118   0.5004170   0.2508445  )
        12           Pd  tau(  12) = (   0.0000000   0.7504126   0.2512542  )
        13           Pd  tau(  13) = (   0.0000000   0.5008336   0.5008328  )
        14           Pd  tau(  14) = (   0.2500118   0.7508221   0.5012495  )
        15           Pd  tau(  15) = (   0.2500118   0.5012502   0.7508221  )
        16           Pd  tau(  16) = (   0.0000000   0.7512459   0.7512457  )
        17           Pd  tau(  17) = (   0.5000003   0.0000000   0.0000000  )
        18           Pd  tau(  18) = (   0.7499959   0.2500047   0.0004167  )
        19           Pd  tau(  19) = (   0.7499959   0.0004167   0.2500042  )
        20           Pd  tau(  20) = (   0.5000003   0.2504285   0.2504278  )
        21           Pd  tau(  21) = (   0.5000003   0.0008333   0.4999995  )
        22           Pd  tau(  22) = (   0.7499888   0.2508452   0.5004162  )
        23           Pd  tau(  23) = (   0.7499959   0.0012500   0.7499957  )
        24           Pd  tau(  24) = (   0.5000003   0.2512618   0.7504055  )
        25           Pd  tau(  25) = (   0.5000003   0.5000003   0.0008333  )
        26           Pd  tau(  26) = (   0.7499959   0.7499959   0.0012500  )
        27           Pd  tau(  27) = (   0.7499888   0.5004170   0.2508445  )
        28           Pd  tau(  28) = (   0.5000003   0.7504055   0.2512611  )
        29           Pd  tau(  29) = (   0.5000003   0.5008336   0.5008328  )
        30           Pd  tau(  30) = (   0.7499888   0.7508221   0.5012495  )
        31           Pd  tau(  31) = (   0.7499888   0.5012502   0.7508221  )
        32           Pd  tau(  32) = (   0.5000003   0.7512388   0.7512388  )

     number of k points=   125  Marzari-Vanderbilt smearing, width (Ry)=  0.0400

     Number of k-points >= 100: set verbosity='high' to print them.

     Dense  grid:   491885 G-vectors     FFT dimensions: ( 100, 100, 100)

     Smooth grid:   263971 G-vectors     FFT dimensions: (  80,  80,  80)

     Estimated max dynamical RAM per process >       1.30 GB

     Estimated total dynamical RAM >      25.91 GB

     Check: negative/imaginary core charge=   -0.000002    0.000000

     Initial potential from superposition of free atoms

     starting charge  575.98776, renormalised to  576.00000
     Starting wfcs are  320 randomized atomic wfcs +   26 random wfcs
     Checking if some PAW data can be deallocated... 

     total cpu time spent up to now is       73.7 secs

     Self-consistent Calculation

     iteration #  1     ecut=    71.00 Ry     beta= 0.10
     Davidson diagonalization with overlap
     ethr =  1.00E-02,  avg # of iterations =  3.1

     Threshold (ethr) on eigenvalues was too large:
     Diagonalizing with lowered threshold

     Davidson diagonalization with overlap
     ethr =  8.30E-05,  avg # of iterations =  3.0

     total cpu time spent up to now is      822.5 secs

     total energy              =  -16385.02020439 Ry
     Harris-Foulkes estimate   =  -16385.08751962 Ry
     estimated scf accuracy    <       0.47255239 Ry

     iteration #  2     ecut=    71.00 Ry     beta= 0.10
     Davidson diagonalization with overlap
     ethr =  8.20E-05,  avg # of iterations =  1.0

     total cpu time spent up to now is     1051.2 secs

     total energy              =  -16384.92804999 Ry
     Harris-Foulkes estimate   =  -16385.02788041 Ry
     estimated scf accuracy    <       0.25726223 Ry

     iteration #  3     ecut=    71.00 Ry     beta= 0.10
     Davidson diagonalization with overlap
     ethr =  4.47E-05,  avg # of iterations =  2.2

     total cpu time spent up to now is     1368.3 secs

     total energy              =  -16384.96192058 Ry
     Harris-Foulkes estimate   =  -16384.96629393 Ry
     estimated scf accuracy    <       0.06048992 Ry

     iteration #  4     ecut=    71.00 Ry     beta= 0.10
     Davidson diagonalization with overlap
     c_bands:  1 eigenvalues not converged
     ethr =  1.05E-05,  avg # of iterations =  1.8

     total cpu time spent up to now is     1629.4 secs

     total energy              =  -16384.96174293 Ry
     Harris-Foulkes estimate   =  -16384.96408632 Ry
     estimated scf accuracy    <       0.02175493 Ry

     iteration #  5     ecut=    71.00 Ry     beta= 0.10
     Davidson diagonalization with overlap
     ethr =  3.78E-06,  avg # of iterations =  1.3

     total cpu time spent up to now is     1869.0 secs

     total energy              =  -16384.95692729 Ry
     Harris-Foulkes estimate   =  -16384.96194051 Ry
     estimated scf accuracy    <       0.01433707 Ry

     iteration #  6     ecut=    71.00 Ry     beta= 0.10
     Davidson diagonalization with overlap
     ethr =  2.49E-06,  avg # of iterations =  1.0

     total cpu time spent up to now is     2095.3 secs

     total energy              =  -16384.95793376 Ry
     Harris-Foulkes estimate   =  -16384.95796825 Ry
     estimated scf accuracy    <       0.00030113 Ry

     iteration #  7     ecut=    71.00 Ry     beta= 0.10
     Davidson diagonalization with overlap
     ethr =  5.23E-08,  avg # of iterations =  3.0

     total cpu time spent up to now is     2497.7 secs

     total energy              =  -16384.95801469 Ry
     Harris-Foulkes estimate   =  -16384.95803552 Ry
     estimated scf accuracy    <       0.00024596 Ry

     iteration #  8     ecut=    71.00 Ry     beta= 0.10
     Davidson diagonalization with overlap
     ethr =  4.27E-08,  avg # of iterations =  1.1

     total cpu time spent up to now is     2727.7 secs

     total energy              =  -16384.95802002 Ry
     Harris-Foulkes estimate   =  -16384.95802242 Ry
     estimated scf accuracy    <       0.00005189 Ry

     iteration #  9     ecut=    71.00 Ry     beta= 0.10
     Davidson diagonalization with overlap
     ethr =  9.01E-09,  avg # of iterations =  1.0

     total cpu time spent up to now is     2952.4 secs

     total energy              =  -16384.95801986 Ry
     Harris-Foulkes estimate   =  -16384.95802101 Ry
     estimated scf accuracy    <       0.00003503 Ry

     iteration # 10     ecut=    71.00 Ry     beta= 0.10
     Davidson diagonalization with overlap
     ethr =  6.08E-09,  avg # of iterations =  2.0

     total cpu time spent up to now is     3272.2 secs

     total energy              =  -16384.95802682 Ry
     Harris-Foulkes estimate   =  -16384.95802406 Ry
     estimated scf accuracy    <       0.00000325 Ry

     iteration # 11     ecut=    71.00 Ry     beta= 0.10
     Davidson diagonalization with overlap
     ethr =  5.65E-10,  avg # of iterations =  1.2

     total cpu time spent up to now is     3505.9 secs

     End of self-consistent calculation

     Number of k-points >= 100: set verbosity='high' to print the bands.

     the Fermi energy is    19.2986 ev

!    total energy              =  -16384.95803800 Ry
     Harris-Foulkes estimate   =  -16384.95802708 Ry
     estimated scf accuracy    <       0.00000053 Ry

     total all-electron energy =   -322945.811745 Ry

     The total energy is the sum of the following terms:

     one-electron contribution =   -2484.49800185 Ry
     hartree contribution      =    1660.15243218 Ry
     xc contribution           =    -986.52676559 Ry
     ewald contribution        =   -6406.69186870 Ry
     one-center paw contrib.   =   -8167.42671055 Ry
     smearing contrib. (-TS)   =       0.03287652 Ry

     convergence has been achieved in  11 iterations

     Forces acting on atoms (cartesian axes, Ry/au):

     atom    1 type  1   force =     0.00000000    0.00000000    0.00000000
     atom    2 type  1   force =     0.00000399    0.00007759    0.00000234
     atom    3 type  1   force =     0.00000399    0.00000234    0.00007759
     atom    4 type  1   force =     0.00000000    0.00005588    0.00005588
     atom    5 type  1   force =     0.00000000    0.00000000    0.00000000
     atom    6 type  1   force =     0.00005668    0.00009315   -0.00000553
     atom    7 type  1   force =     0.00000399   -0.00000234   -0.00007759
     atom    8 type  1   force =     0.00000000    0.00004889   -0.00004889
     atom    9 type  1   force =     0.00000000    0.00000000    0.00000000
     atom   10 type  1   force =     0.00000399   -0.00007759   -0.00000234
     atom   11 type  1   force =     0.00005668   -0.00000553    0.00009315
     atom   12 type  1   force =     0.00000000   -0.00004889    0.00004889
     atom   13 type  1   force =     0.00000000    0.00000000    0.00000000
     atom   14 type  1   force =     0.00005668   -0.00009315    0.00000553
     atom   15 type  1   force =     0.00005668    0.00000553   -0.00009315
     atom   16 type  1   force =     0.00000000   -0.00005588   -0.00005588
     atom   17 type  1   force =     0.00000000    0.00000000    0.00000000
     atom   18 type  1   force =    -0.00000399    0.00007759    0.00000234
     atom   19 type  1   force =    -0.00000399    0.00000234    0.00007759
     atom   20 type  1   force =     0.00000000    0.00013401    0.00013401
     atom   21 type  1   force =     0.00000000    0.00000000    0.00000000
     atom   22 type  1   force =    -0.00005668    0.00009315   -0.00000553
     atom   23 type  1   force =    -0.00000399   -0.00000234   -0.00007759
     atom   24 type  1   force =     0.00000000    0.00013368   -0.00013368
     atom   25 type  1   force =     0.00000000    0.00000000    0.00000000
     atom   26 type  1   force =    -0.00000399   -0.00007759   -0.00000234
     atom   27 type  1   force =    -0.00005668   -0.00000553    0.00009315
     atom   28 type  1   force =     0.00000000   -0.00013368    0.00013368
     atom   29 type  1   force =     0.00000000    0.00000000    0.00000000
     atom   30 type  1   force =    -0.00005668   -0.00009315    0.00000553
     atom   31 type  1   force =    -0.00005668    0.00000553   -0.00009315
     atom   32 type  1   force =     0.00000000   -0.00013401   -0.00013401

     Total force =     0.000556     Total SCF correction =     0.004762
     SCF correction compared to forces is large: reduce conv_thr to get better values


     Computing stress (Cartesian axis) and pressure

          total   stress  (Ry/bohr**3)                   (kbar)     P=    1.33
   0.00000866   0.00000000   0.00000000          1.27      0.00      0.00
   0.00000000   0.00000921  -0.00002046          0.00      1.35     -3.01
   0.00000000  -0.00002046   0.00000921          0.00     -3.01      1.35


     Writing output data file AdDJADDpKlBvzWDH.save/
-------------------------------------------------------
Primary job  terminated normally, but 1 process returned
a non-zero exit code.. Per user-direction, the job has been aborted.
-------------------------------------------------------
--------------------------------------------------------------------------
mpirun detected that one or more processes exited with non-zero status, thus causing
the job to be terminated. The first process to do so was:

  Process name: [[13536,1],0]
  Exit code:    38
--------------------------------------------------------------------------
