
     Program PWSCF v.6.3 starts on 12Nov2020 at  8:32:43 

     This program is part of the open-source Quantum ESPRESSO suite
     for quantum simulation of materials; please cite
         "P. Giannozzi et al., J. Phys.:Condens. Matter 21 395502 (2009);
         "P. Giannozzi et al., J. Phys.:Condens. Matter 29 465901 (2017);
          URL http://www.quantum-espresso.org", 
     in publications or presentations arising from this work. More details at
     http://www.quantum-espresso.org/quote

     Parallel version (MPI & OpenMP), running on      20 processor cores
     Number of MPI processes:                20
     Threads/MPI process:                     1

     MPI processes distributed on     1 nodes
     R & G space division:  proc/nbgrp/npool/nimage =      20
     Reading input from wd/ec/ec_4_007.in
Warning: card &IONS ignored
Warning: card ION_DYNAMICS = 'BFGS', ignored
Warning: card / ignored
Warning: card &CELL ignored
Warning: card CELL_DYNAMICS = 'BFGS', ignored
Warning: card CELL_FACTOR = 2.0, ignored
Warning: card PRESS = 0.0, ignored
Warning: card / ignored

     Current dimensions of program PWSCF are:
     Max number of different atomic species (ntypx) = 10
     Max number of k-points (npk) =  40000
     Max angular momentum in pseudopotentials (lmaxx) =  3
               file Pd.pbe-spn-kjpaw_psl.1.0.0.UPF: wavefunction(s)  4S 5S 4D renormalized

     Subspace diagonalization in iterative solution of the eigenvalue problem:
     a serial algorithm will be used

 
     Parallelization info
     --------------------
     sticks:   dense  smooth     PW     G-vecs:    dense   smooth      PW
     Min         376     247     67                24600    13197    1874
     Max         377     248     68                24604    13204    1878
     Sum        7521    4957   1353               492025   264047   37533
 


     bravais-lattice index     =            0
     lattice parameter (alat)  =      14.8394  a.u.
     unit-cell volume          =    3267.7646 (a.u.)^3
     number of atoms/cell      =           32
     number of atomic types    =            1
     number of electrons       =       576.00
     number of Kohn-Sham states=          346
     kinetic-energy cutoff     =      71.0000  Ry
     charge density cutoff     =     430.0000  Ry
     convergence threshold     =      1.0E-06
     mixing beta               =       0.1000
     number of iterations used =           10  plain     mixing
     Exchange-correlation      = SLA PW PBX PBC ( 1  4  3  4 0 0)

     celldm(1)=  14.839420  celldm(2)=   0.000000  celldm(3)=   0.000000
     celldm(4)=   0.000000  celldm(5)=   0.000000  celldm(6)=   0.000000

     crystal axes: (cart. coord. in units of alat)
               a(1) = (   1.000008   0.000000   0.000000 )  
               a(2) = (   0.000000   1.000008   0.005000 )  
               a(3) = (   0.000000   0.005000   1.000008 )  

     reciprocal axes: (cart. coord. in units 2 pi/alat)
               b(1) = (  0.999992  0.000000  0.000000 )  
               b(2) = (  0.000000  1.000017 -0.005000 )  
               b(3) = (  0.000000 -0.005000  1.000017 )  


     PseudoPot. # 1 for Pd read from file:
     /rds/homes/b/bxp912/pp/Pd.pbe-spn-kjpaw_psl.1.0.0.UPF
     MD5 check sum: 790f2ebce206edfd9790dcb9844eca51
     Pseudo is Projector augmented-wave + core cor, Zval = 18.0
     Generated using "atomic" code by A. Dal Corso v.6.3
     Shape of augmentation charge: PSQ
     Using radial grid of 1235 points,  6 beta functions with: 
                l(1) =   0
                l(2) =   0
                l(3) =   1
                l(4) =   1
                l(5) =   2
                l(6) =   2
     Q(r) pseudized with 0 coefficients 


     atomic species   valence    mass     pseudopotential
        Pd            18.00   106.42000     Pd( 1.00)

      8 Sym. Ops., with inversion, found



   Cartesian axes

     site n.     atom                  positions (alat units)
         1           Pd  tau(   1) = (   0.0000000   0.0000000   0.0000000  )
         2           Pd  tau(   2) = (   0.2500065   0.2500065   0.0012500  )
         3           Pd  tau(   3) = (   0.2500065   0.0012500   0.2500060  )
         4           Pd  tau(   4) = (   0.0000000   0.2512566   0.2512561  )
         5           Pd  tau(   5) = (   0.0000000   0.0025000   0.5000032  )
         6           Pd  tau(   6) = (   0.2500137   0.2525137   0.5012532  )
         7           Pd  tau(   7) = (   0.2500065   0.0037500   0.7500013  )
         8           Pd  tau(   8) = (   0.0000000   0.2537565   0.7512513  )
         9           Pd  tau(   9) = (   0.0000000   0.5000040   0.0025000  )
        10           Pd  tau(  10) = (   0.2500065   0.7500015   0.0037500  )
        11           Pd  tau(  11) = (   0.2500137   0.5012540   0.2525130  )
        12           Pd  tau(  12) = (   0.0000000   0.7512515   0.2537561  )
        13           Pd  tau(  13) = (   0.0000000   0.5025040   0.5025032  )
        14           Pd  tau(  14) = (   0.2500137   0.7524944   0.5037531  )
        15           Pd  tau(  15) = (   0.2500137   0.5037539   0.7524944  )
        16           Pd  tau(  16) = (   0.0000000   0.7537515   0.7537513  )
        17           Pd  tau(  17) = (   0.5000040   0.0000000   0.0000000  )
        18           Pd  tau(  18) = (   0.7500015   0.2500065   0.0012500  )
        19           Pd  tau(  19) = (   0.7500015   0.0012500   0.2500060  )
        20           Pd  tau(  20) = (   0.5000040   0.2512637   0.2512631  )
        21           Pd  tau(  21) = (   0.5000040   0.0025000   0.5000032  )
        22           Pd  tau(  22) = (   0.7499944   0.2525137   0.5012532  )
        23           Pd  tau(  23) = (   0.7500015   0.0037500   0.7500013  )
        24           Pd  tau(  24) = (   0.5000040   0.2537636   0.7512444  )
        25           Pd  tau(  25) = (   0.5000040   0.5000040   0.0025000  )
        26           Pd  tau(  26) = (   0.7500015   0.7500015   0.0037500  )
        27           Pd  tau(  27) = (   0.7499944   0.5012540   0.2525130  )
        28           Pd  tau(  28) = (   0.5000040   0.7512444   0.2537630  )
        29           Pd  tau(  29) = (   0.5000040   0.5025040   0.5025032  )
        30           Pd  tau(  30) = (   0.7499944   0.7524944   0.5037531  )
        31           Pd  tau(  31) = (   0.7499944   0.5037539   0.7524944  )
        32           Pd  tau(  32) = (   0.5000040   0.7537443   0.7537443  )

     number of k points=   125  Marzari-Vanderbilt smearing, width (Ry)=  0.0400

     Number of k-points >= 100: set verbosity='high' to print them.

     Dense  grid:   492025 G-vectors     FFT dimensions: ( 100, 100, 100)

     Smooth grid:   264047 G-vectors     FFT dimensions: (  80,  80,  80)

     Estimated max dynamical RAM per process >       1.30 GB

     Estimated total dynamical RAM >      25.91 GB

     Check: negative/imaginary core charge=   -0.000002    0.000000

     Initial potential from superposition of free atoms

     starting charge  575.98776, renormalised to  576.00000
     Starting wfcs are  320 randomized atomic wfcs +   26 random wfcs
     Checking if some PAW data can be deallocated... 

     total cpu time spent up to now is       75.0 secs

     Self-consistent Calculation

     iteration #  1     ecut=    71.00 Ry     beta= 0.10
     Davidson diagonalization with overlap
     ethr =  1.00E-02,  avg # of iterations =  3.1

     Threshold (ethr) on eigenvalues was too large:
     Diagonalizing with lowered threshold

     Davidson diagonalization with overlap
     ethr =  8.31E-05,  avg # of iterations =  3.2

     total cpu time spent up to now is      837.3 secs

     total energy              =  -16385.01943290 Ry
     Harris-Foulkes estimate   =  -16385.08678433 Ry
     estimated scf accuracy    <       0.47285062 Ry

     iteration #  2     ecut=    71.00 Ry     beta= 0.10
     Davidson diagonalization with overlap
     ethr =  8.21E-05,  avg # of iterations =  1.0

     total cpu time spent up to now is     1066.2 secs

     total energy              =  -16384.92717326 Ry
     Harris-Foulkes estimate   =  -16385.02710978 Ry
     estimated scf accuracy    <       0.25748434 Ry

     iteration #  3     ecut=    71.00 Ry     beta= 0.10
     Davidson diagonalization with overlap
     ethr =  4.47E-05,  avg # of iterations =  2.1

     total cpu time spent up to now is     1382.9 secs

     total energy              =  -16384.96109458 Ry
     Harris-Foulkes estimate   =  -16384.96546276 Ry
     estimated scf accuracy    <       0.06044405 Ry

     iteration #  4     ecut=    71.00 Ry     beta= 0.10
     Davidson diagonalization with overlap
     ethr =  1.05E-05,  avg # of iterations =  2.0

     total cpu time spent up to now is     1655.9 secs

     total energy              =  -16384.96090707 Ry
     Harris-Foulkes estimate   =  -16384.96325828 Ry
     estimated scf accuracy    <       0.02178433 Ry

     iteration #  5     ecut=    71.00 Ry     beta= 0.10
     Davidson diagonalization with overlap
     ethr =  3.78E-06,  avg # of iterations =  1.2

     total cpu time spent up to now is     1894.3 secs

     total energy              =  -16384.95608805 Ry
     Harris-Foulkes estimate   =  -16384.96110514 Ry
     estimated scf accuracy    <       0.01434609 Ry

     iteration #  6     ecut=    71.00 Ry     beta= 0.10
     Davidson diagonalization with overlap
     ethr =  2.49E-06,  avg # of iterations =  1.0

     total cpu time spent up to now is     2121.5 secs

     total energy              =  -16384.95709690 Ry
     Harris-Foulkes estimate   =  -16384.95713149 Ry
     estimated scf accuracy    <       0.00029743 Ry

     iteration #  7     ecut=    71.00 Ry     beta= 0.10
     Davidson diagonalization with overlap
     ethr =  5.16E-08,  avg # of iterations =  3.0

     total cpu time spent up to now is     2523.8 secs

     total energy              =  -16384.95717742 Ry
     Harris-Foulkes estimate   =  -16384.95719828 Ry
     estimated scf accuracy    <       0.00024595 Ry

     iteration #  8     ecut=    71.00 Ry     beta= 0.10
     Davidson diagonalization with overlap
     ethr =  4.27E-08,  avg # of iterations =  1.2

     total cpu time spent up to now is     2760.4 secs

     total energy              =  -16384.95718242 Ry
     Harris-Foulkes estimate   =  -16384.95718514 Ry
     estimated scf accuracy    <       0.00005278 Ry

     iteration #  9     ecut=    71.00 Ry     beta= 0.10
     Davidson diagonalization with overlap
     ethr =  9.16E-09,  avg # of iterations =  1.0

     total cpu time spent up to now is     2985.2 secs

     total energy              =  -16384.95718214 Ry
     Harris-Foulkes estimate   =  -16384.95718345 Ry
     estimated scf accuracy    <       0.00003537 Ry

     iteration # 10     ecut=    71.00 Ry     beta= 0.10
     Davidson diagonalization with overlap
     ethr =  6.14E-09,  avg # of iterations =  2.0

     total cpu time spent up to now is     3299.3 secs

     total energy              =  -16384.95718905 Ry
     Harris-Foulkes estimate   =  -16384.95718635 Ry
     estimated scf accuracy    <       0.00000344 Ry

     iteration # 11     ecut=    71.00 Ry     beta= 0.10
     Davidson diagonalization with overlap
     ethr =  5.98E-10,  avg # of iterations =  1.0

     total cpu time spent up to now is     3526.0 secs

     End of self-consistent calculation

     Number of k-points >= 100: set verbosity='high' to print the bands.

     the Fermi energy is    19.2986 ev

!    total energy              =  -16384.95719993 Ry
     Harris-Foulkes estimate   =  -16384.95718932 Ry
     estimated scf accuracy    <       0.00000069 Ry

     total all-electron energy =   -322945.810907 Ry

     The total energy is the sum of the following terms:

     one-electron contribution =   -2484.61310877 Ry
     hartree contribution      =    1660.21130130 Ry
     xc contribution           =    -986.52862412 Ry
     ewald contribution        =   -6406.63296742 Ry
     one-center paw contrib.   =   -8167.42690838 Ry
     smearing contrib. (-TS)   =       0.03310746 Ry

     convergence has been achieved in  11 iterations

     Forces acting on atoms (cartesian axes, Ry/au):

     atom    1 type  1   force =     0.00000000    0.00000000    0.00000000
     atom    2 type  1   force =     0.00000332    0.00007757    0.00000199
     atom    3 type  1   force =     0.00000332    0.00000199    0.00007757
     atom    4 type  1   force =     0.00000000    0.00005243    0.00005243
     atom    5 type  1   force =     0.00000000    0.00000000    0.00000000
     atom    6 type  1   force =     0.00005137    0.00008479   -0.00000373
     atom    7 type  1   force =     0.00000332   -0.00000199   -0.00007757
     atom    8 type  1   force =     0.00000000    0.00004594   -0.00004594
     atom    9 type  1   force =     0.00000000    0.00000000    0.00000000
     atom   10 type  1   force =     0.00000332   -0.00007757   -0.00000199
     atom   11 type  1   force =     0.00005137   -0.00000373    0.00008479
     atom   12 type  1   force =     0.00000000   -0.00004594    0.00004594
     atom   13 type  1   force =     0.00000000    0.00000000    0.00000000
     atom   14 type  1   force =     0.00005137   -0.00008479    0.00000373
     atom   15 type  1   force =     0.00005137    0.00000373   -0.00008479
     atom   16 type  1   force =     0.00000000   -0.00005243   -0.00005243
     atom   17 type  1   force =     0.00000000    0.00000000    0.00000000
     atom   18 type  1   force =    -0.00000332    0.00007757    0.00000199
     atom   19 type  1   force =    -0.00000332    0.00000199    0.00007757
     atom   20 type  1   force =     0.00000000    0.00012326    0.00012326
     atom   21 type  1   force =     0.00000000    0.00000000    0.00000000
     atom   22 type  1   force =    -0.00005137    0.00008479   -0.00000373
     atom   23 type  1   force =    -0.00000332   -0.00000199   -0.00007757
     atom   24 type  1   force =     0.00000000    0.00012130   -0.00012130
     atom   25 type  1   force =     0.00000000    0.00000000    0.00000000
     atom   26 type  1   force =    -0.00000332   -0.00007757   -0.00000199
     atom   27 type  1   force =    -0.00005137   -0.00000373    0.00008479
     atom   28 type  1   force =     0.00000000   -0.00012130    0.00012130
     atom   29 type  1   force =     0.00000000    0.00000000    0.00000000
     atom   30 type  1   force =    -0.00005137   -0.00008479    0.00000373
     atom   31 type  1   force =    -0.00005137    0.00000373   -0.00008479
     atom   32 type  1   force =     0.00000000   -0.00012326   -0.00012326

     Total force =     0.000516     Total SCF correction =     0.004528
     SCF correction compared to forces is large: reduce conv_thr to get better values


     Computing stress (Cartesian axis) and pressure

          total   stress  (Ry/bohr**3)                   (kbar)     P=    1.62
   0.00000891   0.00000000   0.00000000          1.31      0.00      0.00
   0.00000000   0.00001202  -0.00006177          0.00      1.77     -9.09
   0.00000000  -0.00006177   0.00001202          0.00     -9.09      1.77


     Writing output data file iFSRwqKtnSzcYeti.save/
-------------------------------------------------------
Primary job  terminated normally, but 1 process returned
a non-zero exit code.. Per user-direction, the job has been aborted.
-------------------------------------------------------
--------------------------------------------------------------------------
mpirun detected that one or more processes exited with non-zero status, thus causing
the job to be terminated. The first process to do so was:

  Process name: [[24112,1],0]
  Exit code:    38
--------------------------------------------------------------------------
