
     Program PWSCF v.6.3 starts on 12Nov2020 at  6:18:20 

     This program is part of the open-source Quantum ESPRESSO suite
     for quantum simulation of materials; please cite
         "P. Giannozzi et al., J. Phys.:Condens. Matter 21 395502 (2009);
         "P. Giannozzi et al., J. Phys.:Condens. Matter 29 465901 (2017);
          URL http://www.quantum-espresso.org", 
     in publications or presentations arising from this work. More details at
     http://www.quantum-espresso.org/quote

     Parallel version (MPI & OpenMP), running on      20 processor cores
     Number of MPI processes:                20
     Threads/MPI process:                     1

     MPI processes distributed on     1 nodes
     R & G space division:  proc/nbgrp/npool/nimage =      20
     Reading input from wd/ec/ec_4_005.in
Warning: card &IONS ignored
Warning: card ION_DYNAMICS = 'BFGS', ignored
Warning: card / ignored
Warning: card &CELL ignored
Warning: card CELL_DYNAMICS = 'BFGS', ignored
Warning: card CELL_FACTOR = 2.0, ignored
Warning: card PRESS = 0.0, ignored
Warning: card / ignored

     Current dimensions of program PWSCF are:
     Max number of different atomic species (ntypx) = 10
     Max number of k-points (npk) =  40000
     Max angular momentum in pseudopotentials (lmaxx) =  3
               file Pd.pbe-spn-kjpaw_psl.1.0.0.UPF: wavefunction(s)  4S 5S 4D renormalized

     Subspace diagonalization in iterative solution of the eigenvalue problem:
     a serial algorithm will be used

 
     Parallelization info
     --------------------
     sticks:   dense  smooth     PW     G-vecs:    dense   smooth      PW
     Min         376     247     67                24597    13196    1872
     Max         377     248     68                24602    13203    1877
     Sum        7521    4957   1353               491961   264027   37505
 


     bravais-lattice index     =            0
     lattice parameter (alat)  =      14.8394  a.u.
     unit-cell volume          =    3267.7646 (a.u.)^3
     number of atoms/cell      =           32
     number of atomic types    =            1
     number of electrons       =       576.00
     number of Kohn-Sham states=          346
     kinetic-energy cutoff     =      71.0000  Ry
     charge density cutoff     =     430.0000  Ry
     convergence threshold     =      1.0E-06
     mixing beta               =       0.1000
     number of iterations used =           10  plain     mixing
     Exchange-correlation      = SLA PW PBX PBC ( 1  4  3  4 0 0)

     celldm(1)=  14.839420  celldm(2)=   0.000000  celldm(3)=   0.000000
     celldm(4)=   0.000000  celldm(5)=   0.000000  celldm(6)=   0.000000

     crystal axes: (cart. coord. in units of alat)
               a(1) = (   1.000004   0.000000   0.000000 )  
               a(2) = (   0.000000   1.000004   0.003333 )  
               a(3) = (   0.000000   0.003333   1.000004 )  

     reciprocal axes: (cart. coord. in units 2 pi/alat)
               b(1) = (  0.999996  0.000000  0.000000 )  
               b(2) = (  0.000000  1.000007 -0.003333 )  
               b(3) = (  0.000000 -0.003333  1.000007 )  


     PseudoPot. # 1 for Pd read from file:
     /rds/homes/b/bxp912/pp/Pd.pbe-spn-kjpaw_psl.1.0.0.UPF
     MD5 check sum: 790f2ebce206edfd9790dcb9844eca51
     Pseudo is Projector augmented-wave + core cor, Zval = 18.0
     Generated using "atomic" code by A. Dal Corso v.6.3
     Shape of augmentation charge: PSQ
     Using radial grid of 1235 points,  6 beta functions with: 
                l(1) =   0
                l(2) =   0
                l(3) =   1
                l(4) =   1
                l(5) =   2
                l(6) =   2
     Q(r) pseudized with 0 coefficients 


     atomic species   valence    mass     pseudopotential
        Pd            18.00   106.42000     Pd( 1.00)

      8 Sym. Ops., with inversion, found



   Cartesian axes

     site n.     atom                  positions (alat units)
         1           Pd  tau(   1) = (   0.0000000   0.0000000   0.0000000  )
         2           Pd  tau(   2) = (   0.2500054   0.2500054   0.0008334  )
         3           Pd  tau(   3) = (   0.2500054   0.0008333   0.2500049  )
         4           Pd  tau(   4) = (   0.0000000   0.2508387   0.2508382  )
         5           Pd  tau(   5) = (   0.0000000   0.0016667   0.5000009  )
         6           Pd  tau(   6) = (   0.2500125   0.2516792   0.5008342  )
         7           Pd  tau(   7) = (   0.2500054   0.0025000   0.7499978  )
         8           Pd  tau(   8) = (   0.0000000   0.2525054   0.7508312  )
         9           Pd  tau(   9) = (   0.0000000   0.5000017   0.0016667  )
        10           Pd  tau(  10) = (   0.2500054   0.7499980   0.0025000  )
        11           Pd  tau(  11) = (   0.2500125   0.5008350   0.2516785  )
        12           Pd  tau(  12) = (   0.0000000   0.7508314   0.2525049  )
        13           Pd  tau(  13) = (   0.0000000   0.5016683   0.5016675  )
        14           Pd  tau(  14) = (   0.2500125   0.7516576   0.5025008  )
        15           Pd  tau(  15) = (   0.2500125   0.5025016   0.7516576  )
        16           Pd  tau(  16) = (   0.0000000   0.7524980   0.7524978  )
        17           Pd  tau(  17) = (   0.5000017   0.0000000   0.0000000  )
        18           Pd  tau(  18) = (   0.7499980   0.2500054   0.0008334  )
        19           Pd  tau(  19) = (   0.7499980   0.0008333   0.2500049  )
        20           Pd  tau(  20) = (   0.5000017   0.2508459   0.2508452  )
        21           Pd  tau(  21) = (   0.5000017   0.0016667   0.5000009  )
        22           Pd  tau(  22) = (   0.7499909   0.2516792   0.5008342  )
        23           Pd  tau(  23) = (   0.7499980   0.0025000   0.7499978  )
        24           Pd  tau(  24) = (   0.5000017   0.2525125   0.7508243  )
        25           Pd  tau(  25) = (   0.5000017   0.5000017   0.0016667  )
        26           Pd  tau(  26) = (   0.7499980   0.7499980   0.0025000  )
        27           Pd  tau(  27) = (   0.7499909   0.5008350   0.2516785  )
        28           Pd  tau(  28) = (   0.5000017   0.7508243   0.2525118  )
        29           Pd  tau(  29) = (   0.5000017   0.5016683   0.5016675  )
        30           Pd  tau(  30) = (   0.7499909   0.7516576   0.5025008  )
        31           Pd  tau(  31) = (   0.7499909   0.5025016   0.7516576  )
        32           Pd  tau(  32) = (   0.5000017   0.7524909   0.7524909  )

     number of k points=   125  Marzari-Vanderbilt smearing, width (Ry)=  0.0400

     Number of k-points >= 100: set verbosity='high' to print them.

     Dense  grid:   491961 G-vectors     FFT dimensions: ( 100, 100, 100)

     Smooth grid:   264027 G-vectors     FFT dimensions: (  80,  80,  80)

     Estimated max dynamical RAM per process >       1.30 GB

     Estimated total dynamical RAM >      25.91 GB

     Check: negative/imaginary core charge=   -0.000002    0.000000

     Initial potential from superposition of free atoms

     starting charge  575.98776, renormalised to  576.00000
     Starting wfcs are  320 randomized atomic wfcs +   26 random wfcs
     Checking if some PAW data can be deallocated... 

     total cpu time spent up to now is       75.3 secs

     Self-consistent Calculation

     iteration #  1     ecut=    71.00 Ry     beta= 0.10
     Davidson diagonalization with overlap
     ethr =  1.00E-02,  avg # of iterations =  3.1

     Threshold (ethr) on eigenvalues was too large:
     Diagonalizing with lowered threshold

     Davidson diagonalization with overlap
     ethr =  8.31E-05,  avg # of iterations =  3.0

     total cpu time spent up to now is      821.3 secs

     total energy              =  -16385.01991143 Ry
     Harris-Foulkes estimate   =  -16385.08724109 Ry
     estimated scf accuracy    <       0.47267110 Ry

     iteration #  2     ecut=    71.00 Ry     beta= 0.10
     Davidson diagonalization with overlap
     ethr =  8.21E-05,  avg # of iterations =  1.0

     total cpu time spent up to now is     1051.9 secs

     total energy              =  -16384.92772405 Ry
     Harris-Foulkes estimate   =  -16385.02759050 Ry
     estimated scf accuracy    <       0.25734379 Ry

     iteration #  3     ecut=    71.00 Ry     beta= 0.10
     Davidson diagonalization with overlap
     ethr =  4.47E-05,  avg # of iterations =  2.2

     total cpu time spent up to now is     1371.6 secs

     total energy              =  -16384.96161117 Ry
     Harris-Foulkes estimate   =  -16384.96598389 Ry
     estimated scf accuracy    <       0.06048874 Ry

     iteration #  4     ecut=    71.00 Ry     beta= 0.10
     Davidson diagonalization with overlap
     ethr =  1.05E-05,  avg # of iterations =  1.9

     total cpu time spent up to now is     1641.7 secs

     total energy              =  -16384.96143095 Ry
     Harris-Foulkes estimate   =  -16384.96377689 Ry
     estimated scf accuracy    <       0.02176556 Ry

     iteration #  5     ecut=    71.00 Ry     beta= 0.10
     Davidson diagonalization with overlap
     ethr =  3.78E-06,  avg # of iterations =  1.2

     total cpu time spent up to now is     1877.7 secs

     total energy              =  -16384.95661384 Ry
     Harris-Foulkes estimate   =  -16384.96162868 Ry
     estimated scf accuracy    <       0.01434106 Ry

     iteration #  6     ecut=    71.00 Ry     beta= 0.10
     Davidson diagonalization with overlap
     ethr =  2.49E-06,  avg # of iterations =  1.0

     total cpu time spent up to now is     2105.0 secs

     total energy              =  -16384.95762116 Ry
     Harris-Foulkes estimate   =  -16384.95765575 Ry
     estimated scf accuracy    <       0.00030002 Ry

     iteration #  7     ecut=    71.00 Ry     beta= 0.10
     Davidson diagonalization with overlap
     ethr =  5.21E-08,  avg # of iterations =  3.0

     total cpu time spent up to now is     2508.3 secs

     total energy              =  -16384.95770192 Ry
     Harris-Foulkes estimate   =  -16384.95772282 Ry
     estimated scf accuracy    <       0.00024602 Ry

     iteration #  8     ecut=    71.00 Ry     beta= 0.10
     Davidson diagonalization with overlap
     ethr =  4.27E-08,  avg # of iterations =  1.2

     total cpu time spent up to now is     2743.5 secs

     total energy              =  -16384.95770708 Ry
     Harris-Foulkes estimate   =  -16384.95770965 Ry
     estimated scf accuracy    <       0.00005222 Ry

     iteration #  9     ecut=    71.00 Ry     beta= 0.10
     Davidson diagonalization with overlap
     ethr =  9.07E-09,  avg # of iterations =  1.0

     total cpu time spent up to now is     2969.6 secs

     total energy              =  -16384.95770685 Ry
     Harris-Foulkes estimate   =  -16384.95770808 Ry
     estimated scf accuracy    <       0.00003517 Ry

     iteration # 10     ecut=    71.00 Ry     beta= 0.10
     Davidson diagonalization with overlap
     ethr =  6.11E-09,  avg # of iterations =  2.0

     total cpu time spent up to now is     3289.8 secs

     total energy              =  -16384.95771377 Ry
     Harris-Foulkes estimate   =  -16384.95771106 Ry
     estimated scf accuracy    <       0.00000333 Ry

     iteration # 11     ecut=    71.00 Ry     beta= 0.10
     Davidson diagonalization with overlap
     ethr =  5.78E-10,  avg # of iterations =  1.1

     total cpu time spent up to now is     3522.7 secs

     End of self-consistent calculation

     Number of k-points >= 100: set verbosity='high' to print the bands.

     the Fermi energy is    19.2986 ev

!    total energy              =  -16384.95772473 Ry
     Harris-Foulkes estimate   =  -16384.95771403 Ry
     estimated scf accuracy    <       0.00000059 Ry

     total all-electron energy =   -322945.811432 Ry

     The total energy is the sum of the following terms:

     one-electron contribution =   -2484.54113175 Ry
     hartree contribution      =    1660.17445909 Ry
     xc contribution           =    -986.52745503 Ry
     ewald contribution        =   -6406.66978181 Ry
     one-center paw contrib.   =   -8167.42677837 Ry
     smearing contrib. (-TS)   =       0.03296314 Ry

     convergence has been achieved in  11 iterations

     Forces acting on atoms (cartesian axes, Ry/au):

     atom    1 type  1   force =     0.00000000    0.00000000    0.00000000
     atom    2 type  1   force =     0.00000389    0.00007738    0.00000241
     atom    3 type  1   force =     0.00000389    0.00000241    0.00007738
     atom    4 type  1   force =     0.00000000    0.00005472    0.00005472
     atom    5 type  1   force =     0.00000000    0.00000000    0.00000000
     atom    6 type  1   force =     0.00005460    0.00009004   -0.00000459
     atom    7 type  1   force =     0.00000389   -0.00000241   -0.00007738
     atom    8 type  1   force =     0.00000000    0.00004787   -0.00004787
     atom    9 type  1   force =     0.00000000    0.00000000    0.00000000
     atom   10 type  1   force =     0.00000389   -0.00007738   -0.00000241
     atom   11 type  1   force =     0.00005460   -0.00000459    0.00009004
     atom   12 type  1   force =     0.00000000   -0.00004787    0.00004787
     atom   13 type  1   force =     0.00000000    0.00000000    0.00000000
     atom   14 type  1   force =     0.00005460   -0.00009004    0.00000459
     atom   15 type  1   force =     0.00005460    0.00000459   -0.00009004
     atom   16 type  1   force =     0.00000000   -0.00005472   -0.00005472
     atom   17 type  1   force =     0.00000000    0.00000000    0.00000000
     atom   18 type  1   force =    -0.00000389    0.00007738    0.00000241
     atom   19 type  1   force =    -0.00000389    0.00000241    0.00007738
     atom   20 type  1   force =     0.00000000    0.00013018    0.00013018
     atom   21 type  1   force =     0.00000000    0.00000000    0.00000000
     atom   22 type  1   force =    -0.00005460    0.00009004   -0.00000459
     atom   23 type  1   force =    -0.00000389   -0.00000241   -0.00007738
     atom   24 type  1   force =     0.00000000    0.00012836   -0.00012836
     atom   25 type  1   force =     0.00000000    0.00000000    0.00000000
     atom   26 type  1   force =    -0.00000389   -0.00007738   -0.00000241
     atom   27 type  1   force =    -0.00005460   -0.00000459    0.00009004
     atom   28 type  1   force =     0.00000000   -0.00012836    0.00012836
     atom   29 type  1   force =     0.00000000    0.00000000    0.00000000
     atom   30 type  1   force =    -0.00005460   -0.00009004    0.00000459
     atom   31 type  1   force =    -0.00005460    0.00000459   -0.00009004
     atom   32 type  1   force =     0.00000000   -0.00013018   -0.00013018

     Total force =     0.000540     Total SCF correction =     0.004677
     SCF correction compared to forces is large: reduce conv_thr to get better values


     Computing stress (Cartesian axis) and pressure

          total   stress  (Ry/bohr**3)                   (kbar)     P=    1.43
   0.00000870   0.00000000   0.00000000          1.28      0.00      0.00
   0.00000000   0.00001023  -0.00004114          0.00      1.50     -6.05
   0.00000000  -0.00004114   0.00001023          0.00     -6.05      1.50


     Writing output data file XepBpYuMmphxTLhm.save/
-------------------------------------------------------
Primary job  terminated normally, but 1 process returned
a non-zero exit code.. Per user-direction, the job has been aborted.
-------------------------------------------------------
--------------------------------------------------------------------------
mpirun detected that one or more processes exited with non-zero status, thus causing
the job to be terminated. The first process to do so was:

  Process name: [[15745,1],0]
  Exit code:    38
--------------------------------------------------------------------------
