
     Program PWSCF v.6.3 starts on 12Nov2020 at 12:59:33 

     This program is part of the open-source Quantum ESPRESSO suite
     for quantum simulation of materials; please cite
         "P. Giannozzi et al., J. Phys.:Condens. Matter 21 395502 (2009);
         "P. Giannozzi et al., J. Phys.:Condens. Matter 29 465901 (2017);
          URL http://www.quantum-espresso.org", 
     in publications or presentations arising from this work. More details at
     http://www.quantum-espresso.org/quote

     Parallel version (MPI & OpenMP), running on      20 processor cores
     Number of MPI processes:                20
     Threads/MPI process:                     1

     MPI processes distributed on     1 nodes
     R & G space division:  proc/nbgrp/npool/nimage =      20
     Reading input from wd/ec/ec_5_005.in
Warning: card &IONS ignored
Warning: card ION_DYNAMICS = 'BFGS', ignored
Warning: card / ignored
Warning: card &CELL ignored
Warning: card CELL_DYNAMICS = 'BFGS', ignored
Warning: card CELL_FACTOR = 2.0, ignored
Warning: card PRESS = 0.0, ignored
Warning: card / ignored

     Current dimensions of program PWSCF are:
     Max number of different atomic species (ntypx) = 10
     Max number of k-points (npk) =  40000
     Max angular momentum in pseudopotentials (lmaxx) =  3
               file Pd.pbe-spn-kjpaw_psl.1.0.0.UPF: wavefunction(s)  4S 5S 4D renormalized

     Subspace diagonalization in iterative solution of the eigenvalue problem:
     a serial algorithm will be used

 
     Parallelization info
     --------------------
     sticks:   dense  smooth     PW     G-vecs:    dense   smooth      PW
     Min         376     247     67                24597    13196    1872
     Max         377     248     68                24602    13203    1877
     Sum        7521    4957   1353               491961   264027   37505
 


     bravais-lattice index     =            0
     lattice parameter (alat)  =      14.8394  a.u.
     unit-cell volume          =    3267.7646 (a.u.)^3
     number of atoms/cell      =           32
     number of atomic types    =            1
     number of electrons       =       576.00
     number of Kohn-Sham states=          346
     kinetic-energy cutoff     =      71.0000  Ry
     charge density cutoff     =     430.0000  Ry
     convergence threshold     =      1.0E-06
     mixing beta               =       0.1000
     number of iterations used =           10  plain     mixing
     Exchange-correlation      = SLA PW PBX PBC ( 1  4  3  4 0 0)

     celldm(1)=  14.839420  celldm(2)=   0.000000  celldm(3)=   0.000000
     celldm(4)=   0.000000  celldm(5)=   0.000000  celldm(6)=   0.000000

     crystal axes: (cart. coord. in units of alat)
               a(1) = (   1.000004   0.000000   0.003333 )  
               a(2) = (   0.000000   1.000004   0.000000 )  
               a(3) = (   0.003333   0.000000   1.000004 )  

     reciprocal axes: (cart. coord. in units 2 pi/alat)
               b(1) = (  1.000007  0.000000 -0.003333 )  
               b(2) = (  0.000000  0.999996  0.000000 )  
               b(3) = ( -0.003333  0.000000  1.000007 )  


     PseudoPot. # 1 for Pd read from file:
     /rds/homes/b/bxp912/pp/Pd.pbe-spn-kjpaw_psl.1.0.0.UPF
     MD5 check sum: 790f2ebce206edfd9790dcb9844eca51
     Pseudo is Projector augmented-wave + core cor, Zval = 18.0
     Generated using "atomic" code by A. Dal Corso v.6.3
     Shape of augmentation charge: PSQ
     Using radial grid of 1235 points,  6 beta functions with: 
                l(1) =   0
                l(2) =   0
                l(3) =   1
                l(4) =   1
                l(5) =   2
                l(6) =   2
     Q(r) pseudized with 0 coefficients 


     atomic species   valence    mass     pseudopotential
        Pd            18.00   106.42000     Pd( 1.00)

      8 Sym. Ops., with inversion, found



   Cartesian axes

     site n.     atom                  positions (alat units)
         1           Pd  tau(   1) = (   0.0000000   0.0000000   0.0000000  )
         2           Pd  tau(   2) = (   0.2500054   0.2500054   0.0008334  )
         3           Pd  tau(   3) = (   0.2508387   0.0000000   0.2508382  )
         4           Pd  tau(   4) = (   0.0008333   0.2500054   0.2500049  )
         5           Pd  tau(   5) = (   0.0016667   0.0000000   0.5000009  )
         6           Pd  tau(   6) = (   0.2516792   0.2500125   0.5008342  )
         7           Pd  tau(   7) = (   0.2525054   0.0000000   0.7508312  )
         8           Pd  tau(   8) = (   0.0025000   0.2500054   0.7499978  )
         9           Pd  tau(   9) = (   0.0000000   0.5000017   0.0000000  )
        10           Pd  tau(  10) = (   0.2500054   0.7499980   0.0008334  )
        11           Pd  tau(  11) = (   0.2508459   0.5000017   0.2508452  )
        12           Pd  tau(  12) = (   0.0008333   0.7499980   0.2500049  )
        13           Pd  tau(  13) = (   0.0016667   0.5000017   0.5000009  )
        14           Pd  tau(  14) = (   0.2516792   0.7499909   0.5008342  )
        15           Pd  tau(  15) = (   0.2525125   0.5000017   0.7508243  )
        16           Pd  tau(  16) = (   0.0025000   0.7499980   0.7499978  )
        17           Pd  tau(  17) = (   0.5000017   0.0000000   0.0016667  )
        18           Pd  tau(  18) = (   0.7499980   0.2500054   0.0025000  )
        19           Pd  tau(  19) = (   0.7508314   0.0000000   0.2525049  )
        20           Pd  tau(  20) = (   0.5008350   0.2500125   0.2516785  )
        21           Pd  tau(  21) = (   0.5016683   0.0000000   0.5016675  )
        22           Pd  tau(  22) = (   0.7516576   0.2500125   0.5025008  )
        23           Pd  tau(  23) = (   0.7524980   0.0000000   0.7524978  )
        24           Pd  tau(  24) = (   0.5025016   0.2500125   0.7516576  )
        25           Pd  tau(  25) = (   0.5000017   0.5000017   0.0016667  )
        26           Pd  tau(  26) = (   0.7499980   0.7499980   0.0025000  )
        27           Pd  tau(  27) = (   0.7508243   0.5000017   0.2525118  )
        28           Pd  tau(  28) = (   0.5008350   0.7499909   0.2516785  )
        29           Pd  tau(  29) = (   0.5016683   0.5000017   0.5016675  )
        30           Pd  tau(  30) = (   0.7516576   0.7499909   0.5025008  )
        31           Pd  tau(  31) = (   0.7524909   0.5000017   0.7524909  )
        32           Pd  tau(  32) = (   0.5025016   0.7499909   0.7516576  )

     number of k points=   125  Marzari-Vanderbilt smearing, width (Ry)=  0.0400

     Number of k-points >= 100: set verbosity='high' to print them.

     Dense  grid:   491961 G-vectors     FFT dimensions: ( 100, 100, 100)

     Smooth grid:   264027 G-vectors     FFT dimensions: (  80,  80,  80)

     Estimated max dynamical RAM per process >       1.30 GB

     Estimated total dynamical RAM >      25.91 GB

     Check: negative/imaginary core charge=   -0.000002    0.000000

     Initial potential from superposition of free atoms

     starting charge  575.98776, renormalised to  576.00000
     Starting wfcs are  320 randomized atomic wfcs +   26 random wfcs
     Checking if some PAW data can be deallocated... 

     total cpu time spent up to now is       74.4 secs

     Self-consistent Calculation

     iteration #  1     ecut=    71.00 Ry     beta= 0.10
     Davidson diagonalization with overlap
     ethr =  1.00E-02,  avg # of iterations =  3.1

     Threshold (ethr) on eigenvalues was too large:
     Diagonalizing with lowered threshold

     Davidson diagonalization with overlap
     ethr =  8.31E-05,  avg # of iterations =  3.1

     total cpu time spent up to now is      823.6 secs

     total energy              =  -16385.01981413 Ry
     Harris-Foulkes estimate   =  -16385.08722413 Ry
     estimated scf accuracy    <       0.47309841 Ry

     iteration #  2     ecut=    71.00 Ry     beta= 0.10
     Davidson diagonalization with overlap
     ethr =  8.21E-05,  avg # of iterations =  1.0

     total cpu time spent up to now is     1050.9 secs

     total energy              =  -16384.93103228 Ry
     Harris-Foulkes estimate   =  -16385.02758061 Ry
     estimated scf accuracy    <       0.25803955 Ry

     iteration #  3     ecut=    71.00 Ry     beta= 0.10
     Davidson diagonalization with overlap
     ethr =  4.48E-05,  avg # of iterations =  2.1

     total cpu time spent up to now is     1362.1 secs

     total energy              =  -16384.96023826 Ry
     Harris-Foulkes estimate   =  -16384.96745682 Ry
     estimated scf accuracy    <       0.08947712 Ry

     iteration #  4     ecut=    71.00 Ry     beta= 0.10
     Davidson diagonalization with overlap
     ethr =  1.55E-05,  avg # of iterations =  1.5

     total cpu time spent up to now is     1612.1 secs

     total energy              =  -16384.96176852 Ry
     Harris-Foulkes estimate   =  -16384.96379309 Ry
     estimated scf accuracy    <       0.02203804 Ry

     iteration #  5     ecut=    71.00 Ry     beta= 0.10
     Davidson diagonalization with overlap
     ethr =  3.83E-06,  avg # of iterations =  1.5

     total cpu time spent up to now is     1863.4 secs

     total energy              =  -16384.95653381 Ry
     Harris-Foulkes estimate   =  -16384.96196202 Ry
     estimated scf accuracy    <       0.01531731 Ry

     iteration #  6     ecut=    71.00 Ry     beta= 0.10
     Davidson diagonalization with overlap
     ethr =  2.66E-06,  avg # of iterations =  1.1

     total cpu time spent up to now is     2097.3 secs

     total energy              =  -16384.95761184 Ry
     Harris-Foulkes estimate   =  -16384.95768619 Ry
     estimated scf accuracy    <       0.00087827 Ry

     iteration #  7     ecut=    71.00 Ry     beta= 0.10
     Davidson diagonalization with overlap
     ethr =  1.52E-07,  avg # of iterations =  3.0

     total cpu time spent up to now is     2449.8 secs

     total energy              =  -16384.95771041 Ry
     Harris-Foulkes estimate   =  -16384.95773964 Ry
     estimated scf accuracy    <       0.00017019 Ry

     iteration #  8     ecut=    71.00 Ry     beta= 0.10
     Davidson diagonalization with overlap
     ethr =  2.95E-08,  avg # of iterations =  1.2

     total cpu time spent up to now is     2688.4 secs

     total energy              =  -16384.95770910 Ry
     Harris-Foulkes estimate   =  -16384.95771532 Ry
     estimated scf accuracy    <       0.00005692 Ry

     iteration #  9     ecut=    71.00 Ry     beta= 0.10
     Davidson diagonalization with overlap
     ethr =  9.88E-09,  avg # of iterations =  1.0

     total cpu time spent up to now is     2918.4 secs

     total energy              =  -16384.95770697 Ry
     Harris-Foulkes estimate   =  -16384.95771002 Ry
     estimated scf accuracy    <       0.00004105 Ry

     iteration # 10     ecut=    71.00 Ry     beta= 0.10
     Davidson diagonalization with overlap
     ethr =  7.13E-09,  avg # of iterations =  2.0

     total cpu time spent up to now is     3204.6 secs

     total energy              =  -16384.95771351 Ry
     Harris-Foulkes estimate   =  -16384.95771009 Ry
     estimated scf accuracy    <       0.00000427 Ry

     iteration # 11     ecut=    71.00 Ry     beta= 0.10
     Davidson diagonalization with overlap
     ethr =  7.42E-10,  avg # of iterations =  2.0

     total cpu time spent up to now is     3515.8 secs

     End of self-consistent calculation

     Number of k-points >= 100: set verbosity='high' to print the bands.

     the Fermi energy is    19.2985 ev

!    total energy              =  -16384.95772473 Ry
     Harris-Foulkes estimate   =  -16384.95771396 Ry
     estimated scf accuracy    <       0.00000060 Ry

     total all-electron energy =   -322945.811432 Ry

     The total energy is the sum of the following terms:

     one-electron contribution =   -2484.55185572 Ry
     hartree contribution      =    1660.18784235 Ry
     xc contribution           =    -986.52960493 Ry
     ewald contribution        =   -6406.66978181 Ry
     one-center paw contrib.   =   -8167.42729242 Ry
     smearing contrib. (-TS)   =       0.03296779 Ry

     convergence has been achieved in  11 iterations

     Forces acting on atoms (cartesian axes, Ry/au):

     atom    1 type  1   force =     0.00000000    0.00000000    0.00000000
     atom    2 type  1   force =    -0.00000759    0.00008781    0.00000183
     atom    3 type  1   force =     0.00001816    0.00000000    0.00001816
     atom    4 type  1   force =     0.00000183    0.00008781   -0.00000759
     atom    5 type  1   force =     0.00000000    0.00000000    0.00000000
     atom    6 type  1   force =     0.00001080    0.00014634    0.00002373
     atom    7 type  1   force =     0.00001240    0.00000000   -0.00001240
     atom    8 type  1   force =    -0.00000183    0.00008781    0.00000759
     atom    9 type  1   force =     0.00000000    0.00000000    0.00000000
     atom   10 type  1   force =    -0.00000759   -0.00008781    0.00000183
     atom   11 type  1   force =    -0.00001304    0.00000000   -0.00001304
     atom   12 type  1   force =     0.00000183   -0.00008781   -0.00000759
     atom   13 type  1   force =     0.00000000    0.00000000    0.00000000
     atom   14 type  1   force =     0.00001080   -0.00014634    0.00002373
     atom   15 type  1   force =    -0.00002495    0.00000000    0.00002495
     atom   16 type  1   force =    -0.00000183   -0.00008781    0.00000759
     atom   17 type  1   force =     0.00000000    0.00000000    0.00000000
     atom   18 type  1   force =     0.00000759    0.00008781   -0.00000183
     atom   19 type  1   force =    -0.00001240    0.00000000    0.00001240
     atom   20 type  1   force =     0.00002373    0.00014634    0.00001080
     atom   21 type  1   force =     0.00000000    0.00000000    0.00000000
     atom   22 type  1   force =    -0.00001080    0.00014634   -0.00002373
     atom   23 type  1   force =    -0.00001816    0.00000000   -0.00001816
     atom   24 type  1   force =    -0.00002373    0.00014634   -0.00001080
     atom   25 type  1   force =     0.00000000    0.00000000    0.00000000
     atom   26 type  1   force =     0.00000759   -0.00008781   -0.00000183
     atom   27 type  1   force =     0.00002495    0.00000000   -0.00002495
     atom   28 type  1   force =     0.00002373   -0.00014634    0.00001080
     atom   29 type  1   force =     0.00000000    0.00000000    0.00000000
     atom   30 type  1   force =    -0.00001080   -0.00014634   -0.00002373
     atom   31 type  1   force =     0.00001304    0.00000000    0.00001304
     atom   32 type  1   force =    -0.00002373   -0.00014634   -0.00001080

     Total force =     0.000494     Total SCF correction =     0.005408
     SCF correction compared to forces is large: reduce conv_thr to get better values


     Computing stress (Cartesian axis) and pressure

          total   stress  (Ry/bohr**3)                   (kbar)     P=    1.95
   0.00001359   0.00000000  -0.00004140          2.00      0.00     -6.09
   0.00000000   0.00001259   0.00000000          0.00      1.85      0.00
  -0.00004140   0.00000000   0.00001359         -6.09      0.00      2.00


     Writing output data file kyJVXcLLgOocvLBm.save/
-------------------------------------------------------
Primary job  terminated normally, but 1 process returned
a non-zero exit code.. Per user-direction, the job has been aborted.
-------------------------------------------------------
--------------------------------------------------------------------------
mpirun detected that one or more processes exited with non-zero status, thus causing
the job to be terminated. The first process to do so was:

  Process name: [[43741,1],0]
  Exit code:    38
--------------------------------------------------------------------------
