
     Program PWSCF v.6.3 starts on 12Nov2020 at 14: 6:57 

     This program is part of the open-source Quantum ESPRESSO suite
     for quantum simulation of materials; please cite
         "P. Giannozzi et al., J. Phys.:Condens. Matter 21 395502 (2009);
         "P. Giannozzi et al., J. Phys.:Condens. Matter 29 465901 (2017);
          URL http://www.quantum-espresso.org", 
     in publications or presentations arising from this work. More details at
     http://www.quantum-espresso.org/quote

     Parallel version (MPI & OpenMP), running on      20 processor cores
     Number of MPI processes:                20
     Threads/MPI process:                     1

     MPI processes distributed on     1 nodes
     R & G space division:  proc/nbgrp/npool/nimage =      20
     Reading input from wd/ec/ec_5_006.in
Warning: card &IONS ignored
Warning: card ION_DYNAMICS = 'BFGS', ignored
Warning: card / ignored
Warning: card &CELL ignored
Warning: card CELL_DYNAMICS = 'BFGS', ignored
Warning: card CELL_FACTOR = 2.0, ignored
Warning: card PRESS = 0.0, ignored
Warning: card / ignored

     Current dimensions of program PWSCF are:
     Max number of different atomic species (ntypx) = 10
     Max number of k-points (npk) =  40000
     Max angular momentum in pseudopotentials (lmaxx) =  3
               file Pd.pbe-spn-kjpaw_psl.1.0.0.UPF: wavefunction(s)  4S 5S 4D renormalized

     Subspace diagonalization in iterative solution of the eigenvalue problem:
     a serial algorithm will be used

 
     Parallelization info
     --------------------
     sticks:   dense  smooth     PW     G-vecs:    dense   smooth      PW
     Min         376     247     67                24598    13199    1873
     Max         377     248     68                24603    13206    1878
     Sum        7521    4957   1353               491977   264083   37517
 


     bravais-lattice index     =            0
     lattice parameter (alat)  =      14.8394  a.u.
     unit-cell volume          =    3267.7646 (a.u.)^3
     number of atoms/cell      =           32
     number of atomic types    =            1
     number of electrons       =       576.00
     number of Kohn-Sham states=          346
     kinetic-energy cutoff     =      71.0000  Ry
     charge density cutoff     =     430.0000  Ry
     convergence threshold     =      1.0E-06
     mixing beta               =       0.1000
     number of iterations used =           10  plain     mixing
     Exchange-correlation      = SLA PW PBX PBC ( 1  4  3  4 0 0)

     celldm(1)=  14.839420  celldm(2)=   0.000000  celldm(3)=   0.000000
     celldm(4)=   0.000000  celldm(5)=   0.000000  celldm(6)=   0.000000

     crystal axes: (cart. coord. in units of alat)
               a(1) = (   1.000006   0.000000   0.004167 )  
               a(2) = (   0.000000   1.000006   0.000000 )  
               a(3) = (   0.004167   0.000000   1.000006 )  

     reciprocal axes: (cart. coord. in units 2 pi/alat)
               b(1) = (  1.000012  0.000000 -0.004167 )  
               b(2) = (  0.000000  0.999994  0.000000 )  
               b(3) = ( -0.004167  0.000000  1.000012 )  


     PseudoPot. # 1 for Pd read from file:
     /rds/homes/b/bxp912/pp/Pd.pbe-spn-kjpaw_psl.1.0.0.UPF
     MD5 check sum: 790f2ebce206edfd9790dcb9844eca51
     Pseudo is Projector augmented-wave + core cor, Zval = 18.0
     Generated using "atomic" code by A. Dal Corso v.6.3
     Shape of augmentation charge: PSQ
     Using radial grid of 1235 points,  6 beta functions with: 
                l(1) =   0
                l(2) =   0
                l(3) =   1
                l(4) =   1
                l(5) =   2
                l(6) =   2
     Q(r) pseudized with 0 coefficients 


     atomic species   valence    mass     pseudopotential
        Pd            18.00   106.42000     Pd( 1.00)

      8 Sym. Ops., with inversion, found



   Cartesian axes

     site n.     atom                  positions (alat units)
         1           Pd  tau(   1) = (   0.0000000   0.0000000   0.0000000  )
         2           Pd  tau(   2) = (   0.2500059   0.2500059   0.0010417  )
         3           Pd  tau(   3) = (   0.2510476   0.0000000   0.2510471  )
         4           Pd  tau(   4) = (   0.0010417   0.2500059   0.2500054  )
         5           Pd  tau(   5) = (   0.0020833   0.0000000   0.5000019  )
         6           Pd  tau(   6) = (   0.2520964   0.2500130   0.5010436  )
         7           Pd  tau(   7) = (   0.2531309   0.0000000   0.7510411  )
         8           Pd  tau(   8) = (   0.0031250   0.2500059   0.7499994  )
         9           Pd  tau(   9) = (   0.0000000   0.5000027   0.0000000  )
        10           Pd  tau(  10) = (   0.2500059   0.7499996   0.0010417  )
        11           Pd  tau(  11) = (   0.2510548   0.5000027   0.2510541  )
        12           Pd  tau(  12) = (   0.0010417   0.7499996   0.2500054  )
        13           Pd  tau(  13) = (   0.0020833   0.5000027   0.5000019  )
        14           Pd  tau(  14) = (   0.2520964   0.7499924   0.5010436  )
        15           Pd  tau(  15) = (   0.2531380   0.5000027   0.7510342  )
        16           Pd  tau(  16) = (   0.0031250   0.7499996   0.7499994  )
        17           Pd  tau(  17) = (   0.5000027   0.0000000   0.0020833  )
        18           Pd  tau(  18) = (   0.7499996   0.2500059   0.0031250  )
        19           Pd  tau(  19) = (   0.7510413   0.0000000   0.2531304  )
        20           Pd  tau(  20) = (   0.5010444   0.2500130   0.2520957  )
        21           Pd  tau(  21) = (   0.5020860   0.0000000   0.5020852  )
        22           Pd  tau(  22) = (   0.7520758   0.2500130   0.5031269  )
        23           Pd  tau(  23) = (   0.7531246   0.0000000   0.7531244  )
        24           Pd  tau(  24) = (   0.5031277   0.2500130   0.7520758  )
        25           Pd  tau(  25) = (   0.5000027   0.5000027   0.0020833  )
        26           Pd  tau(  26) = (   0.7499996   0.7499996   0.0031250  )
        27           Pd  tau(  27) = (   0.7510342   0.5000027   0.2531373  )
        28           Pd  tau(  28) = (   0.5010444   0.7499924   0.2520957  )
        29           Pd  tau(  29) = (   0.5020860   0.5000027   0.5020852  )
        30           Pd  tau(  30) = (   0.7520758   0.7499924   0.5031269  )
        31           Pd  tau(  31) = (   0.7531174   0.5000027   0.7531174  )
        32           Pd  tau(  32) = (   0.5031277   0.7499924   0.7520758  )

     number of k points=   125  Marzari-Vanderbilt smearing, width (Ry)=  0.0400

     Number of k-points >= 100: set verbosity='high' to print them.

     Dense  grid:   491977 G-vectors     FFT dimensions: ( 100, 100, 100)

     Smooth grid:   264083 G-vectors     FFT dimensions: (  80,  80,  80)

     Estimated max dynamical RAM per process >       1.30 GB

     Estimated total dynamical RAM >      25.91 GB

     Check: negative/imaginary core charge=   -0.000002    0.000000

     Initial potential from superposition of free atoms

     starting charge  575.98776, renormalised to  576.00000
     Starting wfcs are  320 randomized atomic wfcs +   26 random wfcs
     Checking if some PAW data can be deallocated... 

     total cpu time spent up to now is       76.3 secs

     Self-consistent Calculation

     iteration #  1     ecut=    71.00 Ry     beta= 0.10
     Davidson diagonalization with overlap
     ethr =  1.00E-02,  avg # of iterations =  3.1

     Threshold (ethr) on eigenvalues was too large:
     Diagonalizing with lowered threshold

     Davidson diagonalization with overlap
     ethr =  8.31E-05,  avg # of iterations =  3.1

     total cpu time spent up to now is      836.3 secs

     total energy              =  -16385.01958686 Ry
     Harris-Foulkes estimate   =  -16385.08701228 Ry
     estimated scf accuracy    <       0.47321229 Ry

     iteration #  2     ecut=    71.00 Ry     beta= 0.10
     Davidson diagonalization with overlap
     ethr =  8.22E-05,  avg # of iterations =  1.1

     total cpu time spent up to now is     1069.4 secs

     total energy              =  -16384.93079509 Ry
     Harris-Foulkes estimate   =  -16385.02736059 Ry
     estimated scf accuracy    <       0.25809912 Ry

     iteration #  3     ecut=    71.00 Ry     beta= 0.10
     Davidson diagonalization with overlap
     ethr =  4.48E-05,  avg # of iterations =  2.1

     total cpu time spent up to now is     1381.8 secs

     total energy              =  -16384.96000405 Ry
     Harris-Foulkes estimate   =  -16384.96722530 Ry
     estimated scf accuracy    <       0.08949729 Ry

     iteration #  4     ecut=    71.00 Ry     beta= 0.10
     Davidson diagonalization with overlap
     ethr =  1.55E-05,  avg # of iterations =  1.7

     total cpu time spent up to now is     1645.5 secs

     total energy              =  -16384.96153491 Ry
     Harris-Foulkes estimate   =  -16384.96356046 Ry
     estimated scf accuracy    <       0.02204968 Ry

     iteration #  5     ecut=    71.00 Ry     beta= 0.10
     Davidson diagonalization with overlap
     ethr =  3.83E-06,  avg # of iterations =  1.3

     total cpu time spent up to now is     1888.0 secs

     total energy              =  -16384.95629752 Ry
     Harris-Foulkes estimate   =  -16384.96172885 Ry
     estimated scf accuracy    <       0.01532637 Ry

     iteration #  6     ecut=    71.00 Ry     beta= 0.10
     Davidson diagonalization with overlap
     ethr =  2.66E-06,  avg # of iterations =  1.1

     total cpu time spent up to now is     2121.1 secs

     total energy              =  -16384.95737610 Ry
     Harris-Foulkes estimate   =  -16384.95745049 Ry
     estimated scf accuracy    <       0.00087892 Ry

     iteration #  7     ecut=    71.00 Ry     beta= 0.10
     Davidson diagonalization with overlap
     ethr =  1.53E-07,  avg # of iterations =  3.1

     total cpu time spent up to now is     2477.5 secs

     total energy              =  -16384.95747468 Ry
     Harris-Foulkes estimate   =  -16384.95750398 Ry
     estimated scf accuracy    <       0.00017086 Ry

     iteration #  8     ecut=    71.00 Ry     beta= 0.10
     Davidson diagonalization with overlap
     ethr =  2.97E-08,  avg # of iterations =  1.1

     total cpu time spent up to now is     2710.3 secs

     total energy              =  -16384.95747334 Ry
     Harris-Foulkes estimate   =  -16384.95747960 Ry
     estimated scf accuracy    <       0.00005721 Ry

     iteration #  9     ecut=    71.00 Ry     beta= 0.10
     Davidson diagonalization with overlap
     ethr =  9.93E-09,  avg # of iterations =  1.0

     total cpu time spent up to now is     2937.7 secs

     total energy              =  -16384.95747118 Ry
     Harris-Foulkes estimate   =  -16384.95747426 Ry
     estimated scf accuracy    <       0.00004123 Ry

     iteration # 10     ecut=    71.00 Ry     beta= 0.10
     Davidson diagonalization with overlap
     ethr =  7.16E-09,  avg # of iterations =  2.0

     total cpu time spent up to now is     3221.5 secs

     total energy              =  -16384.95747771 Ry
     Harris-Foulkes estimate   =  -16384.95747429 Ry
     estimated scf accuracy    <       0.00000446 Ry

     iteration # 11     ecut=    71.00 Ry     beta= 0.10
     Davidson diagonalization with overlap
     ethr =  7.75E-10,  avg # of iterations =  2.0

     total cpu time spent up to now is     3526.9 secs

     End of self-consistent calculation

     Number of k-points >= 100: set verbosity='high' to print the bands.

     the Fermi energy is    19.2985 ev

!    total energy              =  -16384.95748892 Ry
     Harris-Foulkes estimate   =  -16384.95747817 Ry
     estimated scf accuracy    <       0.00000066 Ry

     total all-electron energy =   -322945.811196 Ry

     The total energy is the sum of the following terms:

     one-electron contribution =   -2484.58414853 Ry
     hartree contribution      =    1660.20431657 Ry
     xc contribution           =    -986.53011537 Ry
     ewald contribution        =   -6406.65321579 Ry
     one-center paw contrib.   =   -8167.42735846 Ry
     smearing contrib. (-TS)   =       0.03303266 Ry

     convergence has been achieved in  11 iterations

     Forces acting on atoms (cartesian axes, Ry/au):

     atom    1 type  1   force =     0.00000000    0.00000000    0.00000000
     atom    2 type  1   force =    -0.00000877    0.00008485    0.00000320
     atom    3 type  1   force =     0.00001850    0.00000000    0.00001850
     atom    4 type  1   force =     0.00000320    0.00008485   -0.00000877
     atom    5 type  1   force =     0.00000000    0.00000000    0.00000000
     atom    6 type  1   force =     0.00001080    0.00013951    0.00002211
     atom    7 type  1   force =     0.00001264    0.00000000   -0.00001264
     atom    8 type  1   force =    -0.00000320    0.00008485    0.00000877
     atom    9 type  1   force =     0.00000000    0.00000000    0.00000000
     atom   10 type  1   force =    -0.00000877   -0.00008485    0.00000320
     atom   11 type  1   force =    -0.00001307    0.00000000   -0.00001307
     atom   12 type  1   force =     0.00000320   -0.00008485   -0.00000877
     atom   13 type  1   force =     0.00000000    0.00000000    0.00000000
     atom   14 type  1   force =     0.00001080   -0.00013951    0.00002211
     atom   15 type  1   force =    -0.00002584    0.00000000    0.00002584
     atom   16 type  1   force =    -0.00000320   -0.00008485    0.00000877
     atom   17 type  1   force =     0.00000000    0.00000000    0.00000000
     atom   18 type  1   force =     0.00000877    0.00008485   -0.00000320
     atom   19 type  1   force =    -0.00001264    0.00000000    0.00001264
     atom   20 type  1   force =     0.00002211    0.00013951    0.00001080
     atom   21 type  1   force =     0.00000000    0.00000000    0.00000000
     atom   22 type  1   force =    -0.00001080    0.00013951   -0.00002211
     atom   23 type  1   force =    -0.00001850    0.00000000   -0.00001850
     atom   24 type  1   force =    -0.00002211    0.00013951   -0.00001080
     atom   25 type  1   force =     0.00000000    0.00000000    0.00000000
     atom   26 type  1   force =     0.00000877   -0.00008485   -0.00000320
     atom   27 type  1   force =     0.00002584    0.00000000   -0.00002584
     atom   28 type  1   force =     0.00002211   -0.00013951    0.00001080
     atom   29 type  1   force =     0.00000000    0.00000000    0.00000000
     atom   30 type  1   force =    -0.00001080   -0.00013951   -0.00002211
     atom   31 type  1   force =     0.00001307    0.00000000    0.00001307
     atom   32 type  1   force =    -0.00002211   -0.00013951   -0.00001080

     Total force =     0.000474     Total SCF correction =     0.005319
     SCF correction compared to forces is large: reduce conv_thr to get better values


     Computing stress (Cartesian axis) and pressure

          total   stress  (Ry/bohr**3)                   (kbar)     P=    2.04
   0.00001442   0.00000000  -0.00005167          2.12      0.00     -7.60
   0.00000000   0.00001268   0.00000000          0.00      1.87      0.00
  -0.00005167   0.00000000   0.00001442         -7.60      0.00      2.12


     Writing output data file WkVagQtlXiiXBpfh.save/
-------------------------------------------------------
Primary job  terminated normally, but 1 process returned
a non-zero exit code.. Per user-direction, the job has been aborted.
-------------------------------------------------------
--------------------------------------------------------------------------
mpirun detected that one or more processes exited with non-zero status, thus causing
the job to be terminated. The first process to do so was:

  Process name: [[23642,1],0]
  Exit code:    38
--------------------------------------------------------------------------
