
     Program PWSCF v.6.3 starts on 12Nov2020 at  9:39:47 

     This program is part of the open-source Quantum ESPRESSO suite
     for quantum simulation of materials; please cite
         "P. Giannozzi et al., J. Phys.:Condens. Matter 21 395502 (2009);
         "P. Giannozzi et al., J. Phys.:Condens. Matter 29 465901 (2017);
          URL http://www.quantum-espresso.org", 
     in publications or presentations arising from this work. More details at
     http://www.quantum-espresso.org/quote

     Parallel version (MPI & OpenMP), running on      20 processor cores
     Number of MPI processes:                20
     Threads/MPI process:                     1

     MPI processes distributed on     1 nodes
     R & G space division:  proc/nbgrp/npool/nimage =      20
     Reading input from wd/ec/ec_5_002.in
Warning: card &IONS ignored
Warning: card ION_DYNAMICS = 'BFGS', ignored
Warning: card / ignored
Warning: card &CELL ignored
Warning: card CELL_DYNAMICS = 'BFGS', ignored
Warning: card CELL_FACTOR = 2.0, ignored
Warning: card PRESS = 0.0, ignored
Warning: card / ignored

     Current dimensions of program PWSCF are:
     Max number of different atomic species (ntypx) = 10
     Max number of k-points (npk) =  40000
     Max angular momentum in pseudopotentials (lmaxx) =  3
               file Pd.pbe-spn-kjpaw_psl.1.0.0.UPF: wavefunction(s)  4S 5S 4D renormalized

     Subspace diagonalization in iterative solution of the eigenvalue problem:
     a serial algorithm will be used

 
     Parallelization info
     --------------------
     sticks:   dense  smooth     PW     G-vecs:    dense   smooth      PW
     Min         376     247     67                24597    13194    1873
     Max         377     248     68                24602    13200    1878
     Sum        7521    4957   1353               491969   263967   37529
 


     bravais-lattice index     =            0
     lattice parameter (alat)  =      14.8394  a.u.
     unit-cell volume          =    3267.7646 (a.u.)^3
     number of atoms/cell      =           32
     number of atomic types    =            1
     number of electrons       =       576.00
     number of Kohn-Sham states=          346
     kinetic-energy cutoff     =      71.0000  Ry
     charge density cutoff     =     430.0000  Ry
     convergence threshold     =      1.0E-06
     mixing beta               =       0.1000
     number of iterations used =           10  plain     mixing
     Exchange-correlation      = SLA PW PBX PBC ( 1  4  3  4 0 0)

     celldm(1)=  14.839420  celldm(2)=   0.000000  celldm(3)=   0.000000
     celldm(4)=   0.000000  celldm(5)=   0.000000  celldm(6)=   0.000000

     crystal axes: (cart. coord. in units of alat)
               a(1) = (   1.000000   0.000000   0.000833 )  
               a(2) = (   0.000000   1.000000   0.000000 )  
               a(3) = (   0.000833   0.000000   1.000000 )  

     reciprocal axes: (cart. coord. in units 2 pi/alat)
               b(1) = (  1.000000  0.000000 -0.000833 )  
               b(2) = (  0.000000  1.000000  0.000000 )  
               b(3) = ( -0.000833  0.000000  1.000000 )  


     PseudoPot. # 1 for Pd read from file:
     /rds/homes/b/bxp912/pp/Pd.pbe-spn-kjpaw_psl.1.0.0.UPF
     MD5 check sum: 790f2ebce206edfd9790dcb9844eca51
     Pseudo is Projector augmented-wave + core cor, Zval = 18.0
     Generated using "atomic" code by A. Dal Corso v.6.3
     Shape of augmentation charge: PSQ
     Using radial grid of 1235 points,  6 beta functions with: 
                l(1) =   0
                l(2) =   0
                l(3) =   1
                l(4) =   1
                l(5) =   2
                l(6) =   2
     Q(r) pseudized with 0 coefficients 


     atomic species   valence    mass     pseudopotential
        Pd            18.00   106.42000     Pd( 1.00)

      8 Sym. Ops., with inversion, found



   Cartesian axes

     site n.     atom                  positions (alat units)
         1           Pd  tau(   1) = (   0.0000000   0.0000000   0.0000000  )
         2           Pd  tau(   2) = (   0.2500045   0.2500045   0.0002083  )
         3           Pd  tau(   3) = (   0.2502129   0.0000000   0.2502124  )
         4           Pd  tau(   4) = (   0.0002083   0.2500045   0.2500040  )
         5           Pd  tau(   5) = (   0.0004167   0.0000000   0.4999991  )
         6           Pd  tau(   6) = (   0.2504283   0.2500117   0.5002075  )
         7           Pd  tau(   7) = (   0.2506295   0.0000000   0.7502036  )
         8           Pd  tau(   8) = (   0.0006250   0.2500045   0.7499952  )
         9           Pd  tau(   9) = (   0.0000000   0.4999999   0.0000000  )
        10           Pd  tau(  10) = (   0.2500045   0.7499954   0.0002083  )
        11           Pd  tau(  11) = (   0.2502200   0.4999999   0.2502193  )
        12           Pd  tau(  12) = (   0.0002083   0.7499954   0.2500040  )
        13           Pd  tau(  13) = (   0.0004167   0.4999999   0.4999991  )
        14           Pd  tau(  14) = (   0.2504283   0.7499883   0.5002075  )
        15           Pd  tau(  15) = (   0.2506366   0.4999999   0.7501966  )
        16           Pd  tau(  16) = (   0.0006250   0.7499954   0.7499952  )
        17           Pd  tau(  17) = (   0.4999999   0.0000000   0.0004167  )
        18           Pd  tau(  18) = (   0.7499954   0.2500045   0.0006250  )
        19           Pd  tau(  19) = (   0.7502038   0.0000000   0.2506290  )
        20           Pd  tau(  20) = (   0.5002083   0.2500117   0.2504276  )
        21           Pd  tau(  21) = (   0.5004166   0.0000000   0.5004158  )
        22           Pd  tau(  22) = (   0.7504049   0.2500117   0.5006241  )
        23           Pd  tau(  23) = (   0.7506204   0.0000000   0.7506202  )
        24           Pd  tau(  24) = (   0.5006249   0.2500117   0.7504049  )
        25           Pd  tau(  25) = (   0.4999999   0.4999999   0.0004167  )
        26           Pd  tau(  26) = (   0.7499954   0.7499954   0.0006250  )
        27           Pd  tau(  27) = (   0.7501966   0.4999999   0.2506359  )
        28           Pd  tau(  28) = (   0.5002083   0.7499883   0.2504276  )
        29           Pd  tau(  29) = (   0.5004166   0.4999999   0.5004158  )
        30           Pd  tau(  30) = (   0.7504049   0.7499883   0.5006241  )
        31           Pd  tau(  31) = (   0.7506133   0.4999999   0.7506133  )
        32           Pd  tau(  32) = (   0.5006249   0.7499883   0.7504049  )

     number of k points=   125  Marzari-Vanderbilt smearing, width (Ry)=  0.0400

     Number of k-points >= 100: set verbosity='high' to print them.

     Dense  grid:   491969 G-vectors     FFT dimensions: ( 100, 100, 100)

     Smooth grid:   263967 G-vectors     FFT dimensions: (  80,  80,  80)

     Estimated max dynamical RAM per process >       1.30 GB

     Estimated total dynamical RAM >      25.91 GB

     Check: negative/imaginary core charge=   -0.000002    0.000000

     Initial potential from superposition of free atoms

     starting charge  575.98776, renormalised to  576.00000
     Starting wfcs are  320 randomized atomic wfcs +   26 random wfcs
     Checking if some PAW data can be deallocated... 

     total cpu time spent up to now is       74.3 secs

     Self-consistent Calculation

     iteration #  1     ecut=    71.00 Ry     beta= 0.10
     Davidson diagonalization with overlap
     ethr =  1.00E-02,  avg # of iterations =  3.1

     Threshold (ethr) on eigenvalues was too large:
     Diagonalizing with lowered threshold

     Davidson diagonalization with overlap
     ethr =  8.31E-05,  avg # of iterations =  3.1

     total cpu time spent up to now is      820.2 secs

     total energy              =  -16385.02015879 Ry
     Harris-Foulkes estimate   =  -16385.08755216 Ry
     estimated scf accuracy    <       0.47296190 Ry

     iteration #  2     ecut=    71.00 Ry     beta= 0.10
     Davidson diagonalization with overlap
     ethr =  8.21E-05,  avg # of iterations =  1.1

     total cpu time spent up to now is     1050.4 secs

     total energy              =  -16384.93142738 Ry
     Harris-Foulkes estimate   =  -16385.02793135 Ry
     estimated scf accuracy    <       0.25793031 Ry

     iteration #  3     ecut=    71.00 Ry     beta= 0.10
     Davidson diagonalization with overlap
     ethr =  4.48E-05,  avg # of iterations =  2.1

     total cpu time spent up to now is     1357.9 secs

     total energy              =  -16384.96062353 Ry
     Harris-Foulkes estimate   =  -16384.96783836 Ry
     estimated scf accuracy    <       0.08945122 Ry

     iteration #  4     ecut=    71.00 Ry     beta= 0.10
     Davidson diagonalization with overlap
     c_bands:  1 eigenvalues not converged
     ethr =  1.55E-05,  avg # of iterations =  1.7

     total cpu time spent up to now is     1615.3 secs

     total energy              =  -16384.96215309 Ry
     Harris-Foulkes estimate   =  -16384.96417753 Ry
     estimated scf accuracy    <       0.02201970 Ry

     iteration #  5     ecut=    71.00 Ry     beta= 0.10
     Davidson diagonalization with overlap
     ethr =  3.82E-06,  avg # of iterations =  1.5

     total cpu time spent up to now is     1864.0 secs

     total energy              =  -16384.95692573 Ry
     Harris-Foulkes estimate   =  -16384.96234633 Ry
     estimated scf accuracy    <       0.01529847 Ry

     iteration #  6     ecut=    71.00 Ry     beta= 0.10
     Davidson diagonalization with overlap
     ethr =  2.66E-06,  avg # of iterations =  1.1

     total cpu time spent up to now is     2093.1 secs

     total energy              =  -16384.95800129 Ry
     Harris-Foulkes estimate   =  -16384.95807521 Ry
     estimated scf accuracy    <       0.00087751 Ry

     iteration #  7     ecut=    71.00 Ry     beta= 0.10
     Davidson diagonalization with overlap
     ethr =  1.52E-07,  avg # of iterations =  3.0

     total cpu time spent up to now is     2442.1 secs

     total energy              =  -16384.95810022 Ry
     Harris-Foulkes estimate   =  -16384.95812905 Ry
     estimated scf accuracy    <       0.00016897 Ry

     iteration #  8     ecut=    71.00 Ry     beta= 0.10
     Davidson diagonalization with overlap
     ethr =  2.93E-08,  avg # of iterations =  1.0

     total cpu time spent up to now is     2667.7 secs

     total energy              =  -16384.95809905 Ry
     Harris-Foulkes estimate   =  -16384.95810508 Ry
     estimated scf accuracy    <       0.00005632 Ry

     iteration #  9     ecut=    71.00 Ry     beta= 0.10
     Davidson diagonalization with overlap
     ethr =  9.78E-09,  avg # of iterations =  1.0

     total cpu time spent up to now is     2892.3 secs

     total energy              =  -16384.95809714 Ry
     Harris-Foulkes estimate   =  -16384.95809996 Ry
     estimated scf accuracy    <       0.00004059 Ry

     iteration # 10     ecut=    71.00 Ry     beta= 0.10
     Davidson diagonalization with overlap
     ethr =  7.05E-09,  avg # of iterations =  2.0

     total cpu time spent up to now is     3173.7 secs

     total energy              =  -16384.95810372 Ry
     Harris-Foulkes estimate   =  -16384.95810026 Ry
     estimated scf accuracy    <       0.00000376 Ry

     iteration # 11     ecut=    71.00 Ry     beta= 0.10
     Davidson diagonalization with overlap
     ethr =  6.52E-10,  avg # of iterations =  2.1

     total cpu time spent up to now is     3496.2 secs

     End of self-consistent calculation

     Number of k-points >= 100: set verbosity='high' to print the bands.

     the Fermi energy is    19.2985 ev

!    total energy              =  -16384.95811527 Ry
     Harris-Foulkes estimate   =  -16384.95810419 Ry
     estimated scf accuracy    <       0.00000053 Ry

     total all-electron energy =   -322945.811822 Ry

     The total energy is the sum of the following terms:

     one-electron contribution =   -2484.49742135 Ry
     hartree contribution      =    1660.15929033 Ry
     xc contribution           =    -986.52856262 Ry
     ewald contribution        =   -6406.69739025 Ry
     one-center paw contrib.   =   -8167.42689080 Ry
     smearing contrib. (-TS)   =       0.03285943 Ry

     convergence has been achieved in  11 iterations

     Forces acting on atoms (cartesian axes, Ry/au):

     atom    1 type  1   force =     0.00000000    0.00000000    0.00000000
     atom    2 type  1   force =    -0.00000468    0.00009261   -0.00000034
     atom    3 type  1   force =     0.00001642    0.00000000    0.00001642
     atom    4 type  1   force =    -0.00000034    0.00009261   -0.00000468
     atom    5 type  1   force =     0.00000000    0.00000000    0.00000000
     atom    6 type  1   force =     0.00001065    0.00016246    0.00002661
     atom    7 type  1   force =     0.00001143    0.00000000   -0.00001143
     atom    8 type  1   force =     0.00000034    0.00009261    0.00000468
     atom    9 type  1   force =     0.00000000    0.00000000    0.00000000
     atom   10 type  1   force =    -0.00000468   -0.00009261   -0.00000034
     atom   11 type  1   force =    -0.00001513    0.00000000   -0.00001513
     atom   12 type  1   force =    -0.00000034   -0.00009261   -0.00000468
     atom   13 type  1   force =     0.00000000    0.00000000    0.00000000
     atom   14 type  1   force =     0.00001065   -0.00016246    0.00002661
     atom   15 type  1   force =    -0.00002174    0.00000000    0.00002174
     atom   16 type  1   force =     0.00000034   -0.00009261    0.00000468
     atom   17 type  1   force =     0.00000000    0.00000000    0.00000000
     atom   18 type  1   force =     0.00000468    0.00009261    0.00000034
     atom   19 type  1   force =    -0.00001143    0.00000000    0.00001143
     atom   20 type  1   force =     0.00002661    0.00016246    0.00001065
     atom   21 type  1   force =     0.00000000    0.00000000    0.00000000
     atom   22 type  1   force =    -0.00001065    0.00016246   -0.00002661
     atom   23 type  1   force =    -0.00001642    0.00000000   -0.00001642
     atom   24 type  1   force =    -0.00002661    0.00016246   -0.00001065
     atom   25 type  1   force =     0.00000000    0.00000000    0.00000000
     atom   26 type  1   force =     0.00000468   -0.00009261    0.00000034
     atom   27 type  1   force =     0.00002174    0.00000000   -0.00002174
     atom   28 type  1   force =     0.00002661   -0.00016246    0.00001065
     atom   29 type  1   force =     0.00000000    0.00000000    0.00000000
     atom   30 type  1   force =    -0.00001065   -0.00016246   -0.00002661
     atom   31 type  1   force =     0.00001513    0.00000000    0.00001513
     atom   32 type  1   force =    -0.00002661   -0.00016246   -0.00001065

     Total force =     0.000539     Total SCF correction =     0.005559
     SCF correction compared to forces is large: reduce conv_thr to get better values


     Computing stress (Cartesian axis) and pressure

          total   stress  (Ry/bohr**3)                   (kbar)     P=    1.69
   0.00001138   0.00000000  -0.00001052          1.67      0.00     -1.55
   0.00000000   0.00001164   0.00000000          0.00      1.71      0.00
  -0.00001052   0.00000000   0.00001138         -1.55      0.00      1.67


     Writing output data file mSNMWyDiyOQCEXfT.save/
-------------------------------------------------------
Primary job  terminated normally, but 1 process returned
a non-zero exit code.. Per user-direction, the job has been aborted.
-------------------------------------------------------
--------------------------------------------------------------------------
mpirun detected that one or more processes exited with non-zero status, thus causing
the job to be terminated. The first process to do so was:

  Process name: [[53410,1],0]
  Exit code:    38
--------------------------------------------------------------------------
