--------------------------------------------------------------------------
WARNING: There was an error initializing an OpenFabrics device.

  Local host:   bear-pg0211u10b
  Local device: mlx5_0
--------------------------------------------------------------------------

     Program PWSCF v.6.3 starts on 12Nov2020 at 23:33:53 

     This program is part of the open-source Quantum ESPRESSO suite
     for quantum simulation of materials; please cite
         "P. Giannozzi et al., J. Phys.:Condens. Matter 21 395502 (2009);
         "P. Giannozzi et al., J. Phys.:Condens. Matter 29 465901 (2017);
          URL http://www.quantum-espresso.org", 
     in publications or presentations arising from this work. More details at
     http://www.quantum-espresso.org/quote

     Parallel version (MPI & OpenMP), running on      20 processor cores
     Number of MPI processes:                20
     Threads/MPI process:                     1

     MPI processes distributed on     1 nodes
     R & G space division:  proc/nbgrp/npool/nimage =      20
     Reading input from wd/ec/ec_6_002.in
Warning: card &IONS ignored
Warning: card ION_DYNAMICS = 'BFGS', ignored
Warning: card / ignored
Warning: card &CELL ignored
Warning: card CELL_DYNAMICS = 'BFGS', ignored
Warning: card CELL_FACTOR = 2.0, ignored
Warning: card PRESS = 0.0, ignored
Warning: card / ignored

     Current dimensions of program PWSCF are:
     Max number of different atomic species (ntypx) = 10
     Max number of k-points (npk) =  40000
     Max angular momentum in pseudopotentials (lmaxx) =  3
               file Pd.pbe-spn-kjpaw_psl.1.0.0.UPF: wavefunction(s)  4S 5S 4D renormalized

     Subspace diagonalization in iterative solution of the eigenvalue problem:
     a serial algorithm will be used

 
     Parallelization info
     --------------------
     sticks:   dense  smooth     PW     G-vecs:    dense   smooth      PW
     Min         376     248     67                24596    13198    1873
     Max         377     250     68                24600    13199    1878
     Sum        7521    4973   1353               491969   263967   37529
 


     bravais-lattice index     =            0
     lattice parameter (alat)  =      14.8394  a.u.
     unit-cell volume          =    3267.7646 (a.u.)^3
     number of atoms/cell      =           32
     number of atomic types    =            1
     number of electrons       =       576.00
     number of Kohn-Sham states=          346
     kinetic-energy cutoff     =      71.0000  Ry
     charge density cutoff     =     430.0000  Ry
     convergence threshold     =      1.0E-06
     mixing beta               =       0.1000
     number of iterations used =           10  plain     mixing
     Exchange-correlation      = SLA PW PBX PBC ( 1  4  3  4 0 0)

     celldm(1)=  14.839420  celldm(2)=   0.000000  celldm(3)=   0.000000
     celldm(4)=   0.000000  celldm(5)=   0.000000  celldm(6)=   0.000000

     crystal axes: (cart. coord. in units of alat)
               a(1) = (   1.000000   0.000833   0.000000 )  
               a(2) = (   0.000833   1.000000   0.000000 )  
               a(3) = (   0.000000   0.000000   1.000000 )  

     reciprocal axes: (cart. coord. in units 2 pi/alat)
               b(1) = (  1.000000 -0.000833  0.000000 )  
               b(2) = ( -0.000833  1.000000  0.000000 )  
               b(3) = (  0.000000  0.000000  1.000000 )  


     PseudoPot. # 1 for Pd read from file:
     /rds/homes/b/bxp912/pp/Pd.pbe-spn-kjpaw_psl.1.0.0.UPF
     MD5 check sum: 790f2ebce206edfd9790dcb9844eca51
     Pseudo is Projector augmented-wave + core cor, Zval = 18.0
     Generated using "atomic" code by A. Dal Corso v.6.3
     Shape of augmentation charge: PSQ
     Using radial grid of 1235 points,  6 beta functions with: 
                l(1) =   0
                l(2) =   0
                l(3) =   1
                l(4) =   1
                l(5) =   2
                l(6) =   2
     Q(r) pseudized with 0 coefficients 


     atomic species   valence    mass     pseudopotential
        Pd            18.00   106.42000     Pd( 1.00)

      8 Sym. Ops., with inversion, found



   Cartesian axes

     site n.     atom                  positions (alat units)
         1           Pd  tau(   1) = (   0.0000000   0.0000000   0.0000000  )
         2           Pd  tau(   2) = (   0.2502129   0.2502129   0.0000000  )
         3           Pd  tau(   3) = (   0.2500045   0.0002083   0.2500040  )
         4           Pd  tau(   4) = (   0.0002083   0.2500045   0.2500040  )
         5           Pd  tau(   5) = (   0.0000000   0.0000000   0.4999991  )
         6           Pd  tau(   6) = (   0.2502200   0.2502200   0.4999991  )
         7           Pd  tau(   7) = (   0.2500045   0.0002083   0.7499952  )
         8           Pd  tau(   8) = (   0.0002083   0.2500045   0.7499952  )
         9           Pd  tau(   9) = (   0.0004167   0.4999999   0.0000000  )
        10           Pd  tau(  10) = (   0.2506295   0.7502038   0.0000000  )
        11           Pd  tau(  11) = (   0.2504283   0.5002083   0.2500110  )
        12           Pd  tau(  12) = (   0.0006250   0.7499954   0.2500040  )
        13           Pd  tau(  13) = (   0.0004167   0.4999999   0.4999991  )
        14           Pd  tau(  14) = (   0.2506366   0.7501966   0.4999991  )
        15           Pd  tau(  15) = (   0.2504283   0.5002083   0.7499883  )
        16           Pd  tau(  16) = (   0.0006250   0.7499954   0.7499952  )
        17           Pd  tau(  17) = (   0.4999999   0.0004167   0.0000000  )
        18           Pd  tau(  18) = (   0.7502038   0.2506295   0.0000000  )
        19           Pd  tau(  19) = (   0.7499954   0.0006250   0.2500040  )
        20           Pd  tau(  20) = (   0.5002083   0.2504283   0.2500110  )
        21           Pd  tau(  21) = (   0.4999999   0.0004167   0.4999991  )
        22           Pd  tau(  22) = (   0.7501966   0.2506366   0.4999991  )
        23           Pd  tau(  23) = (   0.7499954   0.0006250   0.7499952  )
        24           Pd  tau(  24) = (   0.5002083   0.2504283   0.7499883  )
        25           Pd  tau(  25) = (   0.5004166   0.5004166   0.0000000  )
        26           Pd  tau(  26) = (   0.7506204   0.7506204   0.0000000  )
        27           Pd  tau(  27) = (   0.7504049   0.5006249   0.2500110  )
        28           Pd  tau(  28) = (   0.5006249   0.7504049   0.2500110  )
        29           Pd  tau(  29) = (   0.5004166   0.5004166   0.4999991  )
        30           Pd  tau(  30) = (   0.7506133   0.7506133   0.4999991  )
        31           Pd  tau(  31) = (   0.7504049   0.5006249   0.7499883  )
        32           Pd  tau(  32) = (   0.5006249   0.7504049   0.7499883  )

     number of k points=   125  Marzari-Vanderbilt smearing, width (Ry)=  0.0400

     Number of k-points >= 100: set verbosity='high' to print them.

     Dense  grid:   491969 G-vectors     FFT dimensions: ( 100, 100, 100)

     Smooth grid:   263967 G-vectors     FFT dimensions: (  80,  80,  80)

     Estimated max dynamical RAM per process >       1.30 GB

     Estimated total dynamical RAM >      25.91 GB

     Check: negative/imaginary core charge=   -0.000002    0.000000

     Initial potential from superposition of free atoms

     starting charge  575.98776, renormalised to  576.00000
     Starting wfcs are  320 randomized atomic wfcs +   26 random wfcs
     Checking if some PAW data can be deallocated... 

     total cpu time spent up to now is       76.6 secs

     Self-consistent Calculation

     iteration #  1     ecut=    71.00 Ry     beta= 0.10
     Davidson diagonalization with overlap
     ethr =  1.00E-02,  avg # of iterations =  3.1

     Threshold (ethr) on eigenvalues was too large:
     Diagonalizing with lowered threshold

     Davidson diagonalization with overlap
     ethr =  8.31E-05,  avg # of iterations =  3.1

     total cpu time spent up to now is      841.6 secs

     total energy              =  -16385.02026445 Ry
     Harris-Foulkes estimate   =  -16385.08768281 Ry
     estimated scf accuracy    <       0.47295481 Ry

     iteration #  2     ecut=    71.00 Ry     beta= 0.10
     Davidson diagonalization with overlap
     ethr =  8.21E-05,  avg # of iterations =  1.0

     total cpu time spent up to now is     1075.9 secs

     total energy              =  -16384.93028138 Ry
     Harris-Foulkes estimate   =  -16385.02801229 Ry
     estimated scf accuracy    <       0.25756804 Ry

     iteration #  3     ecut=    71.00 Ry     beta= 0.10
     Davidson diagonalization with overlap
     ethr =  4.47E-05,  avg # of iterations =  2.2

     total cpu time spent up to now is     1399.5 secs

     total energy              =  -16384.96135696 Ry
     Harris-Foulkes estimate   =  -16384.96704110 Ry
     estimated scf accuracy    <       0.07135937 Ry

     iteration #  4     ecut=    71.00 Ry     beta= 0.10
     Davidson diagonalization with overlap
     c_bands:  1 eigenvalues not converged
     ethr =  1.24E-05,  avg # of iterations =  1.8

     total cpu time spent up to now is     1670.2 secs

     total energy              =  -16384.96225657 Ry
     Harris-Foulkes estimate   =  -16384.96419753 Ry
     estimated scf accuracy    <       0.02242714 Ry

     iteration #  5     ecut=    71.00 Ry     beta= 0.10
     Davidson diagonalization with overlap
     c_bands:  1 eigenvalues not converged
     ethr =  3.89E-06,  avg # of iterations =  1.4

     total cpu time spent up to now is     1922.8 secs

     total energy              =  -16384.95698579 Ry
     Harris-Foulkes estimate   =  -16384.96246475 Ry
     estimated scf accuracy    <       0.01554564 Ry

     iteration #  6     ecut=    71.00 Ry     beta= 0.10
     Davidson diagonalization with overlap
     ethr =  2.70E-06,  avg # of iterations =  1.0

     total cpu time spent up to now is     2157.0 secs

     total energy              =  -16384.95801546 Ry
     Harris-Foulkes estimate   =  -16384.95801512 Ry
     estimated scf accuracy    <       0.00019753 Ry

     iteration #  7     ecut=    71.00 Ry     beta= 0.10
     Davidson diagonalization with overlap
     ethr =  3.43E-08,  avg # of iterations =  3.0

     total cpu time spent up to now is     2588.5 secs

     total energy              =  -16384.95809648 Ry
     Harris-Foulkes estimate   =  -16384.95810820 Ry
     estimated scf accuracy    <       0.00018482 Ry

     iteration #  8     ecut=    71.00 Ry     beta= 0.10
     Davidson diagonalization with overlap
     ethr =  3.21E-08,  avg # of iterations =  1.3

     total cpu time spent up to now is     2833.1 secs

     total energy              =  -16384.95809936 Ry
     Harris-Foulkes estimate   =  -16384.95810236 Ry
     estimated scf accuracy    <       0.00005577 Ry

     iteration #  9     ecut=    71.00 Ry     beta= 0.10
     Davidson diagonalization with overlap
     ethr =  9.68E-09,  avg # of iterations =  1.0

     total cpu time spent up to now is     3065.2 secs

     total energy              =  -16384.95809554 Ry
     Harris-Foulkes estimate   =  -16384.95810002 Ry
     estimated scf accuracy    <       0.00004246 Ry

     iteration # 10     ecut=    71.00 Ry     beta= 0.10
     Davidson diagonalization with overlap
     ethr =  7.37E-09,  avg # of iterations =  2.0

     total cpu time spent up to now is     3382.2 secs

     total energy              =  -16384.95810373 Ry
     Harris-Foulkes estimate   =  -16384.95810023 Ry
     estimated scf accuracy    <       0.00000480 Ry

     iteration # 11     ecut=    71.00 Ry     beta= 0.10
     Davidson diagonalization with overlap
     ethr =  8.33E-10,  avg # of iterations =  1.2

     total cpu time spent up to now is     3622.5 secs

     End of self-consistent calculation

     Number of k-points >= 100: set verbosity='high' to print the bands.

     the Fermi energy is    19.2986 ev

!    total energy              =  -16384.95811518 Ry
     Harris-Foulkes estimate   =  -16384.95810407 Ry
     estimated scf accuracy    <       0.00000054 Ry

     total all-electron energy =   -322945.811822 Ry

     The total energy is the sum of the following terms:

     one-electron contribution =   -2484.49123307 Ry
     hartree contribution      =    1660.15216958 Ry
     xc contribution           =    -986.52744495 Ry
     ewald contribution        =   -6406.69739025 Ry
     one-center paw contrib.   =   -8167.42707267 Ry
     smearing contrib. (-TS)   =       0.03285618 Ry

     convergence has been achieved in  11 iterations

     Forces acting on atoms (cartesian axes, Ry/au):

     atom    1 type  1   force =     0.00000000    0.00000000    0.00000000
     atom    2 type  1   force =     0.00006360    0.00006360    0.00000000
     atom    3 type  1   force =     0.00005963   -0.00000828   -0.00001816
     atom    4 type  1   force =    -0.00000828    0.00005963   -0.00001816
     atom    5 type  1   force =     0.00000000    0.00000000    0.00000000
     atom    6 type  1   force =     0.00008916    0.00008916    0.00000000
     atom    7 type  1   force =     0.00005963   -0.00000828    0.00001816
     atom    8 type  1   force =    -0.00000828    0.00005963    0.00001816
     atom    9 type  1   force =     0.00000000    0.00000000    0.00000000
     atom   10 type  1   force =     0.00007251   -0.00007251    0.00000000
     atom   11 type  1   force =     0.00008712    0.00002563   -0.00001831
     atom   12 type  1   force =     0.00000828   -0.00005963   -0.00001816
     atom   13 type  1   force =     0.00000000    0.00000000    0.00000000
     atom   14 type  1   force =     0.00008525   -0.00008525    0.00000000
     atom   15 type  1   force =     0.00008712    0.00002563    0.00001831
     atom   16 type  1   force =     0.00000828   -0.00005963    0.00001816
     atom   17 type  1   force =     0.00000000    0.00000000    0.00000000
     atom   18 type  1   force =    -0.00007251    0.00007251    0.00000000
     atom   19 type  1   force =    -0.00005963    0.00000828   -0.00001816
     atom   20 type  1   force =     0.00002563    0.00008712   -0.00001831
     atom   21 type  1   force =     0.00000000    0.00000000    0.00000000
     atom   22 type  1   force =    -0.00008525    0.00008525    0.00000000
     atom   23 type  1   force =    -0.00005963    0.00000828    0.00001816
     atom   24 type  1   force =     0.00002563    0.00008712    0.00001831
     atom   25 type  1   force =     0.00000000    0.00000000    0.00000000
     atom   26 type  1   force =    -0.00006360   -0.00006360    0.00000000
     atom   27 type  1   force =    -0.00008712   -0.00002563   -0.00001831
     atom   28 type  1   force =    -0.00002563   -0.00008712   -0.00001831
     atom   29 type  1   force =     0.00000000    0.00000000    0.00000000
     atom   30 type  1   force =    -0.00008916   -0.00008916    0.00000000
     atom   31 type  1   force =    -0.00008712   -0.00002563    0.00001831
     atom   32 type  1   force =    -0.00002563   -0.00008712    0.00001831

     Total force =     0.000445     Total SCF correction =     0.004675
     SCF correction compared to forces is large: reduce conv_thr to get better values


     Computing stress (Cartesian axis) and pressure

          total   stress  (Ry/bohr**3)                   (kbar)     P=    1.61
   0.00001101  -0.00001066   0.00000000          1.62     -1.57      0.00
  -0.00001066   0.00001101   0.00000000         -1.57      1.62      0.00
   0.00000000   0.00000000   0.00001087          0.00      0.00      1.60


     Writing output data file DOuvNbmaATpwzoJH.save/
-------------------------------------------------------
Primary job  terminated normally, but 1 process returned
a non-zero exit code.. Per user-direction, the job has been aborted.
-------------------------------------------------------
--------------------------------------------------------------------------
mpirun detected that one or more processes exited with non-zero status, thus causing
the job to be terminated. The first process to do so was:

  Process name: [[61676,1],0]
  Exit code:    38
--------------------------------------------------------------------------
