
     Program PWSCF v.6.3 starts on 13Nov2020 at  9:50:19 

     This program is part of the open-source Quantum ESPRESSO suite
     for quantum simulation of materials; please cite
         "P. Giannozzi et al., J. Phys.:Condens. Matter 21 395502 (2009);
         "P. Giannozzi et al., J. Phys.:Condens. Matter 29 465901 (2017);
          URL http://www.quantum-espresso.org", 
     in publications or presentations arising from this work. More details at
     http://www.quantum-espresso.org/quote

     Parallel version (MPI & OpenMP), running on      20 processor cores
     Number of MPI processes:                20
     Threads/MPI process:                     1

     MPI processes distributed on     1 nodes
     R & G space division:  proc/nbgrp/npool/nimage =      20
     Reading input from wd/ec/ec_7_005.in
Warning: card &IONS ignored
Warning: card ION_DYNAMICS = 'BFGS', ignored
Warning: card / ignored
Warning: card &CELL ignored
Warning: card CELL_DYNAMICS = 'BFGS', ignored
Warning: card CELL_FACTOR = 2.0, ignored
Warning: card PRESS = 0.0, ignored
Warning: card / ignored

     Current dimensions of program PWSCF are:
     Max number of different atomic species (ntypx) = 10
     Max number of k-points (npk) =  40000
     Max angular momentum in pseudopotentials (lmaxx) =  3
               file Pd.pbe-spn-kjpaw_psl.1.0.0.UPF: wavefunction(s)  4S 5S 4D renormalized

     Subspace diagonalization in iterative solution of the eigenvalue problem:
     a serial algorithm will be used

 
     Parallelization info
     --------------------
     sticks:   dense  smooth     PW     G-vecs:    dense   smooth      PW
     Min         377     248     67                24593    13206    1873
     Max         378     249     68                24596    13209    1878
     Sum        7543    4977   1353               491887   264159   37501
 


     bravais-lattice index     =            0
     lattice parameter (alat)  =      14.8394  a.u.
     unit-cell volume          =    3267.7646 (a.u.)^3
     number of atoms/cell      =           32
     number of atomic types    =            1
     number of electrons       =       576.00
     number of Kohn-Sham states=          346
     kinetic-energy cutoff     =      71.0000  Ry
     charge density cutoff     =     430.0000  Ry
     convergence threshold     =      1.0E-06
     mixing beta               =       0.1000
     number of iterations used =           10  plain     mixing
     Exchange-correlation      = SLA PW PBX PBC ( 1  4  3  4 0 0)

     celldm(1)=  14.839420  celldm(2)=   0.000000  celldm(3)=   0.000000
     celldm(4)=   0.000000  celldm(5)=   0.000000  celldm(6)=   0.000000

     crystal axes: (cart. coord. in units of alat)
               a(1) = (   1.003337   0.000000   0.000000 )  
               a(2) = (   0.000000   0.996670   0.000000 )  
               a(3) = (   0.000000   0.000000   1.000004 )  

     reciprocal axes: (cart. coord. in units 2 pi/alat)
               b(1) = (  0.996674  0.000000  0.000000 )  
               b(2) = (  0.000000  1.003341  0.000000 )  
               b(3) = (  0.000000  0.000000  0.999996 )  


     PseudoPot. # 1 for Pd read from file:
     /rds/homes/b/bxp912/pp/Pd.pbe-spn-kjpaw_psl.1.0.0.UPF
     MD5 check sum: 790f2ebce206edfd9790dcb9844eca51
     Pseudo is Projector augmented-wave + core cor, Zval = 18.0
     Generated using "atomic" code by A. Dal Corso v.6.3
     Shape of augmentation charge: PSQ
     Using radial grid of 1235 points,  6 beta functions with: 
                l(1) =   0
                l(2) =   0
                l(3) =   1
                l(4) =   1
                l(5) =   2
                l(6) =   2
     Q(r) pseudized with 0 coefficients 


     atomic species   valence    mass     pseudopotential
        Pd            18.00   106.42000     Pd( 1.00)

      8 Sym. Ops., with inversion, found



   Cartesian axes

     site n.     atom                  positions (alat units)
         1           Pd  tau(   1) = (   0.0000000   0.0000000   0.0000000  )
         2           Pd  tau(   2) = (   0.2508387   0.2491720   0.0000000  )
         3           Pd  tau(   3) = (   0.2508387   0.0000000   0.2500049  )
         4           Pd  tau(   4) = (   0.0000000   0.2491720   0.2500049  )
         5           Pd  tau(   5) = (   0.0000000   0.0000000   0.5000009  )
         6           Pd  tau(   6) = (   0.2508459   0.2491791   0.5000009  )
         7           Pd  tau(   7) = (   0.2508387   0.0000000   0.7499978  )
         8           Pd  tau(   8) = (   0.0000000   0.2491720   0.7499978  )
         9           Pd  tau(   9) = (   0.0000000   0.4983350   0.0000000  )
        10           Pd  tau(  10) = (   0.2508387   0.7474980   0.0000000  )
        11           Pd  tau(  11) = (   0.2508459   0.4983350   0.2500118  )
        12           Pd  tau(  12) = (   0.0000000   0.7474980   0.2500049  )
        13           Pd  tau(  13) = (   0.0000000   0.4983350   0.5000009  )
        14           Pd  tau(  14) = (   0.2508459   0.7474909   0.5000009  )
        15           Pd  tau(  15) = (   0.2508459   0.4983350   0.7499909  )
        16           Pd  tau(  16) = (   0.0000000   0.7474980   0.7499978  )
        17           Pd  tau(  17) = (   0.5016683   0.0000000   0.0000000  )
        18           Pd  tau(  18) = (   0.7524980   0.2491720   0.0000000  )
        19           Pd  tau(  19) = (   0.7524980   0.0000000   0.2500049  )
        20           Pd  tau(  20) = (   0.5016683   0.2491791   0.2500118  )
        21           Pd  tau(  21) = (   0.5016683   0.0000000   0.5000009  )
        22           Pd  tau(  22) = (   0.7524909   0.2491791   0.5000009  )
        23           Pd  tau(  23) = (   0.7524980   0.0000000   0.7499978  )
        24           Pd  tau(  24) = (   0.5016683   0.2491791   0.7499909  )
        25           Pd  tau(  25) = (   0.5016683   0.4983350   0.0000000  )
        26           Pd  tau(  26) = (   0.7524980   0.7474980   0.0000000  )
        27           Pd  tau(  27) = (   0.7524909   0.4983350   0.2500118  )
        28           Pd  tau(  28) = (   0.5016683   0.7474909   0.2500118  )
        29           Pd  tau(  29) = (   0.5016683   0.4983350   0.5000009  )
        30           Pd  tau(  30) = (   0.7524909   0.7474909   0.5000009  )
        31           Pd  tau(  31) = (   0.7524909   0.4983350   0.7499909  )
        32           Pd  tau(  32) = (   0.5016683   0.7474909   0.7499909  )

     number of k points=   125  Marzari-Vanderbilt smearing, width (Ry)=  0.0400

     Number of k-points >= 100: set verbosity='high' to print them.

     Dense  grid:   491887 G-vectors     FFT dimensions: ( 100, 100, 100)

     Smooth grid:   264159 G-vectors     FFT dimensions: (  80,  80,  80)

     Estimated max dynamical RAM per process >       1.30 GB

     Estimated total dynamical RAM >      25.91 GB

     Check: negative/imaginary core charge=   -0.000002    0.000000

     Initial potential from superposition of free atoms

     starting charge  575.98776, renormalised to  576.00000
     Starting wfcs are  320 randomized atomic wfcs +   26 random wfcs
     Checking if some PAW data can be deallocated... 

     total cpu time spent up to now is       73.9 secs

     Self-consistent Calculation

     iteration #  1     ecut=    71.00 Ry     beta= 0.10
     Davidson diagonalization with overlap
     ethr =  1.00E-02,  avg # of iterations =  3.1

     Threshold (ethr) on eigenvalues was too large:
     Diagonalizing with lowered threshold

     Davidson diagonalization with overlap
     ethr =  8.31E-05,  avg # of iterations =  3.0

     total cpu time spent up to now is     2071.1 secs

     total energy              =  -16385.02010855 Ry
     Harris-Foulkes estimate   =  -16385.08750324 Ry
     estimated scf accuracy    <       0.47291372 Ry

     iteration #  2     ecut=    71.00 Ry     beta= 0.10
     Davidson diagonalization with overlap
     ethr =  8.21E-05,  avg # of iterations =  1.0

     total cpu time spent up to now is     2813.0 secs

     total energy              =  -16384.93090719 Ry
     Harris-Foulkes estimate   =  -16385.02785329 Ry
     estimated scf accuracy    <       0.25794971 Ry

     iteration #  3     ecut=    71.00 Ry     beta= 0.10
     Davidson diagonalization with overlap
     ethr =  4.48E-05,  avg # of iterations =  2.0

     total cpu time spent up to now is     3916.3 secs

     total energy              =  -16384.96059679 Ry
     Harris-Foulkes estimate   =  -16384.96763488 Ry
     estimated scf accuracy    <       0.08868565 Ry

     iteration #  4     ecut=    71.00 Ry     beta= 0.10
     Davidson diagonalization with overlap
     ethr =  1.54E-05,  avg # of iterations =  1.4

     total cpu time spent up to now is     4572.6 secs

     total energy              =  -16384.96185788 Ry
     Harris-Foulkes estimate   =  -16384.96403670 Ry
     estimated scf accuracy    <       0.02175636 Ry

     iteration #  5     ecut=    71.00 Ry     beta= 0.10
     Davidson diagonalization with overlap
     ethr =  3.78E-06,  avg # of iterations =  1.3

     total cpu time spent up to now is     5248.5 secs

     total energy              =  -16384.95688837 Ry
     Harris-Foulkes estimate   =  -16384.96204343 Ry
     estimated scf accuracy    <       0.01482039 Ry

     iteration #  6     ecut=    71.00 Ry     beta= 0.10
     Davidson diagonalization with overlap
     ethr =  2.57E-06,  avg # of iterations =  1.1

     total cpu time spent up to now is     6043.9 secs

     total energy              =  -16384.95782490 Ry
     Harris-Foulkes estimate   =  -16384.95787456 Ry
     estimated scf accuracy    <       0.00063238 Ry

     iteration #  7     ecut=    71.00 Ry     beta= 0.10
     Davidson diagonalization with overlap
     ethr =  1.10E-07,  avg # of iterations =  3.1

     total cpu time spent up to now is     7074.6 secs

     total energy              =  -16384.95793127 Ry
     Harris-Foulkes estimate   =  -16384.95796056 Ry
     estimated scf accuracy    <       0.00040222 Ry

     iteration #  8     ecut=    71.00 Ry     beta= 0.10
     Davidson diagonalization with overlap
     ethr =  6.98E-08,  avg # of iterations =  1.2

     total cpu time spent up to now is     7932.9 secs

     total energy              =  -16384.95794154 Ry
     Harris-Foulkes estimate   =  -16384.95794526 Ry
     estimated scf accuracy    <       0.00005309 Ry

     iteration #  9     ecut=    71.00 Ry     beta= 0.10
     Davidson diagonalization with overlap
     ethr =  9.22E-09,  avg # of iterations =  1.0

     total cpu time spent up to now is     8583.8 secs

     total energy              =  -16384.95794144 Ry
     Harris-Foulkes estimate   =  -16384.95794240 Ry
     estimated scf accuracy    <       0.00003709 Ry

     iteration # 10     ecut=    71.00 Ry     beta= 0.10
     Davidson diagonalization with overlap
     ethr =  6.44E-09,  avg # of iterations =  2.0

     total cpu time spent up to now is     9461.6 secs

     total energy              =  -16384.95794801 Ry
     Harris-Foulkes estimate   =  -16384.95794520 Ry
     estimated scf accuracy    <       0.00000484 Ry

     iteration # 11     ecut=    71.00 Ry     beta= 0.10
     Davidson diagonalization with overlap
     ethr =  8.40E-10,  avg # of iterations =  1.0

     total cpu time spent up to now is    10066.8 secs

     total energy              =  -16384.95795047 Ry
     Harris-Foulkes estimate   =  -16384.95794842 Ry
     estimated scf accuracy    <       0.00000126 Ry

     iteration # 12     ecut=    71.00 Ry     beta= 0.10
     Davidson diagonalization with overlap
     ethr =  2.20E-10,  avg # of iterations =  1.0

     total cpu time spent up to now is    10748.5 secs

     End of self-consistent calculation

     Number of k-points >= 100: set verbosity='high' to print the bands.

     the Fermi energy is    19.2985 ev

!    total energy              =  -16384.95795931 Ry
     Harris-Foulkes estimate   =  -16384.95795052 Ry
     estimated scf accuracy    <       0.00000045 Ry

     total all-electron energy =   -322945.811666 Ry

     The total energy is the sum of the following terms:

     one-electron contribution =   -2484.50176557 Ry
     hartree contribution      =    1660.16295521 Ry
     xc contribution           =    -986.52905222 Ry
     ewald contribution        =   -6406.69594478 Ry
     one-center paw contrib.   =   -8167.42710485 Ry
     smearing contrib. (-TS)   =       0.03295291 Ry

     convergence has been achieved in  12 iterations

     Forces acting on atoms (cartesian axes, Ry/au):

     atom    1 type  1   force =     0.00000000    0.00000000    0.00000000
     atom    2 type  1   force =     0.00003211    0.00023601    0.00000000
     atom    3 type  1   force =    -0.00002622   -0.00000000   -0.00006049
     atom    4 type  1   force =     0.00000000    0.00018910   -0.00004624
     atom    5 type  1   force =     0.00000000    0.00000000    0.00000000
     atom    6 type  1   force =     0.00006407    0.00033100    0.00000000
     atom    7 type  1   force =    -0.00002622    0.00000000    0.00006049
     atom    8 type  1   force =     0.00000000    0.00018910    0.00004624
     atom    9 type  1   force =     0.00000000    0.00000000    0.00000000
     atom   10 type  1   force =     0.00003211   -0.00023601    0.00000000
     atom   11 type  1   force =     0.00012939    0.00000000   -0.00000970
     atom   12 type  1   force =     0.00000000   -0.00018910   -0.00004624
     atom   13 type  1   force =     0.00000000    0.00000000    0.00000000
     atom   14 type  1   force =     0.00006407   -0.00033100    0.00000000
     atom   15 type  1   force =     0.00012939    0.00000000    0.00000970
     atom   16 type  1   force =     0.00000000   -0.00018910    0.00004624
     atom   17 type  1   force =     0.00000000    0.00000000    0.00000000
     atom   18 type  1   force =    -0.00003211    0.00023601    0.00000000
     atom   19 type  1   force =     0.00002622    0.00000000   -0.00006049
     atom   20 type  1   force =     0.00000000    0.00040889   -0.00000520
     atom   21 type  1   force =     0.00000000    0.00000000    0.00000000
     atom   22 type  1   force =    -0.00006407    0.00033100    0.00000000
     atom   23 type  1   force =     0.00002622   -0.00000000    0.00006049
     atom   24 type  1   force =     0.00000000    0.00040889    0.00000520
     atom   25 type  1   force =     0.00000000    0.00000000    0.00000000
     atom   26 type  1   force =    -0.00003211   -0.00023601    0.00000000
     atom   27 type  1   force =    -0.00012939    0.00000000   -0.00000970
     atom   28 type  1   force =     0.00000000   -0.00040889   -0.00000520
     atom   29 type  1   force =     0.00000000    0.00000000    0.00000000
     atom   30 type  1   force =    -0.00006407   -0.00033100    0.00000000
     atom   31 type  1   force =    -0.00012939    0.00000000    0.00000970
     atom   32 type  1   force =     0.00000000   -0.00040889    0.00000520

     Total force =     0.001260     Total SCF correction =     0.005715
     SCF correction compared to forces is large: reduce conv_thr to get better values


     Computing stress (Cartesian axis) and pressure

          total   stress  (Ry/bohr**3)                   (kbar)     P=    1.86
  -0.00000456   0.00000000   0.00000000         -0.67      0.00      0.00
   0.00000000   0.00002962   0.00000000          0.00      4.36      0.00
   0.00000000   0.00000000   0.00001287          0.00      0.00      1.89


     Writing output data file UHkwLMeLkspXpoMu.save/
-------------------------------------------------------
Primary job  terminated normally, but 1 process returned
a non-zero exit code.. Per user-direction, the job has been aborted.
-------------------------------------------------------
--------------------------------------------------------------------------
mpirun detected that one or more processes exited with non-zero status, thus causing
the job to be terminated. The first process to do so was:

  Process name: [[61205,1],0]
  Exit code:    38
--------------------------------------------------------------------------
