--------------------------------------------------------------------------
WARNING: No preset parameters were found for the device that Open MPI
detected:

  Local host:            bear-pg0206u14b
  Device name:           mlx5_0
  Device vendor ID:      0x02c9
  Device vendor part ID: 4123

Default device parameters will be used, which may result in lower
performance.  You can edit any of the files specified by the
btl_openib_device_param_files MCA parameter to set values for your
device.

NOTE: You can turn off this warning by setting the MCA parameter
      btl_openib_warn_no_device_params_found to 0.
--------------------------------------------------------------------------
--------------------------------------------------------------------------
WARNING: There was an error initializing an OpenFabrics device.

  Local host:   bear-pg0206u14b
  Local device: mlx5_0
--------------------------------------------------------------------------

     Program PWSCF v.6.3 starts on 11Nov2020 at  8:44:26 

     This program is part of the open-source Quantum ESPRESSO suite
     for quantum simulation of materials; please cite
         "P. Giannozzi et al., J. Phys.:Condens. Matter 21 395502 (2009);
         "P. Giannozzi et al., J. Phys.:Condens. Matter 29 465901 (2017);
          URL http://www.quantum-espresso.org", 
     in publications or presentations arising from this work. More details at
     http://www.quantum-espresso.org/quote

     Parallel version (MPI & OpenMP), running on      20 processor cores
     Number of MPI processes:                20
     Threads/MPI process:                     1

     MPI processes distributed on     1 nodes
     R & G space division:  proc/nbgrp/npool/nimage =      20
     Reading input from wd/eos/eos_004.in
Warning: card &IONS ignored
Warning: card ION_DYNAMICS = 'BFGS', ignored
Warning: card / ignored
Warning: card &CELL ignored
Warning: card CELL_DYNAMICS = 'BFGS', ignored
Warning: card CELL_FACTOR = 2.0, ignored
Warning: card PRESS = 0.0, ignored
Warning: card / ignored

     Current dimensions of program PWSCF are:
     Max number of different atomic species (ntypx) = 10
     Max number of k-points (npk) =  40000
     Max angular momentum in pseudopotentials (lmaxx) =  3
               file Pd.pbe-spn-kjpaw_psl.1.0.0.UPF: wavefunction(s)  4S 5S 4D renormalized

     Subspace diagonalization in iterative solution of the eigenvalue problem:
     a serial algorithm will be used

 
     Parallelization info
     --------------------
     sticks:   dense  smooth     PW     G-vecs:    dense   smooth      PW
     Min         376     247     67                24602    13189    1873
     Max         377     248     68                24607    13194    1878
     Sum        7521    4957   1353               492057   263859   37529
 


     bravais-lattice index     =            0
     lattice parameter (alat)  =      14.8394  a.u.
     unit-cell volume          =    3267.7646 (a.u.)^3
     number of atoms/cell      =           32
     number of atomic types    =            1
     number of electrons       =       576.00
     number of Kohn-Sham states=          346
     kinetic-energy cutoff     =      71.0000  Ry
     charge density cutoff     =     430.0000  Ry
     convergence threshold     =      1.0E-06
     mixing beta               =       0.1000
     number of iterations used =           10  plain     mixing
     Exchange-correlation      = SLA PW PBX PBC ( 1  4  3  4 0 0)

     celldm(1)=  14.839420  celldm(2)=   0.000000  celldm(3)=   0.000000
     celldm(4)=   0.000000  celldm(5)=   0.000000  celldm(6)=   0.000000

     crystal axes: (cart. coord. in units of alat)
               a(1) = (   1.000000   0.000000   0.000000 )  
               a(2) = (   0.000000   1.000000   0.000000 )  
               a(3) = (   0.000000   0.000000   1.000000 )  

     reciprocal axes: (cart. coord. in units 2 pi/alat)
               b(1) = (  1.000000  0.000000  0.000000 )  
               b(2) = (  0.000000  1.000000  0.000000 )  
               b(3) = (  0.000000  0.000000  1.000000 )  


     PseudoPot. # 1 for Pd read from file:
     /rds/homes/b/bxp912/pp/Pd.pbe-spn-kjpaw_psl.1.0.0.UPF
     MD5 check sum: 790f2ebce206edfd9790dcb9844eca51
     Pseudo is Projector augmented-wave + core cor, Zval = 18.0
     Generated using "atomic" code by A. Dal Corso v.6.3
     Shape of augmentation charge: PSQ
     Using radial grid of 1235 points,  6 beta functions with: 
                l(1) =   0
                l(2) =   0
                l(3) =   1
                l(4) =   1
                l(5) =   2
                l(6) =   2
     Q(r) pseudized with 0 coefficients 


     atomic species   valence    mass     pseudopotential
        Pd            18.00   106.42000     Pd( 1.00)

     48 Sym. Ops., with inversion, found



   Cartesian axes

     site n.     atom                  positions (alat units)
         1           Pd  tau(   1) = (   0.0000000   0.0000000   0.0000000  )
         2           Pd  tau(   2) = (   0.2500045   0.2500045   0.0000000  )
         3           Pd  tau(   3) = (   0.2500045   0.0000000   0.2500040  )
         4           Pd  tau(   4) = (   0.0000000   0.2500045   0.2500040  )
         5           Pd  tau(   5) = (   0.0000000   0.0000000   0.4999990  )
         6           Pd  tau(   6) = (   0.2500116   0.2500116   0.4999990  )
         7           Pd  tau(   7) = (   0.2500045   0.0000000   0.7499950  )
         8           Pd  tau(   8) = (   0.0000000   0.2500045   0.7499950  )
         9           Pd  tau(   9) = (   0.0000000   0.4999998   0.0000000  )
        10           Pd  tau(  10) = (   0.2500045   0.7499952   0.0000000  )
        11           Pd  tau(  11) = (   0.2500116   0.4999998   0.2500109  )
        12           Pd  tau(  12) = (   0.0000000   0.7499952   0.2500040  )
        13           Pd  tau(  13) = (   0.0000000   0.4999998   0.4999990  )
        14           Pd  tau(  14) = (   0.2500116   0.7499881   0.4999990  )
        15           Pd  tau(  15) = (   0.2500116   0.4999998   0.7499881  )
        16           Pd  tau(  16) = (   0.0000000   0.7499952   0.7499950  )
        17           Pd  tau(  17) = (   0.4999998   0.0000000   0.0000000  )
        18           Pd  tau(  18) = (   0.7499952   0.2500045   0.0000000  )
        19           Pd  tau(  19) = (   0.7499952   0.0000000   0.2500040  )
        20           Pd  tau(  20) = (   0.4999998   0.2500116   0.2500109  )
        21           Pd  tau(  21) = (   0.4999998   0.0000000   0.4999990  )
        22           Pd  tau(  22) = (   0.7499881   0.2500116   0.4999990  )
        23           Pd  tau(  23) = (   0.7499952   0.0000000   0.7499950  )
        24           Pd  tau(  24) = (   0.4999998   0.2500116   0.7499881  )
        25           Pd  tau(  25) = (   0.4999998   0.4999998   0.0000000  )
        26           Pd  tau(  26) = (   0.7499952   0.7499952   0.0000000  )
        27           Pd  tau(  27) = (   0.7499881   0.4999998   0.2500109  )
        28           Pd  tau(  28) = (   0.4999998   0.7499881   0.2500109  )
        29           Pd  tau(  29) = (   0.4999998   0.4999998   0.4999990  )
        30           Pd  tau(  30) = (   0.7499881   0.7499881   0.4999990  )
        31           Pd  tau(  31) = (   0.7499881   0.4999998   0.7499881  )
        32           Pd  tau(  32) = (   0.4999998   0.7499881   0.7499881  )

     number of k points=    35  Marzari-Vanderbilt smearing, width (Ry)=  0.0400
                       cart. coord. in units 2pi/alat
        k(    1) = (   0.0555556   0.0555556   0.0555556), wk =   0.0219479
        k(    2) = (   0.0555556   0.0555556   0.1666667), wk =   0.0658436
        k(    3) = (   0.0555556   0.0555556   0.2777778), wk =   0.0658436
        k(    4) = (   0.0555556   0.0555556   0.3888889), wk =   0.0658436
        k(    5) = (   0.0555556   0.0555556  -0.5000000), wk =   0.0329218
        k(    6) = (   0.0555556   0.1666667   0.1666667), wk =   0.0658436
        k(    7) = (   0.0555556   0.1666667   0.2777778), wk =   0.1316872
        k(    8) = (   0.0555556   0.1666667   0.3888889), wk =   0.1316872
        k(    9) = (   0.0555556   0.1666667  -0.5000000), wk =   0.0658436
        k(   10) = (   0.0555556   0.2777778   0.2777778), wk =   0.0658436
        k(   11) = (   0.0555556   0.2777778   0.3888889), wk =   0.1316872
        k(   12) = (   0.0555556   0.2777778  -0.5000000), wk =   0.0658436
        k(   13) = (   0.0555556   0.3888889   0.3888889), wk =   0.0658436
        k(   14) = (   0.0555556   0.3888889  -0.5000000), wk =   0.0658436
        k(   15) = (   0.0555556  -0.5000000  -0.5000000), wk =   0.0164609
        k(   16) = (   0.1666667   0.1666667   0.1666667), wk =   0.0219479
        k(   17) = (   0.1666667   0.1666667   0.2777778), wk =   0.0658436
        k(   18) = (   0.1666667   0.1666667   0.3888889), wk =   0.0658436
        k(   19) = (   0.1666667   0.1666667  -0.5000000), wk =   0.0329218
        k(   20) = (   0.1666667   0.2777778   0.2777778), wk =   0.0658436
        k(   21) = (   0.1666667   0.2777778   0.3888889), wk =   0.1316872
        k(   22) = (   0.1666667   0.2777778  -0.5000000), wk =   0.0658436
        k(   23) = (   0.1666667   0.3888889   0.3888889), wk =   0.0658436
        k(   24) = (   0.1666667   0.3888889  -0.5000000), wk =   0.0658436
        k(   25) = (   0.1666667  -0.5000000  -0.5000000), wk =   0.0164609
        k(   26) = (   0.2777778   0.2777778   0.2777778), wk =   0.0219479
        k(   27) = (   0.2777778   0.2777778   0.3888889), wk =   0.0658436
        k(   28) = (   0.2777778   0.2777778  -0.5000000), wk =   0.0329218
        k(   29) = (   0.2777778   0.3888889   0.3888889), wk =   0.0658436
        k(   30) = (   0.2777778   0.3888889  -0.5000000), wk =   0.0658436
        k(   31) = (   0.2777778  -0.5000000  -0.5000000), wk =   0.0164609
        k(   32) = (   0.3888889   0.3888889   0.3888889), wk =   0.0219479
        k(   33) = (   0.3888889   0.3888889  -0.5000000), wk =   0.0329218
        k(   34) = (   0.3888889  -0.5000000  -0.5000000), wk =   0.0164609
        k(   35) = (  -0.5000000  -0.5000000  -0.5000000), wk =   0.0027435

     Dense  grid:   492057 G-vectors     FFT dimensions: ( 100, 100, 100)

     Smooth grid:   263859 G-vectors     FFT dimensions: (  80,  80,  80)

     Estimated max dynamical RAM per process >     542.37 MB

     Estimated total dynamical RAM >      10.59 GB

     Check: negative/imaginary core charge=   -0.000002    0.000000

     Initial potential from superposition of free atoms

     starting charge  575.98776, renormalised to  576.00000
     Starting wfcs are  320 randomized atomic wfcs +   26 random wfcs
     Checking if some PAW data can be deallocated... 

     total cpu time spent up to now is       22.1 secs

     Self-consistent Calculation

     iteration #  1     ecut=    71.00 Ry     beta= 0.10
     Davidson diagonalization with overlap
     ethr =  1.00E-02,  avg # of iterations =  3.1

     Threshold (ethr) on eigenvalues was too large:
     Diagonalizing with lowered threshold

     Davidson diagonalization with overlap
     ethr =  8.30E-05,  avg # of iterations =  3.0

     total cpu time spent up to now is      228.4 secs

     total energy              =  -16385.02003425 Ry
     Harris-Foulkes estimate   =  -16385.08724579 Ry
     estimated scf accuracy    <       0.47241825 Ry

     iteration #  2     ecut=    71.00 Ry     beta= 0.10
     Davidson diagonalization with overlap
     ethr =  8.20E-05,  avg # of iterations =  1.1

     total cpu time spent up to now is      292.4 secs

     total energy              =  -16384.92749709 Ry
     Harris-Foulkes estimate   =  -16385.02769351 Ry
     estimated scf accuracy    <       0.25714560 Ry

     iteration #  3     ecut=    71.00 Ry     beta= 0.10
     Davidson diagonalization with overlap
     ethr =  4.46E-05,  avg # of iterations =  2.2

     total cpu time spent up to now is      380.3 secs

     total energy              =  -16384.96213639 Ry
     Harris-Foulkes estimate   =  -16384.96610020 Ry
     estimated scf accuracy    <       0.05660726 Ry

     iteration #  4     ecut=    71.00 Ry     beta= 0.10
     Davidson diagonalization with overlap
     ethr =  9.83E-06,  avg # of iterations =  1.5

     total cpu time spent up to now is      449.3 secs

     total energy              =  -16384.96166366 Ry
     Harris-Foulkes estimate   =  -16384.96409611 Ry
     estimated scf accuracy    <       0.02161910 Ry

     iteration #  5     ecut=    71.00 Ry     beta= 0.10
     Davidson diagonalization with overlap
     ethr =  3.75E-06,  avg # of iterations =  1.4

     total cpu time spent up to now is      516.3 secs

     total energy              =  -16384.95703569 Ry
     Harris-Foulkes estimate   =  -16384.96186404 Ry
     estimated scf accuracy    <       0.01396864 Ry

     iteration #  6     ecut=    71.00 Ry     beta= 0.10
     Davidson diagonalization with overlap
     ethr =  2.43E-06,  avg # of iterations =  2.0

     total cpu time spent up to now is      596.2 secs

     total energy              =  -16384.95808087 Ry
     Harris-Foulkes estimate   =  -16384.95814410 Ry
     estimated scf accuracy    <       0.00013521 Ry

     iteration #  7     ecut=    71.00 Ry     beta= 0.10
     Davidson diagonalization with overlap
     ethr =  2.35E-08,  avg # of iterations =  3.0

     total cpu time spent up to now is      720.5 secs

     total energy              =  -16384.95813966 Ry
     Harris-Foulkes estimate   =  -16384.95814211 Ry
     estimated scf accuracy    <       0.00005816 Ry

     iteration #  8     ecut=    71.00 Ry     beta= 0.10
     Davidson diagonalization with overlap
     ethr =  1.01E-08,  avg # of iterations =  1.2

     total cpu time spent up to now is      784.9 secs

     total energy              =  -16384.95813558 Ry
     Harris-Foulkes estimate   =  -16384.95814236 Ry
     estimated scf accuracy    <       0.00003903 Ry

     iteration #  9     ecut=    71.00 Ry     beta= 0.10
     Davidson diagonalization with overlap
     ethr =  6.78E-09,  avg # of iterations =  2.0

     total cpu time spent up to now is      872.0 secs

     total energy              =  -16384.95814394 Ry
     Harris-Foulkes estimate   =  -16384.95814043 Ry
     estimated scf accuracy    <       0.00000604 Ry

     iteration # 10     ecut=    71.00 Ry     beta= 0.10
     Davidson diagonalization with overlap
     ethr =  1.05E-09,  avg # of iterations =  1.0

     total cpu time spent up to now is      934.4 secs

     End of self-consistent calculation

          k = 0.0556 0.0556 0.0556 ( 32996 PWs)   bands (ev):

   -64.8696 -64.8405 -64.8404 -64.8404 -64.8349 -64.8348 -64.8348 -64.8247
   -64.8245 -64.8245 -64.8222 -64.8219 -64.8217 -64.8217 -64.8215 -64.8215
   -64.8214 -64.8212 -64.8212 -64.8207 -64.8190 -64.8189 -64.8188 -64.8065
   -64.8060 -64.8059 -64.8057 -64.8056 -64.8056 -64.8055 -64.8054 -64.8049
   -30.7541 -30.7540 -30.7540 -30.7523 -30.7336 -30.7336 -30.7336 -30.6559
   -30.6558 -30.6558 -30.6515 -30.6515 -30.6514 -30.6514 -30.6514 -30.6514
   -30.6436 -30.6436 -30.6436 -30.6383 -30.6383 -30.6383 -30.6383 -30.6383
   -30.6382 -30.6197 -30.6197 -30.6197 -30.6196 -30.6196 -30.6196 -30.5786
   -30.5786 -30.5786 -30.5541 -30.5541 -30.5541 -30.5480 -30.5480 -30.5480
   -30.5386 -30.5386 -30.5386 -30.5386 -30.5386 -30.5386 -30.5236 -30.5236
   -30.5236 -30.5231 -30.5227 -30.5227 -30.5227 -30.5226 -30.5226 -30.5222
   -30.5221 -30.5219 -30.5206 -30.5206 -30.5204 -30.4571 -30.4571 -30.4571
   -30.4569 -30.4569 -30.4569 -30.4447 -30.4447 -30.4446 -30.4445 -30.4445
   -30.4445 -30.4411 -30.4411 -30.4410 -30.4370 -30.4366 -30.4366 -30.4360
   -30.4360 -30.4360 -30.4359 -30.4359 -30.4357 -30.4355 -30.4355 -30.4352
   -30.4345 -30.4345 -30.4288 -30.4288 -30.4288 -30.3832 -30.3807 -30.3807
    12.2944  14.0511  14.0511  14.0511  14.1198  14.1336  14.1336  14.1336
    14.3238  14.3239  14.3240  14.3263  14.3263  14.3263  14.5188  14.5189
    14.5189  15.0644  15.0644  15.0645  15.0645  15.0645  15.0647  15.2184
    15.2185  15.2185  15.3686  15.3687  15.3687  15.4050  15.4051  15.4051
    15.4512  15.4513  15.4513  15.4513  15.4513  15.4513  15.4531  15.4532
    15.4533  15.7951  15.7951  15.7951  15.7952  15.7952  15.7952  15.9024
    15.9025  15.9025  15.9244  15.9244  15.9244  15.9245  15.9245  15.9246
    15.9813  15.9814  15.9814  16.1510  16.1510  16.1511  16.1511  16.1511
    16.1511  16.2565  16.2566  16.2566  16.2609  16.2609  16.2609  16.2609
    16.2609  16.2611  16.3686  16.3687  16.3687  16.4333  16.4333  16.4333
    16.4542  16.4542  16.4649  16.4649  16.4649  16.4828  16.5024  16.5024
    17.2996  17.2996  17.2996  17.3602  17.3603  17.3603  17.4329  17.4330
    17.4330  17.4331  17.4331  17.4331  17.4390  17.4390  17.4391  17.4871
    17.4873  17.4873  17.5906  17.5906  17.5907  17.7091  17.7093  17.7093
    17.8346  17.8346  17.8347  17.8922  17.8922  17.8923  17.9653  17.9655
    17.9655  17.9655  17.9655  17.9655  17.9845  17.9845  17.9845  18.0327
    18.0327  18.0402  18.0402  18.0402  18.0402  18.0402  18.0403  18.1494
    18.1494  18.1495  18.5370  18.5370  18.5371  18.6388  18.6388  18.6389
    19.0218  19.0218  19.0218  19.1463  19.1463  19.1463  19.1732  19.1732
    19.1934  19.1934  19.1934  19.4236  19.4236  19.4236  19.4778  19.4779
    19.4779  19.4779  19.4779  19.4780  19.4810  19.4810  19.4811  20.1446
    20.4510  20.4510  20.4510  20.9771  20.9771  20.9771  21.4874  21.4874
    21.4874  21.4874  21.4874  21.4875  22.0167  22.0168  22.0168  22.5969
    22.5969  22.5969  26.3539  26.3539  26.3539  26.5107  27.5025  27.5025
    27.5025  27.5026  27.5026  27.5026  28.1949  28.1950  28.1950  28.1951
    28.1951  28.1951  29.6085  29.6085  29.6085  29.6086  29.6086  29.6086
    29.7739  29.7739  29.7739  30.7303  30.7668  30.7669  30.7669  30.7670
    30.7670  30.7671

          k = 0.0556 0.0556 0.1667 ( 33001 PWs)   bands (ev):

   -64.8686 -64.8459 -64.8400 -64.8399 -64.8345 -64.8344 -64.8294 -64.8276
   -64.8275 -64.8245 -64.8240 -64.8240 -64.8224 -64.8222 -64.8216 -64.8213
   -64.8210 -64.8207 -64.8189 -64.8185 -64.8184 -64.8164 -64.8164 -64.8068
   -64.8065 -64.8062 -64.8061 -64.8061 -64.8060 -64.8058 -64.8055 -64.8049
   -30.7514 -30.7497 -30.7497 -30.7465 -30.7304 -30.7304 -30.7284 -30.6674
   -30.6621 -30.6621 -30.6578 -30.6577 -30.6567 -30.6566 -30.6563 -30.6563
   -30.6540 -30.6447 -30.6446 -30.6420 -30.6419 -30.6371 -30.6370 -30.6334
   -30.6334 -30.6225 -30.6224 -30.6162 -30.6162 -30.6084 -30.6016 -30.6016
   -30.5834 -30.5834 -30.5693 -30.5693 -30.5541 -30.5541 -30.5535 -30.5535
   -30.5420 -30.5280 -30.5280 -30.5259 -30.5259 -30.5233 -30.5233 -30.5226
   -30.5225 -30.5201 -30.5200 -30.5199 -30.5184 -30.5177 -30.5173 -30.5173
   -30.5168 -30.5167 -30.5138 -30.5087 -30.5087 -30.4694 -30.4690 -30.4598
   -30.4598 -30.4541 -30.4541 -30.4487 -30.4486 -30.4473 -30.4473 -30.4453
   -30.4453 -30.4429 -30.4412 -30.4412 -30.4410 -30.4404 -30.4404 -30.4366
   -30.4366 -30.4365 -30.4361 -30.4357 -30.4352 -30.4334 -30.4332 -30.4332
   -30.4326 -30.4322 -30.4290 -30.4243 -30.4243 -30.3897 -30.3829 -30.3822
    12.3678  14.0250  14.0855  14.0975  14.0975  14.1477  14.1751  14.1751
    14.1886  14.3541  14.3686  14.3686  14.3752  14.3753  14.5708  14.5709
    14.5880  14.9785  14.9786  15.0400  15.0993  15.0994  15.1060  15.1062
    15.1366  15.2175  15.2175  15.2446  15.2446  15.2569  15.2637  15.2638
    15.4103  15.4104  15.4270  15.4270  15.4404  15.4405  15.4768  15.4768
    15.5235  15.5235  15.5946  15.7816  15.7817  15.7981  15.7981  15.8438
    15.8439  15.8534  15.8534  15.9126  15.9126  16.0005  16.0006  16.0158
    16.0618  16.0618  16.1093  16.1136  16.1138  16.1200  16.1201  16.1557
    16.1558  16.2008  16.2009  16.2299  16.2300  16.3926  16.4109  16.4109
    16.4114  16.4115  16.4317  16.4317  16.4464  16.4546  16.4773  16.4778
    16.4876  16.5009  16.5009  16.5088  16.5320  16.5346  16.5397  16.5397
    17.1086  17.1086  17.2197  17.2260  17.2448  17.2449  17.2996  17.2996
    17.3174  17.3632  17.3849  17.3850  17.5034  17.5153  17.5154  17.5285
    17.5285  17.5670  17.5670  17.5764  17.5765  17.7891  17.7892  17.8078
    17.8156  17.8157  17.8817  17.8819  17.9617  17.9617  17.9709  17.9710
    17.9722  17.9722  17.9919  18.0488  18.0505  18.0619  18.0619  18.0892
    18.1800  18.1800  18.1883  18.1884  18.2245  18.2245  18.2795  18.2972
    18.2973  18.3290  18.4387  18.5826  18.5827  18.7075  18.7115  18.7115
    18.7414  18.7589  18.7589  18.9732  19.0845  19.0846  19.1061  19.1229
    19.1659  19.1663  19.1663  19.1919  19.1919  19.3538  19.4063  19.4063
    19.4072  19.4072  19.4194  19.4769  19.4774  19.4779  19.4784  20.1367
    20.5129  20.5129  20.6220  20.6220  20.8527  20.9482  20.9970  20.9971
    21.4646  21.4646  21.9977  22.0554  22.0555  22.2348  22.5967  22.5968
    22.8885  22.8885  26.3524  26.5124  26.5124  26.7856  26.7856  26.7923
    26.7924  26.8071  27.3856  27.3856  27.6352  27.6353  28.3195  28.3197
    28.8343  28.8343  29.6567  29.6567  29.7598  29.7599  29.7703  29.9161
    29.9161  29.9931  29.9931  30.2042  30.2042  30.2278  30.3137  30.3137
    30.7519  30.7519

          k = 0.0556 0.0556 0.2778 ( 32975 PWs)   bands (ev):

   -64.8667 -64.8512 -64.8389 -64.8388 -64.8336 -64.8335 -64.8304 -64.8303
   -64.8264 -64.8263 -64.8244 -64.8241 -64.8228 -64.8222 -64.8216 -64.8213
   -64.8207 -64.8205 -64.8190 -64.8157 -64.8156 -64.8141 -64.8140 -64.8086
   -64.8072 -64.8072 -64.8070 -64.8069 -64.8064 -64.8059 -64.8055 -64.8049
   -30.7444 -30.7413 -30.7413 -30.7368 -30.7241 -30.7241 -30.7185 -30.6845
   -30.6787 -30.6787 -30.6735 -30.6735 -30.6706 -30.6592 -30.6592 -30.6571
   -30.6570 -30.6472 -30.6471 -30.6379 -30.6378 -30.6367 -30.6358 -30.6358
   -30.6232 -30.6232 -30.6213 -30.6212 -30.6103 -30.6103 -30.5918 -30.5918
   -30.5842 -30.5842 -30.5838 -30.5838 -30.5675 -30.5675 -30.5649 -30.5649
   -30.5325 -30.5325 -30.5237 -30.5222 -30.5220 -30.5202 -30.5200 -30.5157
   -30.5143 -30.5113 -30.5113 -30.5087 -30.5087 -30.5079 -30.5079 -30.5067
   -30.5067 -30.4985 -30.4946 -30.4945 -30.4886 -30.4811 -30.4804 -30.4652
   -30.4652 -30.4581 -30.4581 -30.4565 -30.4564 -30.4533 -30.4525 -30.4525
   -30.4492 -30.4491 -30.4486 -30.4486 -30.4427 -30.4406 -30.4377 -30.4366
   -30.4360 -30.4359 -30.4358 -30.4357 -30.4351 -30.4329 -30.4328 -30.4325
   -30.4294 -30.4223 -30.4222 -30.4211 -30.4205 -30.4009 -30.3871 -30.3861
    12.5129  13.6749  14.1517  14.1878  14.1878  14.2173  14.2577  14.2577
    14.2838  14.4092  14.4528  14.4528  14.4744  14.4745  14.5559  14.6715
    14.6716  14.8310  14.8310  14.8745  14.8891  14.9667  14.9667  15.0183
    15.1265  15.1266  15.1646  15.1647  15.1875  15.1876  15.1954  15.1954
    15.2964  15.2965  15.3105  15.3106  15.4224  15.4225  15.4698  15.4699
    15.5875  15.5875  15.7284  15.7284  15.7622  15.7622  15.7804  15.7805
    15.7813  15.8004  15.8005  15.8278  15.8279  15.9401  15.9402  16.0119
    16.0120  16.0631  16.0678  16.0679  16.1387  16.1387  16.1629  16.1629
    16.1689  16.1689  16.2349  16.2501  16.2501  16.3354  16.3698  16.3724
    16.3724  16.4318  16.4319  16.4360  16.5336  16.5684  16.5684  16.5850
    16.5966  16.5987  16.7474  16.7474  16.7649  16.8146  16.9031  16.9032
    16.9594  16.9594  16.9777  16.9778  17.0478  17.1275  17.1334  17.1334
    17.1507  17.1568  17.4536  17.4720  17.4720  17.5692  17.5693  17.6368
    17.6369  17.6525  17.6526  17.7107  17.7108  17.7425  17.7426  17.8058
    17.8059  17.9136  17.9487  17.9488  17.9501  17.9502  17.9732  17.9733
    17.9792  17.9793  18.0808  18.1767  18.2294  18.2294  18.2447  18.2448
    18.2564  18.3394  18.3463  18.3463  18.3867  18.3868  18.3870  18.3871
    18.4344  18.4345  18.4617  18.4774  18.4774  18.5494  18.7274  18.7275
    18.7890  18.7891  18.7950  18.8427  18.9403  18.9403  18.9903  18.9903
    18.9957  19.0725  19.0801  19.0802  19.0924  19.2190  19.2730  19.2730
    19.2742  19.2742  19.3057  19.4765  19.4770  19.4777  19.4782  20.0846
    20.0847  20.3108  20.5357  20.5357  20.8468  20.8468  20.8889  21.2242
    21.4160  21.4160  21.6250  21.9535  22.6912  22.6912  23.2380  23.2380
    23.3772  23.3772  25.9095  25.9096  26.0607  26.0607  26.4693  26.4694
    26.5226  26.8269  26.8269  27.2312  27.8838  27.8839  28.5582  28.5584
    28.8770  29.3313  29.3313  29.4227  29.4227  29.6740  29.6740  29.7321
    29.7321  29.8184  29.8184  29.9819  30.0805  30.0805  30.2446  30.2447
    30.2537  30.2538

          k = 0.0556 0.0556 0.3889 ( 32995 PWs)   bands (ev):

   -64.8639 -64.8560 -64.8374 -64.8373 -64.8330 -64.8330 -64.8323 -64.8322
   -64.8286 -64.8285 -64.8242 -64.8232 -64.8222 -64.8216 -64.8213 -64.8207
   -64.8202 -64.8193 -64.8192 -64.8131 -64.8130 -64.8119 -64.8118 -64.8114
   -64.8087 -64.8087 -64.8082 -64.8081 -64.8064 -64.8059 -64.8055 -64.8049
   -30.7335 -30.7294 -30.7294 -30.7234 -30.7150 -30.7150 -30.7041 -30.7025
   -30.6969 -30.6969 -30.6892 -30.6892 -30.6891 -30.6625 -30.6592 -30.6592
   -30.6542 -30.6541 -30.6526 -30.6526 -30.6430 -30.6430 -30.6255 -30.6254
   -30.6178 -30.6178 -30.6075 -30.6075 -30.6025 -30.6025 -30.6023 -30.6023
   -30.5971 -30.5971 -30.5807 -30.5807 -30.5784 -30.5784 -30.5682 -30.5682
   -30.5419 -30.5419 -30.5219 -30.5216 -30.5206 -30.5203 -30.5095 -30.5082
   -30.5036 -30.4959 -30.4958 -30.4952 -30.4952 -30.4945 -30.4945 -30.4932
   -30.4931 -30.4919 -30.4910 -30.4818 -30.4815 -30.4814 -30.4730 -30.4730
   -30.4693 -30.4692 -30.4691 -30.4691 -30.4673 -30.4615 -30.4606 -30.4606
   -30.4601 -30.4601 -30.4527 -30.4436 -30.4436 -30.4400 -30.4384 -30.4367
   -30.4361 -30.4357 -30.4352 -30.4348 -30.4347 -30.4316 -30.4303 -30.4302
   -30.4298 -30.4228 -30.4227 -30.4168 -30.4105 -30.4097 -30.3932 -30.3922
    12.7258  13.3223  14.2444  14.3170  14.3170  14.3279  14.3803  14.3803
    14.4177  14.4660  14.4906  14.5787  14.5787  14.6141  14.6142  14.6546
    14.6546  14.6666  14.7256  14.7382  14.7382  14.7901  14.8134  14.8135
    14.9513  14.9513  14.9601  14.9602  15.1589  15.1590  15.2495  15.2496
    15.3046  15.3047  15.3732  15.3733  15.3919  15.3920  15.5314  15.5315
    15.5868  15.5868  15.5955  15.5956  15.6943  15.6944  15.7339  15.7339
    15.7512  15.7513  15.7928  15.7928  15.8395  15.8396  15.9586  15.9816
    15.9817  16.0137  16.0137  16.1240  16.1691  16.1691  16.1698  16.1698
    16.2004  16.2004  16.2593  16.2670  16.3027  16.3209  16.3209  16.3524
    16.3525  16.4018  16.4818  16.4819  16.6218  16.6665  16.6666  16.6916
    16.6929  16.6942  16.7224  16.7225  16.7309  16.7309  16.8836  16.9287
    16.9287  16.9697  16.9749  16.9810  17.1611  17.1646  17.1646  17.1790
    17.4051  17.4051  17.5379  17.5379  17.5445  17.5629  17.5630  17.7331
    17.7333  17.7696  17.7697  17.7782  17.7783  17.7943  17.7945  17.8042
    17.8313  17.8314  17.9176  17.9177  17.9521  17.9588  17.9589  17.9612
    17.9614  17.9754  17.9754  17.9911  17.9911  18.0754  18.1279  18.1908
    18.1908  18.2623  18.3391  18.3391  18.4331  18.4331  18.4680  18.5071
    18.5912  18.5912  18.5950  18.6511  18.6581  18.6581  18.6796  18.6796
    18.8327  18.8327  18.8474  18.9419  18.9488  18.9488  18.9773  18.9801
    18.9871  18.9872  19.0278  19.0937  19.0937  19.0947  19.0947  19.1663
    19.2851  19.2852  19.4127  19.4765  19.4770  19.4775  19.4780  19.6860
    19.6860  20.0966  20.0967  20.5027  20.7963  20.8939  21.0529  21.0529
    21.3358  21.3358  21.5214  21.8715  23.3997  23.3997  23.9476  23.9476
    23.9776  23.9776  25.0229  25.0229  25.3414  25.3414  25.5720  25.5721
    26.8736  27.2905  27.2905  27.7725  28.0768  28.2354  28.2354  28.6078
    28.6078  28.8938  28.8939  29.1540  29.1541  29.1614  29.5469  29.5469
    29.6909  29.6909  29.7653  29.7654  30.2134  30.2134  30.2230  30.2230
    30.4465  30.4465

          k = 0.0556 0.0556-0.5000 ( 33030 PWs)   bands (ev):

   -64.8607 -64.8599 -64.8358 -64.8357 -64.8350 -64.8349 -64.8310 -64.8309
   -64.8303 -64.8302 -64.8241 -64.8233 -64.8222 -64.8216 -64.8213 -64.8207
   -64.8200 -64.8193 -64.8154 -64.8146 -64.8111 -64.8110 -64.8103 -64.8103
   -64.8102 -64.8102 -64.8095 -64.8094 -64.8064 -64.8059 -64.8055 -64.8049
   -30.7195 -30.7191 -30.7148 -30.7144 -30.7140 -30.7137 -30.7074 -30.7070
   -30.7037 -30.7037 -30.7029 -30.7029 -30.6856 -30.6848 -30.6571 -30.6570
   -30.6568 -30.6567 -30.6493 -30.6493 -30.6491 -30.6491 -30.6143 -30.6143
   -30.6139 -30.6139 -30.6090 -30.6090 -30.6083 -30.6083 -30.5932 -30.5932
   -30.5928 -30.5928 -30.5927 -30.5927 -30.5920 -30.5920 -30.5543 -30.5543
   -30.5536 -30.5536 -30.5219 -30.5214 -30.5210 -30.5205 -30.5019 -30.5011
   -30.5007 -30.4999 -30.4847 -30.4843 -30.4836 -30.4836 -30.4828 -30.4828
   -30.4827 -30.4827 -30.4823 -30.4823 -30.4817 -30.4817 -30.4814 -30.4814
   -30.4763 -30.4760 -30.4756 -30.4752 -30.4703 -30.4703 -30.4695 -30.4695
   -30.4663 -30.4659 -30.4397 -30.4389 -30.4388 -30.4387 -30.4384 -30.4383
   -30.4376 -30.4369 -30.4367 -30.4361 -30.4357 -30.4351 -30.4311 -30.4303
   -30.4258 -30.4257 -30.4255 -30.4254 -30.4015 -30.4007 -30.4005 -30.3998
    12.9990  12.9999  14.3538  14.3545  14.4761  14.4767  14.4770  14.4775
    14.4783  14.4784  14.5408  14.5409  14.5417  14.5417  14.5877  14.5877
    14.5963  14.5971  14.7449  14.7449  14.7457  14.7457  14.7817  14.7818
    14.7825  14.7826  14.9828  14.9829  14.9835  14.9836  15.3333  15.3334
    15.3336  15.3337  15.4486  15.4487  15.4494  15.4495  15.4734  15.4734
    15.4740  15.4741  15.6078  15.6079  15.6085  15.6085  15.7626  15.7627
    15.7628  15.7629  15.7706  15.7706  15.7707  15.7708  15.9821  15.9821
    15.9821  15.9822  16.1198  16.1205  16.1716  16.1717  16.1722  16.1723
    16.1939  16.1944  16.2612  16.2616  16.2619  16.2623  16.3560  16.3566
    16.5184  16.5185  16.5185  16.5186  16.5793  16.5793  16.5794  16.5795
    16.7395  16.7397  16.7913  16.7916  16.7921  16.7924  16.8185  16.8192
    16.8196  16.8204  16.8251  16.8254  17.5562  17.5562  17.5568  17.5569
    17.5579  17.5580  17.5582  17.5583  17.5616  17.5619  17.6053  17.6055
    17.6744  17.6752  17.7758  17.7759  17.7764  17.7766  17.8592  17.8592
    17.8599  17.8599  17.8691  17.8691  17.8696  17.8696  17.8750  17.8752
    17.8757  17.8758  17.9140  17.9141  17.9147  17.9147  18.0892  18.0892
    18.0899  18.0899  18.1885  18.1893  18.6415  18.6418  18.6422  18.6426
    18.6685  18.6687  18.7821  18.7822  18.7828  18.7829  18.7887  18.7894
    18.8168  18.8171  18.8270  18.8272  18.8824  18.8824  18.8830  18.8830
    18.8905  18.8905  18.8910  18.8910  19.0438  19.0442  19.3167  19.3168
    19.3169  19.3169  19.4764  19.4771  19.4774  19.4780  19.6780  19.6780
    19.6781  19.6782  20.1335  20.1342  20.6672  20.6680  21.2163  21.2163
    21.2171  21.2171  21.7334  21.7341  24.1796  24.1796  24.1799  24.1800
    24.6410  24.6410  24.6416  24.6416  24.7270  24.7270  24.7273  24.7273
    27.3990  27.3992  27.8898  27.8899  27.8905  27.8907  28.4201  28.4202
    28.6662  28.6663  28.6670  28.6670  29.3038  29.3039  29.3045  29.3047
    29.6337  29.6340  29.6345  29.6348  30.3944  30.3945  30.3953  30.3954
    30.6760  30.6768

          k = 0.0556 0.1667 0.1667 ( 32991 PWs)   bands (ev):

   -64.8676 -64.8454 -64.8453 -64.8394 -64.8340 -64.8310 -64.8290 -64.8290
   -64.8274 -64.8273 -64.8240 -64.8239 -64.8233 -64.8219 -64.8207 -64.8206
   -64.8204 -64.8203 -64.8186 -64.8184 -64.8166 -64.8165 -64.8144 -64.8071
   -64.8068 -64.8066 -64.8065 -64.8063 -64.8062 -64.8060 -64.8059 -64.8052
   -30.7487 -30.7487 -30.7440 -30.7393 -30.7273 -30.7256 -30.7256 -30.6701
   -30.6700 -30.6675 -30.6675 -30.6579 -30.6579 -30.6566 -30.6546 -30.6546
   -30.6538 -30.6538 -30.6534 -30.6534 -30.6455 -30.6454 -30.6435 -30.6434
   -30.6200 -30.6134 -30.6134 -30.6117 -30.6117 -30.6069 -30.6069 -30.5987
   -30.5986 -30.5885 -30.5848 -30.5606 -30.5559 -30.5559 -30.5420 -30.5420
   -30.5377 -30.5377 -30.5318 -30.5251 -30.5251 -30.5236 -30.5236 -30.5182
   -30.5180 -30.5177 -30.5176 -30.5172 -30.5160 -30.5160 -30.5140 -30.5140
   -30.5123 -30.5123 -30.5000 -30.5000 -30.4944 -30.4721 -30.4721 -30.4667
   -30.4667 -30.4574 -30.4558 -30.4541 -30.4483 -30.4482 -30.4481 -30.4480
   -30.4451 -30.4451 -30.4442 -30.4442 -30.4439 -30.4433 -30.4397 -30.4387
   -30.4387 -30.4376 -30.4350 -30.4350 -30.4344 -30.4334 -30.4334 -30.4333
   -30.4287 -30.4287 -30.4247 -30.4247 -30.4177 -30.3977 -30.3848 -30.3820
    12.4404  14.0775  14.0775  14.1321  14.1321  14.1391  14.1605  14.2018
    14.2418  14.2418  14.3959  14.3959  14.4139  14.4158  14.6091  14.6403
    14.6404  15.0007  15.0008  15.0211  15.0212  15.0492  15.0492  15.0700
    15.0701  15.0935  15.1403  15.1403  15.1625  15.1625  15.2824  15.2891
    15.2892  15.2978  15.2978  15.3488  15.4589  15.4885  15.4885  15.4948
    15.4949  15.5250  15.5250  15.6120  15.6121  15.7568  15.7569  15.8403
    15.8403  15.8508  15.9456  15.9457  15.9609  15.9610  16.0215  16.0215
    16.0327  16.0933  16.0934  16.1028  16.1028  16.1566  16.1566  16.2544
    16.3025  16.3026  16.3480  16.3481  16.3552  16.3552  16.4025  16.4266
    16.4614  16.4615  16.4632  16.4665  16.4665  16.4845  16.4846  16.5021
    16.5336  16.5336  16.5338  16.5343  16.5468  16.5579  16.5579  16.5637
    17.0086  17.0670  17.0670  17.1178  17.2242  17.2242  17.3320  17.3534
    17.3534  17.3538  17.3539  17.4116  17.4117  17.4348  17.4349  17.4905
    17.4963  17.4964  17.5774  17.6501  17.6599  17.6600  17.6794  17.6794
    17.7029  17.9572  17.9572  17.9745  17.9746  17.9806  18.0389  18.0491
    18.0492  18.0660  18.0662  18.0663  18.0752  18.0753  18.1565  18.1566
    18.1850  18.1850  18.3645  18.3645  18.4052  18.4167  18.4167  18.4189
    18.4598  18.4598  18.4668  18.4669  18.5244  18.5245  18.5562  18.5982
    18.7213  18.8280  18.8807  18.8808  19.0144  19.0155  19.0155  19.0337
    19.1307  19.1617  19.1617  19.1788  19.1788  19.1900  19.3482  19.3482
    19.4056  19.4057  19.4081  19.4081  19.4181  19.4181  19.4407  19.8566
    20.0810  20.4812  20.4812  20.5217  20.9731  20.9731  21.1488  21.1488
    21.5455  21.5455  22.0425  22.0426  22.5252  22.5252  22.5843  22.5844
    23.1508  23.1810  26.1665  26.1665  26.3502  26.3502  26.8132  26.8803
    26.8803  26.9215  26.9216  27.2134  27.5146  27.5146  27.9525  27.9527
    28.9617  28.9617  29.2506  29.2506  29.6426  29.7413  29.7894  29.7894
    29.8764  29.8764  30.1048  30.1049  30.2177  30.2177  30.5982  30.5982
    30.8844  30.8883

          k = 0.0556 0.1667 0.2778 ( 32969 PWs)   bands (ev):

   -64.8658 -64.8505 -64.8441 -64.8384 -64.8343 -64.8332 -64.8301 -64.8283
   -64.8271 -64.8262 -64.8242 -64.8239 -64.8238 -64.8225 -64.8223 -64.8201
   -64.8196 -64.8186 -64.8172 -64.8168 -64.8158 -64.8143 -64.8124 -64.8086
   -64.8076 -64.8075 -64.8074 -64.8070 -64.8067 -64.8063 -64.8060 -64.8053
   -30.7432 -30.7419 -30.7345 -30.7282 -30.7210 -30.7200 -30.7161 -30.6874
   -30.6838 -30.6737 -30.6707 -30.6704 -30.6701 -30.6701 -30.6607 -30.6597
   -30.6594 -30.6540 -30.6532 -30.6512 -30.6493 -30.6481 -30.6449 -30.6386
   -30.6307 -30.6177 -30.6148 -30.6084 -30.6046 -30.6034 -30.5995 -30.5975
   -30.5931 -30.5909 -30.5815 -30.5719 -30.5691 -30.5557 -30.5514 -30.5399
   -30.5378 -30.5361 -30.5302 -30.5245 -30.5226 -30.5192 -30.5183 -30.5176
   -30.5157 -30.5153 -30.5137 -30.5090 -30.5058 -30.5041 -30.5034 -30.5007
   -30.4994 -30.4971 -30.4869 -30.4862 -30.4839 -30.4806 -30.4787 -30.4777
   -30.4626 -30.4616 -30.4615 -30.4599 -30.4575 -30.4572 -30.4567 -30.4559
   -30.4510 -30.4483 -30.4474 -30.4452 -30.4452 -30.4446 -30.4410 -30.4405
   -30.4401 -30.4382 -30.4378 -30.4370 -30.4338 -30.4333 -30.4315 -30.4254
   -30.4234 -30.4230 -30.4228 -30.4167 -30.4139 -30.4102 -30.3891 -30.3843
    12.5836  13.7308  14.1795  14.1989  14.2139  14.2207  14.2229  14.2684
    14.3339  14.3463  14.4501  14.4793  14.4925  14.5038  14.6075  14.6808
    14.7421  14.8179  14.8414  14.8719  14.9030  14.9077  14.9173  14.9501
    15.0402  15.0527  15.0756  15.0866  15.1046  15.1300  15.2034  15.2122
    15.2203  15.2389  15.2687  15.3196  15.3593  15.3811  15.4112  15.5111
    15.5230  15.5358  15.5772  15.6452  15.6838  15.7000  15.7078  15.7941
    15.8027  15.8134  15.8295  15.8447  15.8929  15.9574  15.9659  16.0101
    16.0138  16.0251  16.1116  16.1627  16.2064  16.2092  16.2609  16.2712
    16.2874  16.2898  16.3017  16.3281  16.3617  16.3800  16.3857  16.4181
    16.4446  16.4618  16.5198  16.5506  16.5748  16.5927  16.5972  16.6017
    16.6228  16.6399  16.6458  16.6574  16.6730  16.7755  16.8563  16.8868
    16.9105  16.9183  16.9422  17.0328  17.0528  17.1515  17.1619  17.1765
    17.2472  17.2644  17.2758  17.3496  17.3544  17.4298  17.4370  17.5411
    17.5557  17.5777  17.5837  17.6361  17.6807  17.7644  17.8160  17.8208
    17.8378  17.9147  17.9255  17.9408  17.9720  18.0205  18.0544  18.0651
    18.0891  18.1333  18.1366  18.1796  18.1860  18.1976  18.1979  18.2083
    18.2178  18.2476  18.3208  18.3610  18.3819  18.4149  18.4453  18.5094
    18.5186  18.5477  18.5528  18.5555  18.5604  18.5810  18.5861  18.6734
    18.6803  18.7036  18.7963  18.8800  18.9085  18.9318  19.0090  19.0247
    19.0963  19.1357  19.1368  19.1412  19.2226  19.2394  19.2402  19.2448
    19.2732  19.2763  19.3118  19.4053  19.4091  19.4155  19.4199  19.6908
    19.8906  20.0524  20.4174  20.5124  20.5502  20.9246  21.0570  21.4385
    21.6364  21.9194  22.0112  22.1677  22.5487  22.6915  23.0033  23.2349
    23.6041  23.8198  25.3332  25.5190  25.9779  26.2069  26.3524  26.4856
    26.5226  26.9993  27.1948  27.2098  27.2416  27.7186  27.7260  28.3627
    28.4819  28.7542  28.8938  29.0764  29.1942  29.2916  29.5190  29.6981
    29.8756  29.9738  30.0013  30.1963  30.2536  30.4753  30.5714  30.5877
    30.8138  30.9124

          k = 0.0556 0.1667 0.3889 ( 33011 PWs)   bands (ev):

   -64.8630 -64.8552 -64.8424 -64.8373 -64.8369 -64.8327 -64.8319 -64.8284
   -64.8273 -64.8266 -64.8250 -64.8243 -64.8237 -64.8226 -64.8197 -64.8191
   -64.8188 -64.8187 -64.8173 -64.8142 -64.8133 -64.8122 -64.8113 -64.8107
   -64.8092 -64.8090 -64.8086 -64.8077 -64.8071 -64.8064 -64.8060 -64.8053
   -30.7339 -30.7314 -30.7216 -30.7139 -30.7120 -30.7117 -30.7050 -30.7025
   -30.7013 -30.6883 -30.6881 -30.6864 -30.6783 -30.6697 -30.6679 -30.6632
   -30.6630 -30.6626 -30.6613 -30.6576 -30.6484 -30.6442 -30.6413 -30.6337
   -30.6254 -30.6217 -30.6165 -30.6123 -30.6091 -30.6012 -30.5926 -30.5880
   -30.5861 -30.5853 -30.5812 -30.5758 -30.5688 -30.5656 -30.5642 -30.5536
   -30.5501 -30.5396 -30.5184 -30.5177 -30.5150 -30.5148 -30.5146 -30.5128
   -30.5087 -30.5075 -30.5054 -30.4975 -30.4949 -30.4940 -30.4933 -30.4923
   -30.4897 -30.4885 -30.4858 -30.4833 -30.4756 -30.4749 -30.4714 -30.4713
   -30.4709 -30.4706 -30.4703 -30.4686 -30.4683 -30.4681 -30.4679 -30.4573
   -30.4553 -30.4549 -30.4481 -30.4474 -30.4463 -30.4462 -30.4451 -30.4441
   -30.4430 -30.4419 -30.4361 -30.4354 -30.4343 -30.4318 -30.4296 -30.4268
   -30.4265 -30.4237 -30.4179 -30.4127 -30.4126 -30.4059 -30.3953 -30.3893
    12.7937  13.3824  14.2922  14.3075  14.3247  14.3389  14.3529  14.3746
    14.4635  14.4863  14.5162  14.5302  14.5968  14.6038  14.6120  14.6359
    14.6611  14.6933  14.7010  14.7013  14.7615  14.7766  14.8265  14.8375
    14.8582  14.8865  14.9719  14.9914  15.0092  15.0895  15.2015  15.2203
    15.2257  15.2447  15.2808  15.3359  15.3438  15.4680  15.4766  15.4994
    15.5285  15.5432  15.6062  15.6193  15.6383  15.6453  15.6469  15.6549
    15.6904  15.7335  15.7908  15.8218  15.8332  15.8900  15.9668  15.9914
    16.0234  16.0716  16.1781  16.1861  16.2168  16.2409  16.2576  16.2585
    16.2597  16.2644  16.3112  16.3465  16.3616  16.3678  16.3771  16.4007
    16.4474  16.4835  16.4954  16.6274  16.6311  16.6879  16.6942  16.7025
    16.7075  16.7097  16.7506  16.7623  16.7823  16.8468  16.8535  16.8610
    16.9392  16.9530  16.9724  17.0426  17.0734  17.0976  17.1372  17.1573
    17.3186  17.3270  17.3494  17.3684  17.3740  17.4005  17.4965  17.5892
    17.5912  17.6097  17.6717  17.7202  17.7704  17.7842  17.7949  17.7955
    17.8126  17.8220  17.8694  17.9011  17.9411  17.9645  17.9707  17.9761
    18.0309  18.0380  18.0852  18.1158  18.1412  18.1927  18.2200  18.2318
    18.2630  18.2645  18.2660  18.4037  18.4221  18.4251  18.4532  18.4590
    18.5693  18.6087  18.6508  18.6843  18.7193  18.7425  18.7457  18.7503
    18.7560  18.7607  18.7853  18.8472  18.8508  18.9495  18.9542  18.9784
    19.0030  19.0476  19.0495  19.0952  19.0956  19.0958  19.1002  19.1872
    19.2614  19.3361  19.4056  19.4100  19.4112  19.4132  19.6540  19.6726
    19.7870  20.0408  20.0748  20.3211  20.5834  20.6462  20.8513  21.2027
    21.6755  21.9503  22.0312  22.4668  22.8669  23.4157  23.5811  23.9554
    24.1752  24.4699  24.5216  24.8619  25.0730  25.5003  25.5995  26.1245
    26.5536  26.8782  27.4795  27.5616  27.5880  27.7865  28.0273  28.0905
    28.2857  28.3147  28.5258  28.8252  28.9726  29.1796  29.5167  29.6038
    29.7505  29.9073  29.9247  30.0688  30.1582  30.3477  30.3608  30.4227
    30.4906  30.7529

          k = 0.0556 0.1667-0.5000 ( 33016 PWs)   bands (ev):

   -64.8599 -64.8591 -64.8405 -64.8397 -64.8354 -64.8346 -64.8307 -64.8299
   -64.8263 -64.8263 -64.8255 -64.8255 -64.8236 -64.8228 -64.8196 -64.8188
   -64.8184 -64.8176 -64.8152 -64.8145 -64.8119 -64.8114 -64.8111 -64.8106
   -64.8106 -64.8099 -64.8094 -64.8087 -64.8071 -64.8064 -64.8060 -64.8053
   -30.7210 -30.7207 -30.7178 -30.7174 -30.7060 -30.7056 -30.7013 -30.7007
   -30.7005 -30.6999 -30.6970 -30.6966 -30.6850 -30.6843 -30.6669 -30.6667
   -30.6641 -30.6637 -30.6635 -30.6635 -30.6438 -30.6436 -30.6337 -30.6332
   -30.6216 -30.6215 -30.6212 -30.6211 -30.6015 -30.6012 -30.5923 -30.5918
   -30.5814 -30.5808 -30.5760 -30.5752 -30.5709 -30.5706 -30.5623 -30.5619
   -30.5519 -30.5511 -30.5184 -30.5178 -30.5147 -30.5143 -30.5050 -30.5042
   -30.4998 -30.4991 -30.4967 -30.4959 -30.4943 -30.4940 -30.4871 -30.4868
   -30.4845 -30.4840 -30.4823 -30.4821 -30.4811 -30.4807 -30.4803 -30.4800
   -30.4780 -30.4772 -30.4682 -30.4678 -30.4646 -30.4638 -30.4577 -30.4573
   -30.4572 -30.4564 -30.4525 -30.4520 -30.4474 -30.4470 -30.4452 -30.4444
   -30.4435 -30.4428 -30.4397 -30.4394 -30.4355 -30.4347 -30.4283 -30.4275
   -30.4270 -30.4267 -30.4143 -30.4140 -30.4035 -30.4028 -30.3968 -30.3964
    13.0633  13.0643  14.4027  14.4035  14.4407  14.4408  14.4881  14.4888
    14.5028  14.5036  14.5135  14.5143  14.5193  14.5193  14.6286  14.6286
    14.6343  14.6351  14.6586  14.6587  14.7159  14.7165  14.7681  14.7689
    14.8061  14.8067  14.8842  14.8846  15.0607  15.0613  15.1431  15.1433
    15.3379  15.3380  15.3423  15.3428  15.3765  15.3773  15.4801  15.4809
    15.5560  15.5561  15.5831  15.5839  15.6333  15.6336  15.6578  15.6581
    15.7082  15.7082  15.7412  15.7418  15.7449  15.7453  16.1002  16.1008
    16.1225  16.1231  16.1232  16.1239  16.1423  16.1428  16.2042  16.2043
    16.3045  16.3051  16.3172  16.3176  16.4188  16.4194  16.4565  16.4571
    16.5167  16.5168  16.5609  16.5610  16.5736  16.5737  16.6893  16.6894
    16.7337  16.7339  16.8010  16.8012  16.8173  16.8180  16.8204  16.8212
    16.8824  16.8827  16.9033  16.9036  17.3564  17.3570  17.3664  17.3670
    17.4157  17.4159  17.4275  17.4277  17.4536  17.4538  17.5023  17.5026
    17.5479  17.5485  17.6941  17.6948  17.7010  17.7016  17.7711  17.7716
    17.7840  17.7846  17.8197  17.8201  17.8281  17.8287  17.8952  17.8959
    18.0074  18.0081  18.0466  18.0473  18.1176  18.1183  18.1832  18.1840
    18.3123  18.3131  18.3625  18.3632  18.4352  18.4357  18.6035  18.6042
    18.6442  18.6443  18.6612  18.6619  18.7961  18.7964  18.8206  18.8207
    18.8818  18.8825  18.9086  18.9091  18.9126  18.9128  18.9189  18.9191
    18.9274  18.9279  18.9301  18.9305  19.0182  19.0183  19.0693  19.0695
    19.2846  19.2847  19.4068  19.4075  19.4111  19.4119  19.6568  19.6570
    20.1214  20.1216  20.1930  20.1938  20.4690  20.4696  20.7550  20.7557
    21.8435  21.8442  22.3048  22.3055  23.6385  23.6389  24.2095  24.2101
    24.2124  24.2127  24.7459  24.7461  24.8165  24.8171  25.2903  25.2906
    26.9712  26.9713  27.4086  27.4087  27.8547  27.8555  28.0128  28.0136
    28.3989  28.3997  28.4366  28.4367  28.9947  28.9948  29.3768  29.3770
    29.9084  29.9092  30.0763  30.0770  30.0840  30.0845  30.1921  30.1930
    30.8605  31.0495

          k = 0.0556 0.2778 0.2778 ( 33002 PWs)   bands (ev):

   -64.8639 -64.8492 -64.8491 -64.8380 -64.8374 -64.8324 -64.8297 -64.8296
   -64.8260 -64.8259 -64.8256 -64.8233 -64.8233 -64.8232 -64.8189 -64.8189
   -64.8186 -64.8185 -64.8161 -64.8160 -64.8148 -64.8147 -64.8109 -64.8088
   -64.8086 -64.8083 -64.8082 -64.8077 -64.8076 -64.8066 -64.8064 -64.8056
   -30.7381 -30.7381 -30.7241 -30.7161 -30.7149 -30.7115 -30.7115 -30.6874
   -30.6874 -30.6858 -30.6858 -30.6736 -30.6736 -30.6655 -30.6654 -30.6632
   -30.6631 -30.6598 -30.6598 -30.6579 -30.6579 -30.6484 -30.6465 -30.6464
   -30.6421 -30.6420 -30.6134 -30.6077 -30.6010 -30.6010 -30.5937 -30.5937
   -30.5864 -30.5841 -30.5763 -30.5762 -30.5499 -30.5485 -30.5485 -30.5379
   -30.5379 -30.5360 -30.5359 -30.5257 -30.5256 -30.5133 -30.5133 -30.5116
   -30.5114 -30.5114 -30.5101 -30.5100 -30.5054 -30.5053 -30.4972 -30.4971
   -30.4897 -30.4896 -30.4881 -30.4881 -30.4753 -30.4752 -30.4748 -30.4748
   -30.4698 -30.4697 -30.4674 -30.4674 -30.4588 -30.4588 -30.4569 -30.4562
   -30.4561 -30.4549 -30.4549 -30.4536 -30.4450 -30.4450 -30.4436 -30.4425
   -30.4413 -30.4403 -30.4351 -30.4341 -30.4341 -30.4335 -30.4283 -30.4282
   -30.4242 -30.4241 -30.4241 -30.4114 -30.4114 -30.4081 -30.3934 -30.3844
    12.7232  13.8399  13.8400  14.2480  14.2872  14.2907  14.2907  14.3162
    14.4439  14.4439  14.5265  14.5318  14.5318  14.6023  14.6623  14.7005
    14.7077  14.7078  14.7511  14.7511  14.8641  14.8642  14.8677  14.8677
    14.9513  14.9513  14.9744  14.9745  15.1406  15.1417  15.1418  15.1480
    15.1481  15.2456  15.2456  15.2781  15.2781  15.3224  15.3225  15.4015
    15.4015  15.4802  15.5983  15.5983  15.6045  15.6045  15.6280  15.8169
    15.8169  15.8454  15.8455  15.8572  15.8573  15.8629  15.8715  16.1168
    16.1168  16.1899  16.1899  16.2771  16.2771  16.2802  16.2802  16.3230
    16.3263  16.3263  16.3527  16.3528  16.3714  16.4656  16.4919  16.4985
    16.4986  16.5897  16.5897  16.6040  16.6343  16.6589  16.6714  16.6951
    16.6951  16.6966  16.7419  16.7419  16.7584  16.7585  16.7693  16.8049
    16.9056  16.9056  16.9291  16.9291  17.0957  17.0958  17.1503  17.1504
    17.2317  17.2317  17.2852  17.3251  17.3771  17.3772  17.4080  17.4081
    17.4263  17.4264  17.4943  17.4992  17.6417  17.6417  17.7728  17.8599
    17.8599  17.8754  17.8754  17.8856  17.9102  17.9943  17.9943  18.0679
    18.1091  18.1644  18.1644  18.2199  18.2200  18.2668  18.2669  18.3069
    18.3070  18.4176  18.4176  18.4189  18.4190  18.4404  18.4406  18.4407
    18.4432  18.4943  18.4944  18.6493  18.6926  18.7189  18.7189  18.7253
    18.7254  18.7287  18.7287  18.8311  18.8339  18.8714  18.9936  18.9936
    19.0685  19.1463  19.1463  19.1624  19.1774  19.1774  19.2756  19.2756
    19.2792  19.2792  19.3026  19.3026  19.3425  19.3580  19.6610  19.6883
    19.6883  19.9885  19.9886  20.3696  20.4676  20.4676  21.6582  21.6582
    22.0259  22.0259  22.3889  22.3889  22.6822  22.6823  23.2099  23.2099
    24.0101  24.4483  24.7409  24.7410  25.9962  25.9962  26.3515  26.3515
    26.4830  26.4831  26.9520  26.9520  27.5785  27.5787  27.7534  27.8817
    27.8818  28.2808  28.3973  28.3973  28.4782  29.5819  29.7693  29.7693
    29.9141  29.9142  30.3343  30.3493  30.6158  30.6159  30.7681  30.7682
    30.9853  30.9853

          k = 0.0556 0.2778 0.3889 ( 33028 PWs)   bands (ev):

   -64.8613 -64.8537 -64.8472 -64.8415 -64.8361 -64.8320 -64.8312 -64.8290
   -64.8279 -64.8268 -64.8255 -64.8240 -64.8225 -64.8201 -64.8187 -64.8180
   -64.8175 -64.8164 -64.8154 -64.8153 -64.8137 -64.8128 -64.8111 -64.8097
   -64.8097 -64.8096 -64.8095 -64.8086 -64.8078 -64.8072 -64.8064 -64.8056
   -30.7304 -30.7293 -30.7105 -30.7060 -30.7048 -30.7043 -30.7022 -30.7009
   -30.6993 -30.6855 -30.6847 -30.6846 -30.6809 -30.6771 -30.6729 -30.6726
   -30.6719 -30.6651 -30.6648 -30.6641 -30.6581 -30.6549 -30.6475 -30.6465
   -30.6451 -30.6315 -30.6225 -30.6204 -30.6116 -30.5992 -30.5871 -30.5830
   -30.5792 -30.5687 -30.5674 -30.5612 -30.5605 -30.5604 -30.5514 -30.5483
   -30.5349 -30.5289 -30.5265 -30.5216 -30.5191 -30.5186 -30.5129 -30.5110
   -30.5084 -30.5065 -30.5055 -30.5008 -30.4994 -30.4980 -30.4945 -30.4883
   -30.4878 -30.4872 -30.4862 -30.4860 -30.4833 -30.4778 -30.4750 -30.4741
   -30.4729 -30.4709 -30.4664 -30.4662 -30.4644 -30.4621 -30.4618 -30.4613
   -30.4551 -30.4544 -30.4534 -30.4502 -30.4487 -30.4485 -30.4480 -30.4477
   -30.4419 -30.4405 -30.4391 -30.4369 -30.4354 -30.4352 -30.4349 -30.4309
   -30.4258 -30.4254 -30.4173 -30.4070 -30.4050 -30.4013 -30.3997 -30.3874
    12.9277  13.5006  13.9973  14.3199  14.3856  14.3878  14.4008  14.4211
    14.4222  14.5728  14.5739  14.5754  14.5853  14.6093  14.6139  14.6536
    14.6779  14.6833  14.6875  14.7313  14.7426  14.7682  14.8182  14.8334
    14.8504  14.9026  14.9310  14.9435  15.0128  15.0382  15.0642  15.0754
    15.1137  15.2124  15.2168  15.2517  15.2956  15.3229  15.3259  15.3759
    15.3901  15.4397  15.4678  15.5052  15.5431  15.6515  15.6961  15.7140
    15.7332  15.7811  15.8438  15.8748  15.9022  15.9256  15.9784  16.0870
    16.0999  16.1001  16.1840  16.2408  16.2472  16.3054  16.3518  16.3544
    16.3889  16.3910  16.3966  16.4337  16.4646  16.4853  16.5081  16.5961
    16.6012  16.6390  16.6606  16.6631  16.6772  16.7027  16.7105  16.7409
    16.7458  16.7486  16.7618  16.8456  16.8461  16.8661  16.8711  16.8878
    16.8979  16.9746  16.9764  16.9788  17.0552  17.0746  17.1422  17.1574
    17.1677  17.2045  17.2265  17.2372  17.2479  17.2863  17.3084  17.4078
    17.5178  17.5222  17.5427  17.5522  17.5609  17.5729  17.6357  17.6549
    17.6876  17.7205  17.7785  17.7950  17.8082  17.8898  18.0525  18.0958
    18.1052  18.1153  18.1331  18.1393  18.2647  18.2695  18.2838  18.2971
    18.2981  18.3445  18.4499  18.4714  18.4715  18.4824  18.5387  18.5511
    18.5542  18.6281  18.6563  18.6899  18.6955  18.7565  18.7824  18.8524
    18.8662  18.8663  18.8777  18.8780  18.8899  18.8902  18.9190  18.9408
    19.0336  19.0861  19.0922  19.0934  19.0984  19.1004  19.1033  19.1125
    19.1626  19.2317  19.2817  19.2828  19.2938  19.3171  19.5919  19.6703
    19.8955  20.0359  20.1701  20.2672  20.3146  20.4071  21.1568  21.6716
    22.3363  22.3409  22.5398  22.6419  22.9420  23.1221  23.4300  23.9089
    23.9385  24.1377  24.5380  25.1207  25.1334  25.5118  25.8001  26.3671
    26.5576  26.6595  26.7921  26.9220  27.1490  27.1842  27.4410  27.6139
    27.9002  27.9390  28.1350  28.3539  28.9137  29.2357  29.7938  29.8938
    29.9698  30.0109  30.0912  30.1761  30.2679  30.3765  30.9009  30.9088
    31.0740  31.1438

          k = 0.0556 0.2778-0.5000 ( 33018 PWs)   bands (ev):

   -64.8582 -64.8574 -64.8450 -64.8442 -64.8346 -64.8338 -64.8301 -64.8293
   -64.8284 -64.8276 -64.8252 -64.8244 -64.8218 -64.8210 -64.8175 -64.8168
   -64.8167 -64.8160 -64.8150 -64.8142 -64.8126 -64.8119 -64.8119 -64.8114
   -64.8112 -64.8106 -64.8087 -64.8086 -64.8079 -64.8078 -64.8064 -64.8056
   -30.7190 -30.7187 -30.7173 -30.7169 -30.6963 -30.6956 -30.6949 -30.6947
   -30.6943 -30.6941 -30.6837 -30.6836 -30.6832 -30.6830 -30.6802 -30.6802
   -30.6795 -30.6793 -30.6702 -30.6697 -30.6512 -30.6506 -30.6501 -30.6494
   -30.6343 -30.6339 -30.6206 -30.6206 -30.6156 -30.6152 -30.5738 -30.5735
   -30.5721 -30.5718 -30.5654 -30.5651 -30.5597 -30.5590 -30.5479 -30.5477
   -30.5470 -30.5462 -30.5124 -30.5117 -30.5111 -30.5103 -30.5092 -30.5084
   -30.5066 -30.5064 -30.5053 -30.5051 -30.4999 -30.4997 -30.4981 -30.4973
   -30.4870 -30.4864 -30.4842 -30.4840 -30.4779 -30.4774 -30.4774 -30.4770
   -30.4692 -30.4684 -30.4665 -30.4660 -30.4630 -30.4627 -30.4612 -30.4609
   -30.4556 -30.4549 -30.4522 -30.4516 -30.4515 -30.4509 -30.4501 -30.4497
   -30.4447 -30.4439 -30.4419 -30.4415 -30.4375 -30.4367 -30.4293 -30.4290
   -30.4285 -30.4277 -30.4081 -30.4073 -30.4047 -30.4045 -30.3932 -30.3929
    13.1900  13.1910  14.1943  14.1952  14.4290  14.4291  14.4980  14.4988
    14.5209  14.5214  14.5217  14.5217  14.5850  14.5858  14.6273  14.6277
    14.7102  14.7110  14.7387  14.7387  14.7539  14.7540  14.7714  14.7716
    14.8143  14.8151  14.9163  14.9168  14.9596  14.9597  15.0238  15.0244
    15.1979  15.1987  15.2129  15.2134  15.2924  15.2926  15.3570  15.3572
    15.3648  15.3656  15.5462  15.5468  15.5813  15.5814  15.5946  15.5953
    15.8629  15.8629  15.8660  15.8665  15.9732  15.9734  15.9873  15.9878
    16.0089  16.0095  16.1222  16.1227  16.3312  16.3318  16.4188  16.4194
    16.4289  16.4290  16.4555  16.4560  16.4993  16.4996  16.5153  16.5154
    16.5619  16.5621  16.7106  16.7108  16.7574  16.7579  16.7698  16.7700
    16.7888  16.7889  16.8220  16.8226  16.8268  16.8274  16.8407  16.8410
    16.9974  16.9977  17.0205  17.0208  17.1754  17.1754  17.1807  17.1811
    17.1905  17.1910  17.2560  17.2561  17.2695  17.2696  17.2845  17.2847
    17.3419  17.3424  17.5996  17.6002  17.6031  17.6034  17.6556  17.6561
    17.6847  17.6852  17.7104  17.7112  17.7151  17.7154  18.0021  18.0028
    18.0077  18.0083  18.1944  18.1951  18.2232  18.2238  18.2359  18.2366
    18.3971  18.3978  18.5244  18.5251  18.5287  18.5294  18.6501  18.6509
    18.6733  18.6740  18.7179  18.7179  18.7661  18.7662  18.7663  18.7665
    18.8875  18.8881  18.9149  18.9150  18.9410  18.9414  18.9880  18.9883
    18.9901  18.9905  19.0054  19.0056  19.0107  19.0109  19.0264  19.0265
    19.2229  19.2230  19.2870  19.2878  19.2938  19.2943  19.6243  19.6244
    19.7804  19.7812  20.3449  20.3456  20.6605  20.6607  20.9437  20.9443
    22.5376  22.5383  22.9122  22.9128  23.0971  23.0975  23.5328  23.5333
    24.2480  24.2483  24.7233  24.7235  25.1442  25.1448  25.8799  25.8801
    26.6279  26.6279  26.9858  26.9859  27.0580  27.0587  27.3642  27.3649
    27.5286  27.5293  28.7009  28.7010  29.0365  29.0366  29.6138  29.6139
    29.9133  29.9142  30.0531  30.0540  30.4763  30.4772  30.6671  30.6672
    31.3193  31.3200

          k = 0.0556 0.3889 0.3889 ( 33018 PWs)   bands (ev):

   -64.8587 -64.8516 -64.8515 -64.8453 -64.8348 -64.8312 -64.8311 -64.8302
   -64.8284 -64.8273 -64.8272 -64.8252 -64.8182 -64.8181 -64.8165 -64.8165
   -64.8162 -64.8161 -64.8144 -64.8143 -64.8137 -64.8136 -64.8111 -64.8110
   -64.8107 -64.8106 -64.8101 -64.8100 -64.8086 -64.8070 -64.8068 -64.8059
   -30.7232 -30.7232 -30.7004 -30.7003 -30.6996 -30.6995 -30.6972 -30.6966
   -30.6946 -30.6946 -30.6852 -30.6841 -30.6841 -30.6812 -30.6812 -30.6728
   -30.6727 -30.6661 -30.6660 -30.6652 -30.6651 -30.6639 -30.6639 -30.6516
   -30.6493 -30.6493 -30.6346 -30.6203 -30.6153 -30.5991 -30.5990 -30.5734
   -30.5652 -30.5652 -30.5534 -30.5533 -30.5463 -30.5388 -30.5388 -30.5335
   -30.5335 -30.5329 -30.5328 -30.5281 -30.5281 -30.5095 -30.5094 -30.5052
   -30.5052 -30.5046 -30.5046 -30.5031 -30.5014 -30.5013 -30.4992 -30.4992
   -30.4961 -30.4961 -30.4837 -30.4837 -30.4812 -30.4812 -30.4803 -30.4762
   -30.4762 -30.4660 -30.4660 -30.4635 -30.4635 -30.4633 -30.4633 -30.4606
   -30.4548 -30.4545 -30.4544 -30.4532 -30.4532 -30.4507 -30.4478 -30.4436
   -30.4434 -30.4406 -30.4391 -30.4390 -30.4387 -30.4365 -30.4346 -30.4279
   -30.4279 -30.4241 -30.4241 -30.4061 -30.3999 -30.3981 -30.3981 -30.3880
    13.1239  13.6722  13.6723  14.1446  14.3653  14.4588  14.4685  14.5194
    14.5194  14.5519  14.5520  14.5535  14.6687  14.6687  14.6952  14.7134
    14.7134  14.7275  14.7275  14.7290  14.7290  14.7534  14.7535  14.8734
    14.8734  14.8886  14.9050  14.9416  14.9417  15.0463  15.0463  15.0493
    15.0494  15.0743  15.0743  15.1184  15.1184  15.2526  15.2527  15.2667
    15.2667  15.2949  15.2949  15.5314  15.5314  15.5817  15.7705  15.7706
    15.7753  15.7754  15.8717  15.9375  15.9793  15.9794  15.9844  15.9845
    15.9994  16.1913  16.2997  16.2998  16.3532  16.4742  16.4853  16.4853
    16.5228  16.5228  16.5288  16.5288  16.5293  16.5294  16.5676  16.5676
    16.5947  16.6080  16.7514  16.7619  16.7770  16.7771  16.7848  16.8113
    16.8312  16.8424  16.8424  16.8620  16.8633  16.8634  16.9782  16.9783
    16.9886  16.9886  16.9912  16.9913  17.0077  17.0077  17.1068  17.1069
    17.1131  17.1302  17.2028  17.2028  17.2070  17.2689  17.3106  17.3107
    17.3158  17.3255  17.3255  17.3436  17.3437  17.3684  17.3685  17.5289
    17.6369  17.6369  17.6557  17.6557  17.7641  17.8284  17.8284  17.8598
    18.0158  18.1605  18.2566  18.2567  18.3014  18.3014  18.3897  18.3898
    18.4630  18.4630  18.5142  18.5142  18.5715  18.5716  18.5717  18.6775
    18.6775  18.7719  18.7963  18.8004  18.8004  18.8039  18.8039  18.8040
    18.8093  18.8093  18.8734  18.9433  18.9742  18.9742  18.9790  18.9791
    18.9896  19.0782  19.0782  19.1045  19.1045  19.1076  19.1076  19.1112
    19.1350  19.1351  19.1361  19.1362  19.2333  19.3120  19.4289  19.5057
    19.5058  19.9950  19.9950  20.0851  20.7757  20.7757  21.8172  21.8172
    22.2072  22.2072  22.9773  22.9773  23.3405  23.3405  23.4027  23.4027
    23.8209  23.8210  24.9937  24.9937  25.0223  25.7925  26.2103  26.2103
    26.3760  26.3760  26.6244  26.6244  26.7811  26.7811  27.1881  27.1881
    27.2983  27.3113  27.3115  28.6020  28.9893  29.5686  29.9090  29.9138
    29.9139  30.0481  30.4525  30.4526  30.6234  30.6234  31.0416  31.0416
    31.4720  31.4721

          k = 0.0556 0.3889-0.5000 ( 33038 PWs)   bands (ev):

   -64.8558 -64.8551 -64.8491 -64.8483 -64.8335 -64.8327 -64.8303 -64.8295
   -64.8292 -64.8284 -64.8267 -64.8259 -64.8177 -64.8169 -64.8156 -64.8152
   -64.8148 -64.8145 -64.8145 -64.8138 -64.8133 -64.8128 -64.8126 -64.8125
   -64.8120 -64.8117 -64.8109 -64.8102 -64.8080 -64.8072 -64.8068 -64.8061
   -30.7135 -30.7133 -30.7130 -30.7127 -30.6936 -30.6935 -30.6934 -30.6934
   -30.6890 -30.6883 -30.6864 -30.6856 -30.6817 -30.6811 -30.6810 -30.6806
   -30.6750 -30.6745 -30.6679 -30.6675 -30.6662 -30.6656 -30.6629 -30.6622
   -30.6496 -30.6492 -30.6327 -30.6323 -30.6108 -30.6108 -30.5862 -30.5860
   -30.5518 -30.5516 -30.5484 -30.5483 -30.5446 -30.5438 -30.5401 -30.5393
   -30.5249 -30.5248 -30.5208 -30.5200 -30.5199 -30.5192 -30.5180 -30.5179
   -30.5151 -30.5150 -30.5036 -30.5030 -30.4989 -30.4988 -30.4957 -30.4950
   -30.4898 -30.4892 -30.4876 -30.4875 -30.4817 -30.4816 -30.4801 -30.4795
   -30.4731 -30.4729 -30.4726 -30.4725 -30.4598 -30.4597 -30.4593 -30.4591
   -30.4591 -30.4585 -30.4553 -30.4550 -30.4463 -30.4455 -30.4450 -30.4446
   -30.4435 -30.4431 -30.4421 -30.4414 -30.4333 -30.4329 -30.4326 -30.4325
   -30.4316 -30.4309 -30.4147 -30.4139 -30.3976 -30.3976 -30.3918 -30.3917
    13.3751  13.3761  13.8899  13.8908  14.4431  14.4432  14.5454  14.5457
    14.5484  14.5484  14.5825  14.5828  14.6346  14.6353  14.6742  14.6743
    14.6854  14.6862  14.8022  14.8023  14.8238  14.8246  14.8688  14.8689
    14.8728  14.8729  14.8831  14.8838  14.9252  14.9258  14.9968  14.9976
    15.0630  15.0633  15.0866  15.0871  15.1575  15.1583  15.1653  15.1655
    15.1766  15.1767  15.4137  15.4138  15.6354  15.6360  15.6413  15.6421
    15.8652  15.8657  15.8722  15.8729  15.9735  15.9738  16.1034  16.1037
    16.1127  16.1130  16.2559  16.2559  16.3420  16.3426  16.4813  16.4818
    16.5275  16.5275  16.5463  16.5465  16.6527  16.6528  16.6875  16.6877
    16.7712  16.7718  16.8259  16.8261  16.8324  16.8330  16.8335  16.8335
    16.8390  16.8392  16.8568  16.8571  16.9242  16.9244  16.9464  16.9464
    16.9705  16.9706  17.0339  17.0342  17.0343  17.0346  17.0452  17.0456
    17.0531  17.0535  17.0846  17.0848  17.1696  17.1699  17.1713  17.1717
    17.1997  17.2000  17.3926  17.3929  17.4996  17.5000  17.5139  17.5143
    17.5490  17.5492  17.5756  17.5762  17.5873  17.5880  17.6913  17.6920
    18.1436  18.1443  18.2559  18.2565  18.4095  18.4100  18.4216  18.4223
    18.4353  18.4360  18.5530  18.5534  18.6515  18.6522  18.6880  18.6887
    18.6988  18.6990  18.7245  18.7252  18.8321  18.8322  18.9002  18.9008
    18.9053  18.9060  18.9671  18.9674  18.9931  18.9934  19.0109  19.0111
    19.0405  19.0408  19.0435  19.0438  19.0581  19.0584  19.0625  19.0627
    19.1182  19.1189  19.1424  19.1425  19.1732  19.1735  19.4171  19.4178
    19.6157  19.6159  19.9890  19.9896  21.2944  21.2948  21.4666  21.4672
    22.5528  22.5533  22.7696  22.7701  23.2697  23.2703  23.5040  23.5045
    24.2095  24.2096  24.5038  24.5039  25.5897  25.5904  26.4201  26.4202
    26.4716  26.4716  26.5463  26.5467  26.6466  26.6467  26.7739  26.7744
    26.8355  26.8361  27.9406  27.9408  29.6901  29.6902  29.8925  29.8934
    29.9635  29.9644  30.2787  30.2788  31.0248  31.0256  31.1296  31.1298
    31.1575  31.1575

          k = 0.0556-0.5000-0.5000 ( 32992 PWs)   bands (ev):

   -64.8529 -64.8526 -64.8521 -64.8518 -64.8322 -64.8319 -64.8314 -64.8311
   -64.8282 -64.8279 -64.8274 -64.8272 -64.8143 -64.8142 -64.8140 -64.8140
   -64.8139 -64.8139 -64.8137 -64.8137 -64.8136 -64.8135 -64.8132 -64.8132
   -64.8131 -64.8130 -64.8129 -64.8129 -64.8075 -64.8073 -64.8067 -64.8065
   -30.7050 -30.7049 -30.7049 -30.7048 -30.7047 -30.7047 -30.7046 -30.7046
   -30.6790 -30.6790 -30.6788 -30.6787 -30.6784 -30.6783 -30.6781 -30.6781
   -30.6757 -30.6754 -30.6749 -30.6747 -30.6657 -30.6656 -30.6653 -30.6652
   -30.6507 -30.6505 -30.6503 -30.6501 -30.5987 -30.5987 -30.5987 -30.5987
   -30.5325 -30.5324 -30.5324 -30.5324 -30.5324 -30.5324 -30.5324 -30.5323
   -30.5313 -30.5313 -30.5311 -30.5310 -30.5305 -30.5305 -30.5303 -30.5302
   -30.5026 -30.5026 -30.5026 -30.5026 -30.4930 -30.4928 -30.4928 -30.4927
   -30.4926 -30.4925 -30.4923 -30.4922 -30.4921 -30.4919 -30.4919 -30.4917
   -30.4670 -30.4670 -30.4669 -30.4668 -30.4665 -30.4664 -30.4663 -30.4662
   -30.4520 -30.4519 -30.4517 -30.4515 -30.4472 -30.4472 -30.4472 -30.4472
   -30.4386 -30.4386 -30.4386 -30.4386 -30.4367 -30.4366 -30.4363 -30.4362
   -30.4233 -30.4231 -30.4225 -30.4223 -30.3931 -30.3931 -30.3931 -30.3931
    13.6115  13.6121  13.6124  13.6130  14.4824  14.4826  14.4826  14.4828
    14.5992  14.5993  14.5993  14.5994  14.6760  14.6761  14.6762  14.6763
    14.8041  14.8041  14.8045  14.8046  14.8048  14.8049  14.8053  14.8053
    14.9740  14.9740  14.9744  14.9746  14.9747  14.9748  14.9752  14.9752
    15.0143  15.0143  15.0143  15.0144  15.0144  15.0144  15.0145  15.0145
    15.2338  15.2339  15.2340  15.2340  15.7443  15.7444  15.7447  15.7448
    15.7450  15.7451  15.7454  15.7454  16.0546  16.0548  16.0548  16.0550
    16.2981  16.2985  16.2987  16.2991  16.4898  16.4901  16.4904  16.4907
    16.6084  16.6085  16.6087  16.6089  16.6209  16.6210  16.6211  16.6212
    16.8439  16.8441  16.8443  16.8445  16.8726  16.8727  16.8728  16.8728
    16.8728  16.8728  16.8730  16.8730  16.9247  16.9248  16.9248  16.9251
    16.9320  16.9321  16.9323  16.9324  17.0394  17.0395  17.0398  17.0398
    17.1599  17.1599  17.1600  17.1602  17.1603  17.1604  17.1605  17.1606
    17.3235  17.3238  17.3238  17.3241  17.3368  17.3368  17.3370  17.3370
    17.3372  17.3372  17.3373  17.3374  17.6363  17.6365  17.6371  17.6373
    18.2896  18.2898  18.2903  18.2905  18.3794  18.3796  18.3799  18.3800
    18.5763  18.5764  18.5765  18.5766  18.5769  18.5770  18.5771  18.5772
    18.8971  18.8972  18.8976  18.8976  18.9239  18.9239  18.9240  18.9241
    18.9244  18.9246  18.9246  18.9247  19.0372  19.0372  19.0376  19.0377
    19.0696  19.0696  19.0697  19.0697  19.0698  19.0699  19.0699  19.0699
    19.0699  19.0701  19.0701  19.0703  19.1387  19.1388  19.1391  19.1392
    19.7227  19.7229  19.7232  19.7234  22.0071  22.0073  22.0074  22.0074
    22.0076  22.0077  22.0078  22.0079  23.9737  23.9738  23.9738  23.9740
    23.9740  23.9742  23.9742  23.9743  26.1172  26.1176  26.1178  26.1182
    26.4526  26.4526  26.4526  26.4528  26.4528  26.4529  26.4529  26.4529
    27.2158  27.2161  27.2162  27.2163  29.9119  29.9121  29.9128  29.9131
    30.3976  30.3977  30.3978  30.3978  30.9903  30.9904  30.9904  30.9904
    31.5756  31.5759

          k = 0.1667 0.1667 0.1667 ( 32972 PWs)   bands (ev):

   -64.8667 -64.8448 -64.8447 -64.8447 -64.8308 -64.8307 -64.8307 -64.8287
   -64.8286 -64.8286 -64.8248 -64.8213 -64.8208 -64.8207 -64.8206 -64.8205
   -64.8204 -64.8203 -64.8202 -64.8197 -64.8147 -64.8146 -64.8146 -64.8074
   -64.8069 -64.8069 -64.8067 -64.8066 -64.8065 -64.8064 -64.8063 -64.8059
   -30.7445 -30.7445 -30.7445 -30.7305 -30.7227 -30.7227 -30.7227 -30.6705
   -30.6704 -30.6704 -30.6630 -30.6630 -30.6630 -30.6630 -30.6629 -30.6629
   -30.6578 -30.6578 -30.6578 -30.6577 -30.6577 -30.6577 -30.6299 -30.6299
   -30.6299 -30.6154 -30.6154 -30.6154 -30.6010 -30.6010 -30.6010 -30.6010
   -30.6009 -30.6009 -30.5692 -30.5692 -30.5692 -30.5328 -30.5328 -30.5327
   -30.5294 -30.5294 -30.5293 -30.5281 -30.5281 -30.5281 -30.5281 -30.5281
   -30.5281 -30.5154 -30.5153 -30.5153 -30.5122 -30.5122 -30.5122 -30.5122
   -30.5122 -30.5121 -30.4863 -30.4863 -30.4863 -30.4712 -30.4711 -30.4711
   -30.4675 -30.4675 -30.4674 -30.4536 -30.4536 -30.4536 -30.4502 -30.4502
   -30.4502 -30.4442 -30.4442 -30.4441 -30.4441 -30.4441 -30.4441 -30.4406
   -30.4406 -30.4406 -30.4323 -30.4323 -30.4322 -30.4313 -30.4313 -30.4300
   -30.4299 -30.4299 -30.4183 -30.4183 -30.4183 -30.4060 -30.3840 -30.3840
    12.5118  14.1221  14.1222  14.1223  14.1576  14.1736  14.1736  14.1736
    14.2798  14.2798  14.2799  14.4412  14.4412  14.4412  14.6770  14.6772
    14.6772  14.9207  14.9207  14.9208  15.0404  15.0405  15.0405  15.0405
    15.0405  15.0407  15.1128  15.1129  15.1129  15.2543  15.2544  15.2544
    15.2585  15.2585  15.2585  15.2586  15.2586  15.2586  15.5007  15.5007
    15.5007  15.5008  15.5008  15.5008  15.6378  15.6379  15.6379  15.9295
    15.9296  15.9297  16.0214  16.0214  16.0215  16.0215  16.0215  16.0216
    16.0837  16.0839  16.0839  16.1725  16.1725  16.1725  16.1725  16.1725
    16.1726  16.3236  16.3236  16.3236  16.4109  16.4903  16.4903  16.4903
    16.4904  16.4904  16.4904  16.5027  16.5027  16.5027  16.5032  16.5032
    16.5650  16.5651  16.5651  16.5745  16.5745  16.5989  16.5989  16.5989
    16.9903  16.9904  16.9904  17.1603  17.1603  17.1603  17.2925  17.2925
    17.2926  17.3431  17.3433  17.3433  17.4665  17.4665  17.4667  17.5141
    17.5142  17.5142  17.5143  17.5143  17.5143  17.8019  17.8021  17.8021
    17.8474  17.8474  17.8475  17.9246  17.9246  17.9247  18.0006  18.0006
    18.0514  18.0516  18.0516  18.0516  18.0516  18.0516  18.2688  18.2689
    18.2689  18.3625  18.3626  18.3626  18.3626  18.3626  18.3627  18.4788
    18.4788  18.4789  18.5136  18.5136  18.5137  18.8447  18.8447  18.8447
    18.8584  18.8585  18.8585  18.9354  18.9354  18.9354  18.9848  18.9848
    18.9848  19.0280  19.0280  19.2030  19.2030  19.2030  19.2684  19.3496
    19.3496  19.3496  19.3496  19.3496  19.3496  19.4104  19.4104  19.4104
    20.0458  20.0459  20.0459  21.1920  21.1920  21.1920  21.5341  21.5341
    21.5341  21.5341  21.5341  21.5342  22.7820  22.7820  22.7820  23.1712
    23.1713  23.1713  26.2775  26.2775  26.2776  26.2776  26.2776  26.2777
    26.5140  26.5140  26.5140  27.6977  28.0624  28.0624  28.0624  28.0625
    28.0625  28.0626  28.7308  28.7308  28.7308  30.1991  30.1991  30.1991
    30.3520  30.3520  30.3520  30.3521  30.3521  30.3521  30.5489  30.5489
    30.5489  30.5489

          k = 0.1667 0.1667 0.2778 ( 32998 PWs)   bands (ev):

   -64.8648 -64.8498 -64.8436 -64.8435 -64.8340 -64.8339 -64.8303 -64.8280
   -64.8279 -64.8261 -64.8236 -64.8224 -64.8223 -64.8212 -64.8207 -64.8203
   -64.8197 -64.8191 -64.8173 -64.8173 -64.8151 -64.8128 -64.8127 -64.8086
   -64.8078 -64.8077 -64.8074 -64.8073 -64.8072 -64.8068 -64.8064 -64.8059
   -30.7407 -30.7367 -30.7367 -30.7180 -30.7171 -30.7171 -30.7140 -30.6885
   -30.6781 -30.6781 -30.6722 -30.6722 -30.6690 -30.6689 -30.6685 -30.6684
   -30.6633 -30.6632 -30.6581 -30.6581 -30.6565 -30.6565 -30.6463 -30.6408
   -30.6221 -30.6221 -30.6144 -30.6144 -30.6035 -30.6034 -30.5916 -30.5916
   -30.5862 -30.5862 -30.5814 -30.5814 -30.5475 -30.5460 -30.5460 -30.5420
   -30.5420 -30.5372 -30.5372 -30.5245 -30.5148 -30.5147 -30.5137 -30.5136
   -30.5130 -30.5130 -30.5121 -30.5119 -30.5114 -30.5058 -30.5049 -30.5048
   -30.5030 -30.5030 -30.4846 -30.4786 -30.4751 -30.4751 -30.4739 -30.4734
   -30.4734 -30.4643 -30.4639 -30.4639 -30.4610 -30.4610 -30.4564 -30.4564
   -30.4560 -30.4560 -30.4525 -30.4453 -30.4453 -30.4442 -30.4441 -30.4436
   -30.4424 -30.4422 -30.4359 -30.4359 -30.4331 -30.4282 -30.4249 -30.4249
   -30.4211 -30.4194 -30.4192 -30.4172 -30.4146 -30.4146 -30.3881 -30.3855
    12.6529  13.7811  14.1939  14.2080  14.2081  14.2398  14.2548  14.2548
    14.3556  14.3556  14.3926  14.4953  14.5308  14.5308  14.6436  14.7179
    14.7462  14.7463  14.7781  14.7781  14.8776  14.8776  14.9535  15.0141
    15.0141  15.0731  15.0732  15.0887  15.1168  15.1169  15.1739  15.1740
    15.1997  15.1998  15.2144  15.2145  15.2563  15.2563  15.3303  15.3304
    15.5118  15.5119  15.5317  15.5318  15.6885  15.6886  15.8138  15.8504
    15.8505  15.8738  15.8739  15.9156  15.9413  15.9413  16.0309  16.0310
    16.0640  16.0640  16.1522  16.1523  16.1568  16.1569  16.2314  16.2818
    16.2818  16.3454  16.3556  16.4153  16.4153  16.4994  16.4995  16.4998
    16.4999  16.5074  16.5075  16.5224  16.5378  16.6047  16.6047  16.6210
    16.6298  16.6747  16.6747  16.6876  16.6943  16.7824  16.8752  16.8752
    16.8773  16.8773  16.9853  16.9863  17.0918  17.0919  17.1131  17.1639
    17.1639  17.2542  17.2542  17.3042  17.3236  17.3236  17.5747  17.5748
    17.6066  17.6068  17.6488  17.6521  17.6790  17.6790  17.8002  17.8003
    17.8475  17.8477  17.9248  17.9249  17.9279  17.9730  17.9730  17.9735
    18.0022  18.0023  18.0402  18.0447  18.0447  18.0712  18.1488  18.2131
    18.2131  18.3662  18.4090  18.4091  18.5458  18.5458  18.5657  18.5685
    18.5686  18.5784  18.5784  18.5874  18.5874  18.6439  18.6439  18.6702
    18.7823  18.7857  18.7857  18.8864  18.8880  18.8952  18.8952  18.9650
    19.1696  19.1870  19.1870  19.2430  19.2430  19.2453  19.2453  19.2539
    19.2540  19.3526  19.3526  19.3533  19.3537  19.3909  19.3945  19.3945
    19.6549  19.6550  19.9754  21.0489  21.0490  21.2638  21.2638  21.5100
    21.5100  21.8299  22.1710  22.1730  22.1731  23.1325  23.2207  23.2207
    23.8139  23.8139  25.4202  25.4203  25.6446  25.6446  26.3477  26.4431
    26.4432  26.8372  26.8372  27.1861  27.1861  27.8636  28.2294  28.2295
    28.2579  28.2741  28.2742  28.5977  28.5977  29.4583  29.4583  29.8466
    29.8467  30.1434  30.1434  30.4951  30.4951  30.7252  30.7252  30.9452
    30.9452  30.9791

          k = 0.1667 0.1667 0.3889 ( 33010 PWs)   bands (ev):

   -64.8622 -64.8545 -64.8419 -64.8418 -64.8370 -64.8369 -64.8296 -64.8274
   -64.8271 -64.8270 -64.8241 -64.8240 -64.8212 -64.8207 -64.8203 -64.8197
   -64.8189 -64.8179 -64.8157 -64.8144 -64.8143 -64.8113 -64.8111 -64.8111
   -64.8095 -64.8094 -64.8082 -64.8082 -64.8074 -64.8068 -64.8064 -64.8059
   -30.7328 -30.7253 -30.7253 -30.7089 -30.7089 -30.7060 -30.7024 -30.7011
   -30.6949 -30.6949 -30.6860 -30.6860 -30.6710 -30.6710 -30.6680 -30.6679
   -30.6662 -30.6661 -30.6652 -30.6640 -30.6596 -30.6595 -30.6486 -30.6486
   -30.6306 -30.6306 -30.6033 -30.6033 -30.5974 -30.5974 -30.5917 -30.5917
   -30.5806 -30.5806 -30.5718 -30.5718 -30.5621 -30.5621 -30.5555 -30.5555
   -30.5470 -30.5470 -30.5245 -30.5173 -30.5128 -30.5126 -30.5120 -30.5117
   -30.5056 -30.5024 -30.5024 -30.4970 -30.4965 -30.4964 -30.4946 -30.4946
   -30.4919 -30.4919 -30.4889 -30.4822 -30.4822 -30.4819 -30.4802 -30.4702
   -30.4702 -30.4695 -30.4694 -30.4665 -30.4665 -30.4617 -30.4617 -30.4605
   -30.4586 -30.4585 -30.4508 -30.4485 -30.4485 -30.4463 -30.4443 -30.4439
   -30.4432 -30.4429 -30.4426 -30.4425 -30.4391 -30.4362 -30.4256 -30.4210
   -30.4194 -30.4194 -30.4137 -30.4137 -30.4108 -30.4061 -30.3940 -30.3898
    12.8597  13.4387  14.2693  14.3278  14.3279  14.3323  14.3725  14.3725
    14.4682  14.4682  14.5344  14.5368  14.5532  14.5756  14.6253  14.6254
    14.6626  14.6626  14.6951  14.6951  14.7992  14.7992  14.8079  14.8400
    14.8401  14.8963  15.0322  15.0322  15.0648  15.0649  15.1097  15.1098
    15.1779  15.1780  15.2205  15.2206  15.3316  15.3317  15.3618  15.3618
    15.5295  15.5296  15.5900  15.5900  15.6800  15.6801  15.7150  15.7151
    15.7616  15.7617  15.7803  15.7804  15.9476  15.9477  15.9613  15.9806
    16.1142  16.1142  16.1335  16.1811  16.1812  16.2291  16.2291  16.2591
    16.3263  16.3264  16.3377  16.3378  16.4633  16.5078  16.5079  16.5104
    16.5104  16.5226  16.6052  16.6311  16.6312  16.7048  16.7122  16.7656
    16.7657  16.7789  16.7789  16.8178  16.8189  16.8189  16.8196  16.8197
    16.8322  16.9215  16.9551  17.0209  17.0753  17.1308  17.1717  17.1717
    17.1883  17.1883  17.2295  17.2295  17.2943  17.2943  17.6332  17.6332
    17.6409  17.6742  17.6862  17.6864  17.7010  17.7011  17.7975  17.7977
    17.8267  17.8267  17.8293  17.8304  17.8305  17.9254  17.9255  17.9498
    17.9500  17.9784  18.0010  18.0120  18.0121  18.0984  18.1692  18.1692
    18.2635  18.2964  18.3673  18.4057  18.4057  18.4930  18.4930  18.5639
    18.6985  18.6985  18.7122  18.7202  18.7203  18.7472  18.7627  18.7627
    18.7658  18.7658  18.7873  18.7873  18.7936  18.7936  18.8321  19.0791
    19.0925  19.1047  19.1048  19.1054  19.1054  19.1070  19.1070  19.2766
    19.3010  19.3010  19.3578  19.3578  19.3784  19.3785  19.5543  19.6804
    19.6805  19.8695  20.0151  20.5800  20.5801  21.3435  21.3435  21.4514
    21.4709  21.4709  22.3809  22.8916  22.8916  23.0232  23.7663  23.7663
    24.5192  24.5192  24.5354  24.5354  25.0034  25.0034  26.0804  26.0805
    26.3652  26.9709  26.9710  27.1373  27.3099  27.3099  27.7530  27.7530
    28.5740  28.5741  28.6399  28.6399  28.8895  29.1155  29.1155  29.3747
    29.3748  29.9756  29.9756  30.3512  30.4695  30.4695  30.6746  30.6746
    30.8659  30.8660

          k = 0.1667 0.1667-0.5000 ( 33000 PWs)   bands (ev):

   -64.8590 -64.8583 -64.8400 -64.8399 -64.8393 -64.8392 -64.8289 -64.8282
   -64.8261 -64.8260 -64.8253 -64.8252 -64.8212 -64.8207 -64.8203 -64.8197
   -64.8171 -64.8164 -64.8151 -64.8143 -64.8121 -64.8120 -64.8113 -64.8113
   -64.8100 -64.8099 -64.8092 -64.8091 -64.8074 -64.8068 -64.8064 -64.8059
   -30.7211 -30.7209 -30.7117 -30.7114 -30.7109 -30.7106 -30.6989 -30.6988
   -30.6981 -30.6980 -30.6846 -30.6846 -30.6842 -30.6839 -30.6709 -30.6709
   -30.6707 -30.6706 -30.6627 -30.6626 -30.6624 -30.6623 -30.6399 -30.6399
   -30.6394 -30.6394 -30.5994 -30.5994 -30.5991 -30.5991 -30.5799 -30.5799
   -30.5796 -30.5796 -30.5687 -30.5687 -30.5681 -30.5681 -30.5588 -30.5588
   -30.5583 -30.5583 -30.5126 -30.5123 -30.5119 -30.5115 -30.5084 -30.5076
   -30.5023 -30.5021 -30.4984 -30.4976 -30.4918 -30.4918 -30.4911 -30.4910
   -30.4828 -30.4828 -30.4823 -30.4823 -30.4808 -30.4808 -30.4808 -30.4806
   -30.4805 -30.4805 -30.4801 -30.4799 -30.4569 -30.4567 -30.4533 -30.4532
   -30.4528 -30.4528 -30.4517 -30.4517 -30.4510 -30.4509 -30.4491 -30.4485
   -30.4483 -30.4482 -30.4444 -30.4439 -30.4436 -30.4431 -30.4235 -30.4227
   -30.4155 -30.4155 -30.4153 -30.4153 -30.4021 -30.4013 -30.3970 -30.3967
    13.1250  13.1259  14.3834  14.3835  14.4413  14.4421  14.4708  14.4709
    14.4715  14.4716  14.5213  14.5218  14.5219  14.5224  14.6162  14.6162
    14.6170  14.6170  14.6802  14.6810  14.7072  14.7074  14.8316  14.8317
    14.8322  14.8323  14.9493  14.9494  14.9496  14.9497  15.1443  15.1443
    15.1444  15.1444  15.3220  15.3221  15.3227  15.3228  15.5061  15.5062
    15.5063  15.5063  15.5702  15.5703  15.5708  15.5709  15.6769  15.6770
    15.6771  15.6772  15.8515  15.8516  15.8520  15.8521  16.0392  16.0397
    16.1311  16.1317  16.1708  16.1710  16.1714  16.1717  16.2424  16.2425
    16.2428  16.2429  16.5046  16.5051  16.5115  16.5116  16.5120  16.5121
    16.5629  16.5629  16.5630  16.5630  16.6821  16.6822  16.6822  16.6823
    16.7040  16.7041  16.8127  16.8133  16.8206  16.8214  16.8920  16.8923
    16.8924  16.8926  16.9652  16.9655  17.2091  17.2091  17.2096  17.2096
    17.2960  17.2961  17.2963  17.2963  17.3737  17.3740  17.4798  17.4800
    17.7214  17.7221  17.7297  17.7297  17.7301  17.7301  17.7476  17.7477
    17.7482  17.7484  17.8223  17.8224  17.8229  17.8230  17.8983  17.8984
    17.8989  17.8991  17.9402  17.9402  17.9407  17.9408  18.1731  18.1738
    18.2908  18.2915  18.5129  18.5130  18.5703  18.5703  18.5956  18.5956
    18.5964  18.5964  18.5972  18.5975  18.5979  18.5983  18.9419  18.9420
    18.9424  18.9425  18.9506  18.9506  18.9510  18.9510  18.9687  18.9687
    18.9691  18.9691  18.9771  18.9773  18.9843  18.9843  18.9844  18.9845
    19.1839  19.1840  19.3654  19.3660  19.3662  19.3668  19.7282  19.7290
    20.1237  20.1238  20.1239  20.1240  20.7135  20.7142  21.4146  21.4147
    21.4153  21.4154  22.7852  22.7858  23.6835  23.6835  23.6839  23.6839
    24.3701  24.3702  24.3707  24.3707  25.2857  25.2858  25.2859  25.2860
    26.6228  26.6229  27.3171  27.3171  27.3178  27.3178  27.9167  27.9168
    27.9174  27.9176  28.9456  28.9458  28.9465  28.9466  29.5890  29.5891
    29.6014  29.6014  29.6019  29.6019  30.5012  30.5013  30.5020  30.5022
    31.0361  31.0366

          k = 0.1667 0.2778 0.2778 ( 33025 PWs)   bands (ev):

   -64.8631 -64.8485 -64.8484 -64.8424 -64.8376 -64.8334 -64.8333 -64.8279
   -64.8274 -64.8231 -64.8230 -64.8224 -64.8222 -64.8208 -64.8189 -64.8189
   -64.8186 -64.8185 -64.8174 -64.8173 -64.8134 -64.8134 -64.8114 -64.8088
   -64.8086 -64.8083 -64.8082 -64.8079 -64.8078 -64.8073 -64.8071 -64.8063
   -30.7346 -30.7346 -30.7280 -30.7118 -30.7095 -30.7095 -30.7043 -30.6872
   -30.6872 -30.6825 -30.6825 -30.6742 -30.6741 -30.6704 -30.6703 -30.6697
   -30.6696 -30.6679 -30.6678 -30.6672 -30.6654 -30.6654 -30.6450 -30.6450
   -30.6306 -30.6306 -30.6300 -30.5963 -30.5929 -30.5929 -30.5917 -30.5885
   -30.5885 -30.5779 -30.5779 -30.5598 -30.5582 -30.5582 -30.5465 -30.5318
   -30.5317 -30.5287 -30.5287 -30.5273 -30.5272 -30.5202 -30.5202 -30.5096
   -30.5096 -30.5095 -30.5056 -30.5055 -30.5029 -30.5028 -30.5022 -30.5022
   -30.4974 -30.4974 -30.4888 -30.4888 -30.4758 -30.4758 -30.4729 -30.4713
   -30.4713 -30.4666 -30.4645 -30.4624 -30.4624 -30.4609 -30.4595 -30.4594
   -30.4585 -30.4585 -30.4576 -30.4556 -30.4555 -30.4470 -30.4470 -30.4458
   -30.4457 -30.4453 -30.4334 -30.4315 -30.4301 -30.4272 -30.4269 -30.4244
   -30.4243 -30.4162 -30.4162 -30.4130 -30.4130 -30.4090 -30.3912 -30.3863
    12.7897  13.8790  13.8790  14.2096  14.2621  14.3196  14.3201  14.3201
    14.4112  14.4723  14.4723  14.5847  14.5849  14.5849  14.6180  14.6180
    14.6302  14.7126  14.7127  14.7620  14.8925  14.8926  14.9456  14.9456
    14.9608  14.9608  15.0454  15.0454  15.0995  15.0996  15.1037  15.1037
    15.1135  15.1313  15.1313  15.2052  15.2052  15.2927  15.2928  15.3282
    15.3395  15.3396  15.5275  15.5275  15.7663  15.7663  15.7742  15.8308
    15.8434  15.8435  15.8509  15.8510  15.8960  15.8961  16.0244  16.0857
    16.0858  16.1728  16.1728  16.2059  16.2059  16.2602  16.3231  16.3232
    16.3232  16.3524  16.3524  16.4496  16.4496  16.4677  16.4677  16.5392
    16.5811  16.5916  16.6463  16.6464  16.6519  16.6717  16.7032  16.7352
    16.7352  16.7447  16.7624  16.7625  16.7813  16.7814  16.8097  16.8557
    16.8558  16.9060  16.9060  16.9504  16.9948  16.9948  17.0901  17.0902
    17.1060  17.1682  17.3509  17.3510  17.3901  17.3901  17.4148  17.4149
    17.4800  17.4801  17.6687  17.6872  17.7032  17.7056  17.7236  17.7236
    17.7505  17.7506  17.7876  17.7876  17.9145  17.9589  17.9590  18.0336
    18.0337  18.0339  18.0657  18.0658  18.1068  18.1445  18.1446  18.2067
[...]
    23.5177  23.5179  23.5180  23.5180  24.6751  24.6754  24.6757  24.6761
    27.1100  27.1101  27.1102  27.1103  27.1105  27.1106  27.1107  27.1108
    27.5803  27.5805  27.5806  27.5807  29.2754  29.2755  29.2756  29.2756
    29.8259  29.8260  29.8261  29.8262  29.8265  29.8266  29.8268  29.8268
    31.4982  31.4987

          k = 0.3889 0.3889 0.3889 ( 33005 PWs)   bands (ev):

   -64.8541 -64.8477 -64.8475 -64.8475 -64.8421 -64.8420 -64.8420 -64.8374
   -64.8176 -64.8175 -64.8174 -64.8170 -64.8166 -64.8165 -64.8164 -64.8163
   -64.8162 -64.8161 -64.8160 -64.8155 -64.8120 -64.8119 -64.8118 -64.8116
   -64.8110 -64.8110 -64.8108 -64.8108 -64.8106 -64.8106 -64.8105 -64.8100
   -30.7077 -30.7077 -30.7077 -30.6948 -30.6947 -30.6947 -30.6914 -30.6914
   -30.6914 -30.6887 -30.6887 -30.6886 -30.6886 -30.6886 -30.6885 -30.6877
   -30.6877 -30.6876 -30.6876 -30.6876 -30.6875 -30.6771 -30.6770 -30.6770
   -30.6335 -30.5918 -30.5918 -30.5918 -30.5560 -30.5560 -30.5560 -30.5560
   -30.5560 -30.5560 -30.5527 -30.5527 -30.5527 -30.5493 -30.5493 -30.5493
   -30.5444 -30.5444 -30.5444 -30.5166 -30.5166 -30.5166 -30.5165 -30.5165
   -30.5165 -30.5100 -30.5100 -30.5100 -30.5054 -30.5054 -30.5054 -30.5051
   -30.4928 -30.4928 -30.4928 -30.4858 -30.4858 -30.4858 -30.4858 -30.4858
   -30.4857 -30.4787 -30.4787 -30.4787 -30.4732 -30.4732 -30.4732 -30.4711
   -30.4710 -30.4710 -30.4710 -30.4709 -30.4709 -30.4632 -30.4632 -30.4632
   -30.4233 -30.4233 -30.4233 -30.4168 -30.4168 -30.4125 -30.4125 -30.4124
   -30.4071 -30.4071 -30.4071 -30.4052 -30.4051 -30.4051 -30.3982 -30.3981
    13.4478  13.8755  13.8756  13.8757  14.1320  14.1321  14.1321  14.1730
    14.6090  14.6090  14.6090  14.7367  14.7368  14.7368  14.7556  14.7556
    14.7556  14.8197  14.8198  14.8198  14.8198  14.8198  14.8199  14.8479
    14.8479  14.8479  14.8480  14.8480  14.8480  14.8818  14.8819  14.8819
    15.0699  15.0699  15.0699  15.3498  15.3499  15.3499  15.4160  15.4160
    15.4160  15.4161  15.4161  15.4162  15.6840  15.6841  15.6841  15.6971
    15.6972  15.6972  15.6972  15.6972  15.6973  15.9100  15.9100  15.9100
    16.2269  16.2271  16.2271  16.2651  16.4580  16.4581  16.4582  16.6953
    16.6953  16.7158  16.7158  16.7158  16.7158  16.7158  16.7159  16.7757
    16.7757  16.7846  16.7847  16.7847  16.8081  16.8082  16.8082  16.8088
    16.8088  16.8089  16.8507  16.8507  16.8508  16.8783  16.8783  16.8783
    16.9484  16.9484  16.9484  16.9510  16.9510  16.9510  16.9511  16.9511
    16.9511  17.0540  17.0542  17.0542  17.1029  17.2285  17.2285  17.2286
    17.4858  17.4858  17.4858  17.5815  17.5815  17.5817  17.5826  17.5826
    17.5826  17.5828  17.5828  17.5828  17.7881  17.7881  17.7883  17.9278
    17.9279  17.9279  17.9280  17.9280  17.9280  17.9853  17.9854  17.9854
    18.0122  18.0122  18.0512  18.0512  18.0514  18.1681  18.1681  18.1681
    18.3086  18.3086  18.3088  18.4651  18.4651  18.5952  18.5953  18.5953
    19.1411  19.1411  19.1411  19.1807  19.1807  19.1807  19.1807  19.1807
    19.1807  19.2164  19.2164  19.2164  19.2164  19.2164  19.2164  19.2469
    19.2469  19.2469  19.2543  19.2543  19.2543  19.3127  19.3127  19.3127
    21.3510  21.3511  21.3511  22.1090  22.1090  22.1090  22.1090  22.1090
    22.1091  22.5014  22.5014  22.5014  22.9953  22.9953  22.9953  23.8615
    23.8615  23.8615  23.8616  23.8616  23.8616  24.3260  24.3261  24.3261
    26.7388  26.7388  26.7388  27.4632  27.4632  27.4632  27.9813  27.9813
    27.9813  27.9815  27.9815  27.9815  28.8333  28.8333  28.8333  28.8334
    28.8334  28.8335  29.3151  29.3151  29.3151  30.2290  30.2290  30.2290
    31.4802  32.3496

          k = 0.3889 0.3889-0.5000 ( 32980 PWs)   bands (ev):

   -64.8515 -64.8507 -64.8455 -64.8454 -64.8447 -64.8446 -64.8403 -64.8396
   -64.8173 -64.8173 -64.8170 -64.8166 -64.8165 -64.8165 -64.8161 -64.8155
   -64.8143 -64.8142 -64.8137 -64.8137 -64.8135 -64.8134 -64.8129 -64.8129
   -64.8117 -64.8117 -64.8115 -64.8110 -64.8109 -64.8108 -64.8106 -64.8100
   -30.7032 -30.7032 -30.6992 -30.6987 -30.6984 -30.6980 -30.6915 -30.6915
   -30.6910 -30.6910 -30.6901 -30.6899 -30.6899 -30.6897 -30.6896 -30.6895
   -30.6894 -30.6890 -30.6858 -30.6853 -30.6831 -30.6831 -30.6826 -30.6826
   -30.6129 -30.6126 -30.5705 -30.5704 -30.5702 -30.5702 -30.5553 -30.5553
   -30.5551 -30.5551 -30.5508 -30.5506 -30.5505 -30.5503 -30.5365 -30.5365
   -30.5361 -30.5361 -30.5286 -30.5285 -30.5283 -30.5278 -30.5268 -30.5266
   -30.5129 -30.5129 -30.5124 -30.5124 -30.5103 -30.5102 -30.5101 -30.5101
   -30.4893 -30.4892 -30.4888 -30.4886 -30.4868 -30.4860 -30.4795 -30.4794
   -30.4793 -30.4792 -30.4791 -30.4791 -30.4787 -30.4787 -30.4751 -30.4751
   -30.4749 -30.4749 -30.4690 -30.4683 -30.4675 -30.4674 -30.4672 -30.4672
   -30.4186 -30.4183 -30.4165 -30.4164 -30.4160 -30.4159 -30.4119 -30.4111
   -30.4055 -30.4055 -30.4055 -30.4054 -30.4051 -30.4043 -30.4002 -30.4000
    13.6466  13.6474  13.9959  13.9960  13.9966  13.9966  14.1441  14.1446
    14.6769  14.6776  14.6988  14.6988  14.6989  14.6989  14.7814  14.7815
    14.7815  14.7816  14.7931  14.7933  14.7936  14.7938  14.8314  14.8320
    14.8404  14.8405  14.8405  14.8406  14.8449  14.8449  14.8455  14.8456
    15.1946  15.1954  15.2434  15.2434  15.2436  15.2436  15.5322  15.5322
    15.5324  15.5325  15.5383  15.5384  15.5390  15.5392  15.5593  15.5594
    15.5597  15.5597  15.7808  15.7814  15.8209  15.8211  15.8215  15.8217
    16.2625  16.2627  16.3546  16.3547  16.3548  16.3549  16.6973  16.6974
    16.7378  16.7379  16.7893  16.7894  16.7894  16.7895  16.7962  16.7963
    16.8031  16.8036  16.8197  16.8199  16.8199  16.8200  16.8217  16.8217
    16.8221  16.8221  16.8241  16.8246  16.8290  16.8291  16.8295  16.8296
    16.8759  16.8760  16.8760  16.8761  16.9042  16.9045  16.9187  16.9188
    16.9190  16.9191  17.2248  17.2248  17.2250  17.2250  17.2758  17.2764
    17.3821  17.3821  17.3824  17.3825  17.4004  17.4007  17.6675  17.6676
    17.6680  17.6682  17.7360  17.7361  17.7364  17.7365  17.7587  17.7588
    17.7590  17.7590  17.9652  17.9659  17.9794  17.9797  18.0363  18.0364
    18.0369  18.0369  18.0370  18.0373  18.0377  18.0381  18.1525  18.1530
    18.2596  18.2597  18.4010  18.4011  18.4014  18.4015  18.5093  18.5100
    19.1936  19.1937  19.1938  19.1938  19.2114  19.2116  19.2158  19.2158
    19.2160  19.2160  19.2411  19.2411  19.2415  19.2415  19.2434  19.2436
    19.2436  19.2438  19.2751  19.2754  19.2756  19.2759  19.2995  19.2997
    21.7083  21.7083  21.7088  21.7089  22.1580  22.1585  22.2933  22.2936
    22.2940  22.2942  22.9643  22.9644  22.9647  22.9648  23.4065  23.4067
    23.4150  23.4152  23.4156  23.4158  24.1191  24.1192  24.1197  24.1198
    27.0579  27.0586  27.2786  27.2786  27.2787  27.2787  28.0981  28.0982
    28.0988  28.0989  28.3752  28.3754  28.3760  28.3761  28.6174  28.6176
    28.6179  28.6180  29.5024  29.5024  29.5025  29.5025  29.7395  29.7403
    32.1805  32.1807

          k = 0.3889-0.5000-0.5000 ( 33008 PWs)   bands (ev):

   -64.8488 -64.8486 -64.8481 -64.8478 -64.8432 -64.8430 -64.8425 -64.8422
   -64.8172 -64.8169 -64.8164 -64.8162 -64.8143 -64.8142 -64.8140 -64.8140
   -64.8139 -64.8138 -64.8137 -64.8137 -64.8136 -64.8135 -64.8132 -64.8132
   -64.8132 -64.8130 -64.8129 -64.8129 -64.8115 -64.8112 -64.8107 -64.8104
   -30.6970 -30.6970 -30.6969 -30.6967 -30.6967 -30.6966 -30.6965 -30.6965
   -30.6912 -30.6910 -30.6907 -30.6907 -30.6905 -30.6905 -30.6901 -30.6899
   -30.6880 -30.6879 -30.6878 -30.6877 -30.6876 -30.6874 -30.6874 -30.6873
   -30.5918 -30.5917 -30.5914 -30.5913 -30.5537 -30.5536 -30.5535 -30.5534
   -30.5483 -30.5482 -30.5481 -30.5480 -30.5327 -30.5326 -30.5326 -30.5326
   -30.5325 -30.5325 -30.5324 -30.5324 -30.5323 -30.5323 -30.5322 -30.5322
   -30.5320 -30.5319 -30.5318 -30.5318 -30.5110 -30.5109 -30.5107 -30.5106
   -30.4837 -30.4837 -30.4837 -30.4837 -30.4831 -30.4830 -30.4828 -30.4827
   -30.4826 -30.4824 -30.4823 -30.4823 -30.4742 -30.4742 -30.4740 -30.4739
   -30.4738 -30.4736 -30.4735 -30.4734 -30.4714 -30.4714 -30.4714 -30.4713
   -30.4143 -30.4143 -30.4143 -30.4142 -30.4099 -30.4097 -30.4094 -30.4094
   -30.4092 -30.4092 -30.4088 -30.4086 -30.4020 -30.4020 -30.4020 -30.4020
    13.8102  13.8106  13.8109  13.8114  14.0631  14.0634  14.0637  14.0640
    14.7472  14.7472  14.7473  14.7473  14.7477  14.7478  14.7479  14.7479
    14.7558  14.7558  14.7559  14.7559  14.7781  14.7782  14.7783  14.7783
    14.8297  14.8298  14.8298  14.8300  14.8302  14.8303  14.8304  14.8304
    15.3709  15.3710  15.3710  15.3711  15.3715  15.3717  15.3717  15.3718
    15.4076  15.4077  15.4078  15.4079  15.6732  15.6732  15.6735  15.6737
    15.6737  15.6739  15.6742  15.6742  15.6945  15.6948  15.6950  15.6952
    16.3244  16.3246  16.3246  16.3246  16.5712  16.5713  16.5714  16.5715
    16.7618  16.7619  16.7620  16.7621  16.7731  16.7731  16.7734  16.7735
    16.7961  16.7963  16.7964  16.7966  16.7991  16.7992  16.7993  16.7995
    16.8400  16.8401  16.8401  16.8402  16.8622  16.8623  16.8623  16.8624
    16.8626  16.8626  16.8626  16.8628  17.0517  17.0518  17.0519  17.0521
    17.0521  17.0522  17.0523  17.0525  17.0832  17.0834  17.0835  17.0837
    17.4962  17.4963  17.4966  17.4967  17.5567  17.5567  17.5568  17.5569
    17.5570  17.5571  17.5572  17.5572  17.8539  17.8540  17.8540  17.8542
    17.8543  17.8545  17.8545  17.8546  17.8651  17.8653  17.8656  17.8658
    18.0051  18.0052  18.0057  18.0058  18.2025  18.2026  18.2028  18.2030
    18.2333  18.2334  18.2337  18.2339  18.3718  18.3719  18.3723  18.3724
    19.2362  19.2363  19.2363  19.2363  19.2364  19.2365  19.2365  19.2366
    19.2486  19.2487  19.2488  19.2490  19.2717  19.2718  19.2720  19.2721
    19.2753  19.2753  19.2754  19.2755  19.2755  19.2757  19.2757  19.2757
    21.9792  21.9795  21.9798  21.9801  22.5446  22.5447  22.5447  22.5449
    22.5451  22.5452  22.5453  22.5454  23.1882  23.1882  23.1883  23.1886
    23.1886  23.1889  23.1889  23.1889  23.7627  23.7631  23.7634  23.7637
    27.6555  27.6557  27.6557  27.6559  27.6560  27.6562  27.6563  27.6564
    27.9010  27.9012  27.9013  27.9013  28.7631  28.7633  28.7633  28.7634
    29.0273  29.0274  29.0275  29.0276  29.0279  29.0280  29.0281  29.0282
    32.5675  32.5679

          k =-0.5000-0.5000-0.5000 ( 32968 PWs)   bands (ev):

   -64.8464 -64.8462 -64.8461 -64.8459 -64.8457 -64.8454 -64.8453 -64.8451
   -64.8146 -64.8144 -64.8143 -64.8142 -64.8141 -64.8141 -64.8139 -64.8138
   -64.8138 -64.8138 -64.8137 -64.8137 -64.8136 -64.8135 -64.8133 -64.8133
   -64.8132 -64.8132 -64.8131 -64.8130 -64.8130 -64.8128 -64.8127 -64.8125
   -30.6929 -30.6929 -30.6928 -30.6928 -30.6926 -30.6925 -30.6924 -30.6924
   -30.6924 -30.6923 -30.6923 -30.6923 -30.6922 -30.6921 -30.6921 -30.6921
   -30.6920 -30.6920 -30.6919 -30.6919 -30.6917 -30.6916 -30.6916 -30.6916
   -30.5699 -30.5698 -30.5698 -30.5697 -30.5696 -30.5695 -30.5695 -30.5694
   -30.5327 -30.5327 -30.5326 -30.5326 -30.5325 -30.5325 -30.5325 -30.5325
   -30.5324 -30.5324 -30.5324 -30.5324 -30.5323 -30.5323 -30.5323 -30.5323
   -30.5323 -30.5322 -30.5322 -30.5322 -30.5321 -30.5321 -30.5321 -30.5320
   -30.4785 -30.4785 -30.4784 -30.4784 -30.4784 -30.4784 -30.4783 -30.4783
   -30.4783 -30.4782 -30.4781 -30.4781 -30.4780 -30.4780 -30.4778 -30.4778
   -30.4778 -30.4778 -30.4778 -30.4777 -30.4777 -30.4776 -30.4776 -30.4776
   -30.4080 -30.4080 -30.4080 -30.4079 -30.4079 -30.4077 -30.4077 -30.4076
   -30.4075 -30.4074 -30.4074 -30.4073 -30.4072 -30.4072 -30.4072 -30.4071
    13.9285  13.9290  13.9290  13.9292  13.9294  13.9297  13.9297  13.9301
    14.7771  14.7771  14.7771  14.7771  14.7772  14.7772  14.7772  14.7773
    14.7773  14.7773  14.7775  14.7775  14.7775  14.7776  14.7777  14.7777
    14.7778  14.7778  14.7778  14.7778  14.7779  14.7779  14.7779  14.7779
    15.5334  15.5335  15.5336  15.5337  15.5337  15.5338  15.5338  15.5338
    15.5339  15.5340  15.5341  15.5341  15.5341  15.5341  15.5341  15.5342
    15.5343  15.5345  15.5345  15.5346  15.5346  15.5346  15.5346  15.5347
    16.4656  16.4658  16.4658  16.4658  16.4658  16.4659  16.4659  16.4659
    16.7742  16.7743  16.7743  16.7743  16.7744  16.7744  16.7744  16.7745
    16.7746  16.7746  16.7747  16.7747  16.7748  16.7748  16.7748  16.7749
    16.9595  16.9597  16.9597  16.9598  16.9598  16.9598  16.9598  16.9599
    16.9599  16.9599  16.9600  16.9600  16.9600  16.9600  16.9601  16.9601
    16.9602  16.9602  16.9602  16.9602  16.9602  16.9603  16.9603  16.9605
    17.6786  17.6786  17.6787  17.6787  17.6788  17.6789  17.6789  17.6790
    17.6790  17.6790  17.6791  17.6791  17.6791  17.6791  17.6792  17.6792
    17.6793  17.6794  17.6794  17.6794  17.6794  17.6794  17.6795  17.6797
    18.1846  18.1848  18.1848  18.1849  18.1849  18.1850  18.1850  18.1851
    18.1852  18.1852  18.1853  18.1853  18.1854  18.1855  18.1856  18.1856
    19.2774  19.2775  19.2775  19.2776  19.2776  19.2777  19.2777  19.2777
    19.2778  19.2778  19.2778  19.2778  19.2779  19.2779  19.2779  19.2779
    19.2779  19.2780  19.2780  19.2781  19.2781  19.2782  19.2782  19.2783
    22.8535  22.8536  22.8537  22.8537  22.8538  22.8539  22.8540  22.8540
    22.8540  22.8541  22.8541  22.8541  22.8542  22.8542  22.8543  22.8543
    22.8544  22.8545  22.8545  22.8546  22.8547  22.8547  22.8548  22.8548
    28.2997  28.2998  28.2998  28.2999  28.2999  28.2999  28.2999  28.2999
    28.3000  28.3001  28.3001  28.3002  28.3005  28.3005  28.3005  28.3005
    28.3005  28.3006  28.3007  28.3007  28.3008  28.3008  28.3008  28.3008
    33.5312  33.6636

     the Fermi energy is    19.2988 ev

!    total energy              =  -16384.95815771 Ry
     Harris-Foulkes estimate   =  -16384.95814435 Ry
     estimated scf accuracy    <       0.00000093 Ry

     total all-electron energy =   -322945.811865 Ry

     The total energy is the sum of the following terms:

     one-electron contribution =   -2484.47140147 Ry
     hartree contribution      =    1660.12993241 Ry
     xc contribution           =    -986.52411503 Ry
     ewald contribution        =   -6406.69923073 Ry
     one-center paw contrib.   =   -8167.42618552 Ry
     smearing contrib. (-TS)   =       0.03284263 Ry

     convergence has been achieved in  10 iterations

     Forces acting on atoms (cartesian axes, Ry/au):

     atom    1 type  1   force =     0.00000000   -0.00000000    0.00000000
     atom    2 type  1   force =     0.00005937    0.00005937   -0.00000000
     atom    3 type  1   force =     0.00005937    0.00000000    0.00005937
     atom    4 type  1   force =    -0.00000000    0.00005937    0.00005937
     atom    5 type  1   force =     0.00000000    0.00000000    0.00000000
     atom    6 type  1   force =     0.00012511    0.00012511    0.00000000
     atom    7 type  1   force =     0.00005937    0.00000000   -0.00005937
     atom    8 type  1   force =    -0.00000000    0.00005937   -0.00005937
     atom    9 type  1   force =     0.00000000    0.00000000    0.00000000
     atom   10 type  1   force =     0.00005937   -0.00005937    0.00000000
     atom   11 type  1   force =     0.00012511    0.00000000    0.00012511
     atom   12 type  1   force =     0.00000000   -0.00005937    0.00005937
     atom   13 type  1   force =     0.00000000    0.00000000   -0.00000000
     atom   14 type  1   force =     0.00012511   -0.00012511    0.00000000
     atom   15 type  1   force =     0.00012511   -0.00000000   -0.00012511
     atom   16 type  1   force =    -0.00000000   -0.00005937   -0.00005937
     atom   17 type  1   force =     0.00000000    0.00000000    0.00000000
     atom   18 type  1   force =    -0.00005937    0.00005937   -0.00000000
     atom   19 type  1   force =    -0.00005937    0.00000000    0.00005937
     atom   20 type  1   force =     0.00000000    0.00012511    0.00012511
     atom   21 type  1   force =     0.00000000    0.00000000    0.00000000
     atom   22 type  1   force =    -0.00012511    0.00012511    0.00000000
     atom   23 type  1   force =    -0.00005937   -0.00000000   -0.00005937
     atom   24 type  1   force =     0.00000000    0.00012511   -0.00012511
     atom   25 type  1   force =     0.00000000    0.00000000    0.00000000
     atom   26 type  1   force =    -0.00005937   -0.00005937   -0.00000000
     atom   27 type  1   force =    -0.00012511   -0.00000000    0.00012511
     atom   28 type  1   force =     0.00000000   -0.00012511    0.00012511
     atom   29 type  1   force =     0.00000000    0.00000000    0.00000000
     atom   30 type  1   force =    -0.00012511   -0.00012511    0.00000000
     atom   31 type  1   force =    -0.00012511    0.00000000   -0.00012511
     atom   32 type  1   force =     0.00000000   -0.00012511   -0.00012511

     Total force =     0.000678     Total SCF correction =     0.005799
     SCF correction compared to forces is large: reduce conv_thr to get better values


     Computing stress (Cartesian axis) and pressure

          total   stress  (Ry/bohr**3)                   (kbar)     P=    0.68
   0.00000464   0.00000000   0.00000000          0.68      0.00      0.00
   0.00000000   0.00000464   0.00000000          0.00      0.68      0.00
   0.00000000   0.00000000   0.00000464          0.00      0.00      0.68


     Writing output data file cezSrfjFsvjRBHDq.save/
 
     init_run     :     19.63s CPU     21.38s WALL (       1 calls)
     electrons    :    867.67s CPU    912.29s WALL (       1 calls)
     forces       :      8.60s CPU      8.92s WALL (       1 calls)
     stress       :     83.07s CPU     83.39s WALL (       1 calls)

     Called by init_run:
     wfcinit      :     18.84s CPU     20.51s WALL (       1 calls)
     potinit      :      0.38s CPU      0.40s WALL (       1 calls)
     hinit0       :      0.15s CPU      0.16s WALL (       1 calls)

     Called by electrons:
     c_bands      :    789.73s CPU    826.04s WALL (      11 calls)
     sum_band     :     74.23s CPU     82.21s WALL (      11 calls)
     v_of_rho     :      0.33s CPU      0.36s WALL (      11 calls)
     newd         :      0.76s CPU      0.99s WALL (      11 calls)
     PAW_pot      :      2.80s CPU      2.85s WALL (      11 calls)
     mix_rho      :      0.08s CPU      0.09s WALL (      11 calls)

     Called by c_bands:
     init_us_2    :      4.50s CPU      4.52s WALL (     875 calls)
     cegterg      :    764.81s CPU    800.91s WALL (     385 calls)

     Called by sum_band:
     sum_band:bec :      0.57s CPU      0.58s WALL (     385 calls)
     addusdens    :      0.76s CPU      1.03s WALL (      11 calls)

     Called by *egterg:
     h_psi        :    306.13s CPU    338.87s WALL (    1172 calls)
     s_psi        :     37.38s CPU     37.49s WALL (    1172 calls)
     g_psi        :      1.04s CPU      1.05s WALL (     752 calls)
     cdiaghg      :    301.22s CPU    302.10s WALL (    1102 calls)

     Called by h_psi:
     h_psi:pot    :    303.27s CPU    335.85s WALL (    1172 calls)
     h_psi:calbec :     39.05s CPU     40.92s WALL (    1172 calls)
     vloc_psi     :    226.89s CPU    257.41s WALL (    1172 calls)
     add_vuspsi   :     37.32s CPU     37.51s WALL (    1172 calls)

     General routines
     calbec       :     68.48s CPU     71.49s WALL (    1732 calls)
     fft          :      0.30s CPU      0.34s WALL (     168 calls)
     ffts         :      0.03s CPU      0.03s WALL (      22 calls)
     fftw         :    261.86s CPU    297.15s WALL (  746382 calls)
     interpolate  :      0.04s CPU      0.04s WALL (      11 calls)
 
     Parallel routines
     fft_scatt_xy :     21.38s CPU     23.83s WALL (  746572 calls)
     fft_scatt_yz :    172.08s CPU    197.15s WALL (  746572 calls)
 
     PWSCF        : 16m22.54s CPU    17m46.95s WALL

 
   This run was terminated on:   9: 2:13  11Nov2020            

=------------------------------------------------------------------------------=
   JOB DONE.
=------------------------------------------------------------------------------=
