--------------------------------------------------------------------------
WARNING: No preset parameters were found for the device that Open MPI
detected:

  Local host:            bear-pg0206u15a
  Device name:           mlx5_0
  Device vendor ID:      0x02c9
  Device vendor part ID: 4123

Default device parameters will be used, which may result in lower
performance.  You can edit any of the files specified by the
btl_openib_device_param_files MCA parameter to set values for your
device.

NOTE: You can turn off this warning by setting the MCA parameter
      btl_openib_warn_no_device_params_found to 0.
--------------------------------------------------------------------------
--------------------------------------------------------------------------
WARNING: There was an error initializing an OpenFabrics device.

  Local host:   bear-pg0206u15a
  Local device: mlx5_0
--------------------------------------------------------------------------

     Program PWSCF v.6.3 starts on 13Nov2020 at 19:50:25 

     This program is part of the open-source Quantum ESPRESSO suite
     for quantum simulation of materials; please cite
         "P. Giannozzi et al., J. Phys.:Condens. Matter 21 395502 (2009);
         "P. Giannozzi et al., J. Phys.:Condens. Matter 29 465901 (2017);
          URL http://www.quantum-espresso.org", 
     in publications or presentations arising from this work. More details at
     http://www.quantum-espresso.org/quote

     Parallel version (MPI & OpenMP), running on      20 processor cores
     Number of MPI processes:                20
     Threads/MPI process:                     1

     MPI processes distributed on     1 nodes
     R & G space division:  proc/nbgrp/npool/nimage =      20
     Reading input from wd/ec/ec_7_006.in
Warning: card &IONS ignored
Warning: card ION_DYNAMICS = 'BFGS', ignored
Warning: card / ignored
Warning: card &CELL ignored
Warning: card CELL_DYNAMICS = 'BFGS', ignored
Warning: card CELL_FACTOR = 2.0, ignored
Warning: card PRESS = 0.0, ignored
Warning: card / ignored

     Current dimensions of program PWSCF are:
     Max number of different atomic species (ntypx) = 10
     Max number of k-points (npk) =  40000
     Max angular momentum in pseudopotentials (lmaxx) =  3
               file Pd.pbe-spn-kjpaw_psl.1.0.0.UPF: wavefunction(s)  4S 5S 4D renormalized

     Subspace diagonalization in iterative solution of the eigenvalue problem:
     a serial algorithm will be used

 
     Parallelization info
     --------------------
     sticks:   dense  smooth     PW     G-vecs:    dense   smooth      PW
     Min         376     248     67                24594    13206    1873
     Max         377     249     68                24597    13211    1878
     Sum        7539    4977   1353               491935   264171   37517
 


     bravais-lattice index     =            0
     lattice parameter (alat)  =      14.8394  a.u.
     unit-cell volume          =    3267.7646 (a.u.)^3
     number of atoms/cell      =           32
     number of atomic types    =            1
     number of electrons       =       576.00
     number of Kohn-Sham states=          346
     kinetic-energy cutoff     =      71.0000  Ry
     charge density cutoff     =     430.0000  Ry
     convergence threshold     =      1.0E-06
     mixing beta               =       0.1000
     number of iterations used =           10  plain     mixing
     Exchange-correlation      = SLA PW PBX PBC ( 1  4  3  4 0 0)

     celldm(1)=  14.839420  celldm(2)=   0.000000  celldm(3)=   0.000000
     celldm(4)=   0.000000  celldm(5)=   0.000000  celldm(6)=   0.000000

     crystal axes: (cart. coord. in units of alat)
               a(1) = (   1.004172   0.000000   0.000000 )  
               a(2) = (   0.000000   0.995839   0.000000 )  
               a(3) = (   0.000000   0.000000   1.000006 )  

     reciprocal axes: (cart. coord. in units 2 pi/alat)
               b(1) = (  0.995845  0.000000  0.000000 )  
               b(2) = (  0.000000  1.004178  0.000000 )  
               b(3) = (  0.000000  0.000000  0.999994 )  


     PseudoPot. # 1 for Pd read from file:
     /rds/homes/b/bxp912/pp/Pd.pbe-spn-kjpaw_psl.1.0.0.UPF
     MD5 check sum: 790f2ebce206edfd9790dcb9844eca51
     Pseudo is Projector augmented-wave + core cor, Zval = 18.0
     Generated using "atomic" code by A. Dal Corso v.6.3
     Shape of augmentation charge: PSQ
     Using radial grid of 1235 points,  6 beta functions with: 
                l(1) =   0
                l(2) =   0
                l(3) =   1
                l(4) =   1
                l(5) =   2
                l(6) =   2
     Q(r) pseudized with 0 coefficients 


     atomic species   valence    mass     pseudopotential
        Pd            18.00   106.42000     Pd( 1.00)

      8 Sym. Ops., with inversion, found



   Cartesian axes

     site n.     atom                  positions (alat units)
         1           Pd  tau(   1) = (   0.0000000   0.0000000   0.0000000  )
         2           Pd  tau(   2) = (   0.2510476   0.2489642   0.0000000  )
         3           Pd  tau(   3) = (   0.2510476   0.0000000   0.2500054  )
         4           Pd  tau(   4) = (   0.0000000   0.2489642   0.2500054  )
         5           Pd  tau(   5) = (   0.0000000   0.0000000   0.5000019  )
         6           Pd  tau(   6) = (   0.2510548   0.2489713   0.5000019  )
         7           Pd  tau(   7) = (   0.2510476   0.0000000   0.7499994  )
         8           Pd  tau(   8) = (   0.0000000   0.2489642   0.7499994  )
         9           Pd  tau(   9) = (   0.0000000   0.4979194   0.0000000  )
        10           Pd  tau(  10) = (   0.2510476   0.7468746   0.0000000  )
        11           Pd  tau(  11) = (   0.2510548   0.4979194   0.2500123  )
        12           Pd  tau(  12) = (   0.0000000   0.7468746   0.2500054  )
        13           Pd  tau(  13) = (   0.0000000   0.4979194   0.5000019  )
        14           Pd  tau(  14) = (   0.2510548   0.7468675   0.5000019  )
        15           Pd  tau(  15) = (   0.2510548   0.4979194   0.7499924  )
        16           Pd  tau(  16) = (   0.0000000   0.7468746   0.7499994  )
        17           Pd  tau(  17) = (   0.5020860   0.0000000   0.0000000  )
        18           Pd  tau(  18) = (   0.7531246   0.2489642   0.0000000  )
        19           Pd  tau(  19) = (   0.7531246   0.0000000   0.2500054  )
        20           Pd  tau(  20) = (   0.5020860   0.2489713   0.2500123  )
        21           Pd  tau(  21) = (   0.5020860   0.0000000   0.5000019  )
        22           Pd  tau(  22) = (   0.7531174   0.2489713   0.5000019  )
        23           Pd  tau(  23) = (   0.7531246   0.0000000   0.7499994  )
        24           Pd  tau(  24) = (   0.5020860   0.2489713   0.7499924  )
        25           Pd  tau(  25) = (   0.5020860   0.4979194   0.0000000  )
        26           Pd  tau(  26) = (   0.7531246   0.7468746   0.0000000  )
        27           Pd  tau(  27) = (   0.7531174   0.4979194   0.2500123  )
        28           Pd  tau(  28) = (   0.5020860   0.7468675   0.2500123  )
        29           Pd  tau(  29) = (   0.5020860   0.4979194   0.5000019  )
        30           Pd  tau(  30) = (   0.7531174   0.7468675   0.5000019  )
        31           Pd  tau(  31) = (   0.7531174   0.4979194   0.7499924  )
        32           Pd  tau(  32) = (   0.5020860   0.7468675   0.7499924  )

     number of k points=   125  Marzari-Vanderbilt smearing, width (Ry)=  0.0400

     Number of k-points >= 100: set verbosity='high' to print them.

     Dense  grid:   491935 G-vectors     FFT dimensions: ( 100, 100, 100)

     Smooth grid:   264171 G-vectors     FFT dimensions: (  80,  80,  80)

     Estimated max dynamical RAM per process >       1.30 GB

     Estimated total dynamical RAM >      25.91 GB

     Check: negative/imaginary core charge=   -0.000002    0.000000

     Initial potential from superposition of free atoms

     starting charge  575.98776, renormalised to  576.00000
     Starting wfcs are  320 randomized atomic wfcs +   26 random wfcs
     Checking if some PAW data can be deallocated... 

     total cpu time spent up to now is       72.8 secs

     Self-consistent Calculation

     iteration #  1     ecut=    71.00 Ry     beta= 0.10
     Davidson diagonalization with overlap
     ethr =  1.00E-02,  avg # of iterations =  3.1

     Threshold (ethr) on eigenvalues was too large:
     Diagonalizing with lowered threshold

     Davidson diagonalization with overlap
     ethr =  8.31E-05,  avg # of iterations =  3.0

     total cpu time spent up to now is      802.4 secs

     total energy              =  -16385.02002355 Ry
     Harris-Foulkes estimate   =  -16385.08742037 Ry
     estimated scf accuracy    <       0.47293951 Ry

     iteration #  2     ecut=    71.00 Ry     beta= 0.10
     Davidson diagonalization with overlap
     ethr =  8.21E-05,  avg # of iterations =  1.0

     total cpu time spent up to now is     1024.8 secs

     total energy              =  -16384.93078747 Ry
     Harris-Foulkes estimate   =  -16385.02776803 Ry
     estimated scf accuracy    <       0.25798451 Ry

     iteration #  3     ecut=    71.00 Ry     beta= 0.10
     Davidson diagonalization with overlap
     ethr =  4.48E-05,  avg # of iterations =  2.1

     total cpu time spent up to now is     1330.3 secs

     total energy              =  -16384.96051418 Ry
     Harris-Foulkes estimate   =  -16384.96752776 Ry
     estimated scf accuracy    <       0.08835516 Ry

     iteration #  4     ecut=    71.00 Ry     beta= 0.10
     Davidson diagonalization with overlap
     ethr =  1.53E-05,  avg # of iterations =  1.3

     total cpu time spent up to now is     1565.3 secs

     total energy              =  -16384.96176128 Ry
     Harris-Foulkes estimate   =  -16384.96394209 Ry
     estimated scf accuracy    <       0.02175372 Ry

     iteration #  5     ecut=    71.00 Ry     beta= 0.10
     Davidson diagonalization with overlap
     ethr =  3.78E-06,  avg # of iterations =  1.4

     total cpu time spent up to now is     1807.0 secs

     total energy              =  -16384.95679122 Ry
     Harris-Foulkes estimate   =  -16384.96194683 Ry
     estimated scf accuracy    <       0.01481310 Ry

     iteration #  6     ecut=    71.00 Ry     beta= 0.10
     Davidson diagonalization with overlap
     ethr =  2.57E-06,  avg # of iterations =  1.0

     total cpu time spent up to now is     2030.4 secs

     total energy              =  -16384.95773515 Ry
     Harris-Foulkes estimate   =  -16384.95777842 Ry
     estimated scf accuracy    <       0.00056582 Ry

     iteration #  7     ecut=    71.00 Ry     beta= 0.10
     Davidson diagonalization with overlap
     ethr =  9.82E-08,  avg # of iterations =  3.1

     total cpu time spent up to now is     2415.7 secs

     total energy              =  -16384.95783729 Ry
     Harris-Foulkes estimate   =  -16384.95786623 Ry
     estimated scf accuracy    <       0.00039712 Ry

     iteration #  8     ecut=    71.00 Ry     beta= 0.10
     Davidson diagonalization with overlap
     ethr =  6.89E-08,  avg # of iterations =  1.1

     total cpu time spent up to now is     2642.0 secs

     total energy              =  -16384.95784710 Ry
     Harris-Foulkes estimate   =  -16384.95785081 Ry
     estimated scf accuracy    <       0.00005329 Ry

     iteration #  9     ecut=    71.00 Ry     beta= 0.10
     Davidson diagonalization with overlap
     ethr =  9.25E-09,  avg # of iterations =  1.0

     total cpu time spent up to now is     2863.2 secs

     total energy              =  -16384.95784729 Ry
     Harris-Foulkes estimate   =  -16384.95784800 Ry
     estimated scf accuracy    <       0.00003704 Ry

     iteration # 10     ecut=    71.00 Ry     beta= 0.10
     Davidson diagonalization with overlap
     ethr =  6.43E-09,  avg # of iterations =  2.0

     total cpu time spent up to now is     3140.6 secs

     total energy              =  -16384.95785357 Ry
     Harris-Foulkes estimate   =  -16384.95785084 Ry
     estimated scf accuracy    <       0.00000603 Ry

     iteration # 11     ecut=    71.00 Ry     beta= 0.10
     Davidson diagonalization with overlap
     ethr =  1.05E-09,  avg # of iterations =  1.0

     total cpu time spent up to now is     3363.8 secs

     total energy              =  -16384.95785611 Ry
     Harris-Foulkes estimate   =  -16384.95785404 Ry
     estimated scf accuracy    <       0.00000125 Ry

     iteration # 12     ecut=    71.00 Ry     beta= 0.10
     Davidson diagonalization with overlap
     ethr =  2.17E-10,  avg # of iterations =  1.0

     total cpu time spent up to now is     3585.6 secs

     End of self-consistent calculation

     Number of k-points >= 100: set verbosity='high' to print the bands.

     the Fermi energy is    19.2984 ev

!    total energy              =  -16384.95786496 Ry
     Harris-Foulkes estimate   =  -16384.95785616 Ry
     estimated scf accuracy    <       0.00000045 Ry

     total all-electron energy =   -322945.811572 Ry

     The total energy is the sum of the following terms:

     one-electron contribution =   -2484.50675426 Ry
     hartree contribution      =    1660.16657601 Ry
     xc contribution           =    -986.52944496 Ry
     ewald contribution        =   -6406.69409592 Ry
     one-center paw contrib.   =   -8167.42715519 Ry
     smearing contrib. (-TS)   =       0.03300936 Ry

     convergence has been achieved in  12 iterations

     Forces acting on atoms (cartesian axes, Ry/au):

     atom    1 type  1   force =     0.00000000    0.00000000    0.00000000
     atom    2 type  1   force =     0.00003200    0.00022898    0.00000000
     atom    3 type  1   force =    -0.00002536   -0.00000000   -0.00005823
     atom    4 type  1   force =     0.00000000    0.00018561   -0.00004658
     atom    5 type  1   force =     0.00000000    0.00000000    0.00000000
     atom    6 type  1   force =     0.00006279    0.00032204    0.00000000
     atom    7 type  1   force =    -0.00002536    0.00000000    0.00005823
     atom    8 type  1   force =     0.00000000    0.00018561    0.00004658
     atom    9 type  1   force =     0.00000000    0.00000000    0.00000000
     atom   10 type  1   force =     0.00003200   -0.00022898    0.00000000
     atom   11 type  1   force =     0.00012757   -0.00000000   -0.00000990
     atom   12 type  1   force =     0.00000000   -0.00018561   -0.00004658
     atom   13 type  1   force =     0.00000000    0.00000000    0.00000000
     atom   14 type  1   force =     0.00006279   -0.00032204    0.00000000
     atom   15 type  1   force =     0.00012757    0.00000000    0.00000990
     atom   16 type  1   force =     0.00000000   -0.00018561    0.00004658
     atom   17 type  1   force =     0.00000000    0.00000000    0.00000000
     atom   18 type  1   force =    -0.00003200    0.00022898    0.00000000
     atom   19 type  1   force =     0.00002536    0.00000000   -0.00005823
     atom   20 type  1   force =     0.00000000    0.00039854   -0.00000606
     atom   21 type  1   force =     0.00000000    0.00000000    0.00000000
     atom   22 type  1   force =    -0.00006279    0.00032204    0.00000000
     atom   23 type  1   force =     0.00002536   -0.00000000    0.00005823
     atom   24 type  1   force =     0.00000000    0.00039854    0.00000606
     atom   25 type  1   force =     0.00000000    0.00000000    0.00000000
     atom   26 type  1   force =    -0.00003200   -0.00022898    0.00000000
     atom   27 type  1   force =    -0.00012757    0.00000000   -0.00000990
     atom   28 type  1   force =     0.00000000   -0.00039854   -0.00000606
     atom   29 type  1   force =     0.00000000    0.00000000    0.00000000
     atom   30 type  1   force =    -0.00006279   -0.00032204    0.00000000
     atom   31 type  1   force =    -0.00012757   -0.00000000    0.00000990
     atom   32 type  1   force =     0.00000000   -0.00039854    0.00000606

     Total force =     0.001228     Total SCF correction =     0.005628
     SCF correction compared to forces is large: reduce conv_thr to get better values


     Computing stress (Cartesian axis) and pressure

          total   stress  (Ry/bohr**3)                   (kbar)     P=    1.93
  -0.00000838   0.00000000   0.00000000         -1.23      0.00      0.00
   0.00000000   0.00003424   0.00000000          0.00      5.04      0.00
   0.00000000   0.00000000   0.00001353          0.00      0.00      1.99


     Writing output data file xwtObqBUkEnvHLWu.save/
-------------------------------------------------------
Primary job  terminated normally, but 1 process returned
a non-zero exit code.. Per user-direction, the job has been aborted.
-------------------------------------------------------
--------------------------------------------------------------------------
mpirun detected that one or more processes exited with non-zero status, thus causing
the job to be terminated. The first process to do so was:

  Process name: [[11354,1],0]
  Exit code:    38
--------------------------------------------------------------------------
