--------------------------------------------------------------------------
WARNING: No preset parameters were found for the device that Open MPI
detected:

  Local host:            bear-pg0206u15a
  Device name:           mlx5_0
  Device vendor ID:      0x02c9
  Device vendor part ID: 4123

Default device parameters will be used, which may result in lower
performance.  You can edit any of the files specified by the
btl_openib_device_param_files MCA parameter to set values for your
device.

NOTE: You can turn off this warning by setting the MCA parameter
      btl_openib_warn_no_device_params_found to 0.
--------------------------------------------------------------------------
--------------------------------------------------------------------------
WARNING: There was an error initializing an OpenFabrics device.

  Local host:   bear-pg0206u15a
  Local device: mlx5_0
--------------------------------------------------------------------------

     Program PWSCF v.6.3 starts on 14Nov2020 at  3:33:56 

     This program is part of the open-source Quantum ESPRESSO suite
     for quantum simulation of materials; please cite
         "P. Giannozzi et al., J. Phys.:Condens. Matter 21 395502 (2009);
         "P. Giannozzi et al., J. Phys.:Condens. Matter 29 465901 (2017);
          URL http://www.quantum-espresso.org", 
     in publications or presentations arising from this work. More details at
     http://www.quantum-espresso.org/quote

     Parallel version (MPI & OpenMP), running on      20 processor cores
     Number of MPI processes:                20
     Threads/MPI process:                     1

     MPI processes distributed on     1 nodes
     R & G space division:  proc/nbgrp/npool/nimage =      20
     Reading input from wd/ec/ec_8_007.in
Warning: card &IONS ignored
Warning: card ION_DYNAMICS = 'BFGS', ignored
Warning: card / ignored
Warning: card &CELL ignored
Warning: card CELL_DYNAMICS = 'BFGS', ignored
Warning: card CELL_FACTOR = 2.0, ignored
Warning: card PRESS = 0.0, ignored
Warning: card / ignored

     Current dimensions of program PWSCF are:
     Max number of different atomic species (ntypx) = 10
     Max number of k-points (npk) =  40000
     Max angular momentum in pseudopotentials (lmaxx) =  3
               file Pd.pbe-spn-kjpaw_psl.1.0.0.UPF: wavefunction(s)  4S 5S 4D renormalized

     Subspace diagonalization in iterative solution of the eigenvalue problem:
     a serial algorithm will be used

 
     Parallelization info
     --------------------
     sticks:   dense  smooth     PW     G-vecs:    dense   smooth      PW
     Min         378     249     67                24592    13207    1873
     Max         379     250     68                24595    13210    1878
     Sum        7563    4995   1357               491875   264157   37517
 


     bravais-lattice index     =            0
     lattice parameter (alat)  =      14.8394  a.u.
     unit-cell volume          =    3267.7646 (a.u.)^3
     number of atoms/cell      =           32
     number of atomic types    =            1
     number of electrons       =       576.00
     number of Kohn-Sham states=          346
     kinetic-energy cutoff     =      71.0000  Ry
     charge density cutoff     =     430.0000  Ry
     convergence threshold     =      1.0E-06
     mixing beta               =       0.1000
     number of iterations used =           10  plain     mixing
     Exchange-correlation      = SLA PW PBX PBC ( 1  4  3  4 0 0)

     celldm(1)=  14.839420  celldm(2)=   0.000000  celldm(3)=   0.000000
     celldm(4)=   0.000000  celldm(5)=   0.000000  celldm(6)=   0.000000

     crystal axes: (cart. coord. in units of alat)
               a(1) = (   1.005008   0.000000   0.000000 )  
               a(2) = (   0.000000   1.000008   0.000000 )  
               a(3) = (   0.000000   0.000000   0.995008 )  

     reciprocal axes: (cart. coord. in units 2 pi/alat)
               b(1) = (  0.995017  0.000000  0.000000 )  
               b(2) = (  0.000000  0.999992  0.000000 )  
               b(3) = (  0.000000  0.000000  1.005017 )  


     PseudoPot. # 1 for Pd read from file:
     /rds/homes/b/bxp912/pp/Pd.pbe-spn-kjpaw_psl.1.0.0.UPF
     MD5 check sum: 790f2ebce206edfd9790dcb9844eca51
     Pseudo is Projector augmented-wave + core cor, Zval = 18.0
     Generated using "atomic" code by A. Dal Corso v.6.3
     Shape of augmentation charge: PSQ
     Using radial grid of 1235 points,  6 beta functions with: 
                l(1) =   0
                l(2) =   0
                l(3) =   1
                l(4) =   1
                l(5) =   2
                l(6) =   2
     Q(r) pseudized with 0 coefficients 


     atomic species   valence    mass     pseudopotential
        Pd            18.00   106.42000     Pd( 1.00)

      8 Sym. Ops., with inversion, found



   Cartesian axes

     site n.     atom                  positions (alat units)
         1           Pd  tau(   1) = (   0.0000000   0.0000000   0.0000000  )
         2           Pd  tau(   2) = (   0.2512566   0.2500065   0.0000000  )
         3           Pd  tau(   3) = (   0.2512566   0.0000000   0.2487560  )
         4           Pd  tau(   4) = (   0.0000000   0.2500065   0.2487560  )
         5           Pd  tau(   5) = (   0.0000000   0.0000000   0.4975032  )
         6           Pd  tau(   6) = (   0.2512637   0.2500137   0.4975032  )
         7           Pd  tau(   7) = (   0.2512566   0.0000000   0.7462513  )
         8           Pd  tau(   8) = (   0.0000000   0.2500065   0.7462513  )
         9           Pd  tau(   9) = (   0.0000000   0.5000040   0.0000000  )
        10           Pd  tau(  10) = (   0.2512566   0.7500015   0.0000000  )
        11           Pd  tau(  11) = (   0.2512637   0.5000040   0.2487629  )
        12           Pd  tau(  12) = (   0.0000000   0.7500015   0.2487560  )
        13           Pd  tau(  13) = (   0.0000000   0.5000040   0.4975032  )
        14           Pd  tau(  14) = (   0.2512637   0.7499944   0.4975032  )
        15           Pd  tau(  15) = (   0.2512637   0.5000040   0.7462444  )
        16           Pd  tau(  16) = (   0.0000000   0.7500015   0.7462513  )
        17           Pd  tau(  17) = (   0.5025040   0.0000000   0.0000000  )
        18           Pd  tau(  18) = (   0.7537515   0.2500065   0.0000000  )
        19           Pd  tau(  19) = (   0.7537515   0.0000000   0.2487560  )
        20           Pd  tau(  20) = (   0.5025040   0.2500137   0.2487629  )
        21           Pd  tau(  21) = (   0.5025040   0.0000000   0.4975032  )
        22           Pd  tau(  22) = (   0.7537443   0.2500137   0.4975032  )
        23           Pd  tau(  23) = (   0.7537515   0.0000000   0.7462513  )
        24           Pd  tau(  24) = (   0.5025040   0.2500137   0.7462444  )
        25           Pd  tau(  25) = (   0.5025040   0.5000040   0.0000000  )
        26           Pd  tau(  26) = (   0.7537515   0.7500015   0.0000000  )
        27           Pd  tau(  27) = (   0.7537443   0.5000040   0.2487629  )
        28           Pd  tau(  28) = (   0.5025040   0.7499944   0.2487629  )
        29           Pd  tau(  29) = (   0.5025040   0.5000040   0.4975032  )
        30           Pd  tau(  30) = (   0.7537443   0.7499944   0.4975032  )
        31           Pd  tau(  31) = (   0.7537443   0.5000040   0.7462444  )
        32           Pd  tau(  32) = (   0.5025040   0.7499944   0.7462444  )

     number of k points=   125  Marzari-Vanderbilt smearing, width (Ry)=  0.0400

     Number of k-points >= 100: set verbosity='high' to print them.

     Dense  grid:   491875 G-vectors     FFT dimensions: ( 100, 100, 100)

     Smooth grid:   264157 G-vectors     FFT dimensions: (  81,  80,  80)

     Estimated max dynamical RAM per process >       1.30 GB

     Estimated total dynamical RAM >      25.91 GB

     Check: negative/imaginary core charge=   -0.000002    0.000000

     Initial potential from superposition of free atoms

     starting charge  575.98776, renormalised to  576.00000
     Starting wfcs are  320 randomized atomic wfcs +   26 random wfcs
     Checking if some PAW data can be deallocated... 

     total cpu time spent up to now is       77.6 secs

     Self-consistent Calculation

     iteration #  1     ecut=    71.00 Ry     beta= 0.10
     Davidson diagonalization with overlap
     ethr =  1.00E-02,  avg # of iterations =  3.1

     Threshold (ethr) on eigenvalues was too large:
     Diagonalizing with lowered threshold

     Davidson diagonalization with overlap
     ethr =  8.31E-05,  avg # of iterations =  3.1

     total cpu time spent up to now is      839.8 secs

     total energy              =  -16385.01991042 Ry
     Harris-Foulkes estimate   =  -16385.08731512 Ry
     estimated scf accuracy    <       0.47300550 Ry

     iteration #  2     ecut=    71.00 Ry     beta= 0.10
     Davidson diagonalization with overlap
     ethr =  8.21E-05,  avg # of iterations =  1.0

     total cpu time spent up to now is     1075.0 secs

     total energy              =  -16384.93073321 Ry
     Harris-Foulkes estimate   =  -16385.02765272 Ry
     estimated scf accuracy    <       0.25804531 Ry

     iteration #  3     ecut=    71.00 Ry     beta= 0.10
     Davidson diagonalization with overlap
     ethr =  4.48E-05,  avg # of iterations =  2.1

     total cpu time spent up to now is     1393.6 secs

     total energy              =  -16384.96032762 Ry
     Harris-Foulkes estimate   =  -16384.96747411 Ry
     estimated scf accuracy    <       0.09016533 Ry

     iteration #  4     ecut=    71.00 Ry     beta= 0.10
     Davidson diagonalization with overlap
     ethr =  1.57E-05,  avg # of iterations =  1.3

     total cpu time spent up to now is     1640.0 secs

     total energy              =  -16384.96165760 Ry
     Harris-Foulkes estimate   =  -16384.96382297 Ry
     estimated scf accuracy    <       0.02179131 Ry

     iteration #  5     ecut=    71.00 Ry     beta= 0.10
     Davidson diagonalization with overlap
     ethr =  3.78E-06,  avg # of iterations =  1.6

     total cpu time spent up to now is     1901.1 secs

     total energy              =  -16384.95666889 Ry
     Harris-Foulkes estimate   =  -16384.96184406 Ry
     estimated scf accuracy    <       0.01488986 Ry

     iteration #  6     ecut=    71.00 Ry     beta= 0.10
     Davidson diagonalization with overlap
     ethr =  2.59E-06,  avg # of iterations =  1.0

     total cpu time spent up to now is     2136.6 secs

     total energy              =  -16384.95759916 Ry
     Harris-Foulkes estimate   =  -16384.95765731 Ry
     estimated scf accuracy    <       0.00071961 Ry

     iteration #  7     ecut=    71.00 Ry     beta= 0.10
     Davidson diagonalization with overlap
     ethr =  1.25E-07,  avg # of iterations =  3.1

     total cpu time spent up to now is     2497.0 secs

     total energy              =  -16384.95771104 Ry
     Harris-Foulkes estimate   =  -16384.95774107 Ry
     estimated scf accuracy    <       0.00041450 Ry

     iteration #  8     ecut=    71.00 Ry     beta= 0.10
     Davidson diagonalization with overlap
     ethr =  7.20E-08,  avg # of iterations =  1.1

     total cpu time spent up to now is     2736.8 secs

     total energy              =  -16384.95772214 Ry
     Harris-Foulkes estimate   =  -16384.95772591 Ry
     estimated scf accuracy    <       0.00005293 Ry

     iteration #  9     ecut=    71.00 Ry     beta= 0.10
     Davidson diagonalization with overlap
     ethr =  9.19E-09,  avg # of iterations =  1.0

     total cpu time spent up to now is     2970.2 secs

     total energy              =  -16384.95772159 Ry
     Harris-Foulkes estimate   =  -16384.95772296 Ry
     estimated scf accuracy    <       0.00003754 Ry

     iteration # 10     ecut=    71.00 Ry     beta= 0.10
     Davidson diagonalization with overlap
     ethr =  6.52E-09,  avg # of iterations =  2.0

     total cpu time spent up to now is     3259.3 secs

     total energy              =  -16384.95772770 Ry
     Harris-Foulkes estimate   =  -16384.95772528 Ry
     estimated scf accuracy    <       0.00002058 Ry

     iteration # 11     ecut=    71.00 Ry     beta= 0.10
     Davidson diagonalization with overlap
     ethr =  3.57E-09,  avg # of iterations =  1.0

     total cpu time spent up to now is     3494.6 secs

     End of self-consistent calculation

     Number of k-points >= 100: set verbosity='high' to print the bands.

     the Fermi energy is    19.2985 ev

!    total energy              =  -16384.95773925 Ry
     Harris-Foulkes estimate   =  -16384.95772874 Ry
     estimated scf accuracy    <       0.00000079 Ry

     total all-electron energy =   -322945.811446 Ry

     The total energy is the sum of the following terms:

     one-electron contribution =   -2484.50247145 Ry
     hartree contribution      =    1660.15830635 Ry
     xc contribution           =    -986.52789517 Ry
     ewald contribution        =   -6406.69183565 Ry
     one-center paw contrib.   =   -8167.42691727 Ry
     smearing contrib. (-TS)   =       0.03307394 Ry

     convergence has been achieved in  11 iterations

     Forces acting on atoms (cartesian axes, Ry/au):

     atom    1 type  1   force =     0.00000000    0.00000000    0.00000000
     atom    2 type  1   force =     0.00001959    0.00015956    0.00000000
     atom    3 type  1   force =    -0.00002191    0.00000000    0.00002836
     atom    4 type  1   force =     0.00000000    0.00009066    0.00001102
     atom    5 type  1   force =     0.00000000    0.00000000    0.00000000
     atom    6 type  1   force =    -0.00001183    0.00020247    0.00000000
     atom    7 type  1   force =    -0.00002191   -0.00000000   -0.00002836
     atom    8 type  1   force =     0.00000000    0.00009066   -0.00001102
     atom    9 type  1   force =     0.00000000    0.00000000    0.00000000
     atom   10 type  1   force =     0.00001959   -0.00015956    0.00000000
     atom   11 type  1   force =     0.00001440    0.00000000   -0.00003528
     atom   12 type  1   force =     0.00000000   -0.00009066    0.00001102
     atom   13 type  1   force =     0.00000000    0.00000000    0.00000000
     atom   14 type  1   force =    -0.00001183   -0.00020247    0.00000000
     atom   15 type  1   force =     0.00001440   -0.00000000    0.00003528
     atom   16 type  1   force =     0.00000000   -0.00009066   -0.00001102
     atom   17 type  1   force =     0.00000000    0.00000000    0.00000000
     atom   18 type  1   force =    -0.00001959    0.00015956    0.00000000
     atom   19 type  1   force =     0.00002191   -0.00000000    0.00002836
     atom   20 type  1   force =     0.00000000    0.00028525   -0.00002294
     atom   21 type  1   force =     0.00000000    0.00000000    0.00000000
     atom   22 type  1   force =     0.00001183    0.00020247    0.00000000
     atom   23 type  1   force =     0.00002191    0.00000000   -0.00002836
     atom   24 type  1   force =     0.00000000    0.00028525    0.00002294
     atom   25 type  1   force =     0.00000000    0.00000000    0.00000000
     atom   26 type  1   force =    -0.00001959   -0.00015956    0.00000000
     atom   27 type  1   force =    -0.00001440   -0.00000000   -0.00003528
     atom   28 type  1   force =     0.00000000   -0.00028525   -0.00002294
     atom   29 type  1   force =     0.00000000    0.00000000    0.00000000
     atom   30 type  1   force =     0.00001183   -0.00020247    0.00000000
     atom   31 type  1   force =    -0.00001440    0.00000000    0.00003528
     atom   32 type  1   force =     0.00000000   -0.00028525    0.00002294

     Total force =     0.000800     Total SCF correction =     0.007074
     SCF correction compared to forces is large: reduce conv_thr to get better values


     Computing stress (Cartesian axis) and pressure

          total   stress  (Ry/bohr**3)                   (kbar)     P=    1.51
  -0.00001563   0.00000000   0.00000000         -2.30      0.00      0.00
   0.00000000   0.00001114   0.00000000          0.00      1.64      0.00
   0.00000000   0.00000000   0.00003531          0.00      0.00      5.19


     Writing output data file wgaycTwjQJaglork.save/
-------------------------------------------------------
Primary job  terminated normally, but 1 process returned
a non-zero exit code.. Per user-direction, the job has been aborted.
-------------------------------------------------------
--------------------------------------------------------------------------
mpirun detected that one or more processes exited with non-zero status, thus causing
the job to be terminated. The first process to do so was:

  Process name: [[49104,1],0]
  Exit code:    38
--------------------------------------------------------------------------
