--------------------------------------------------------------------------
WARNING: No preset parameters were found for the device that Open MPI
detected:

  Local host:            bear-pg0206u15a
  Device name:           mlx5_0
  Device vendor ID:      0x02c9
  Device vendor part ID: 4123

Default device parameters will be used, which may result in lower
performance.  You can edit any of the files specified by the
btl_openib_device_param_files MCA parameter to set values for your
device.

NOTE: You can turn off this warning by setting the MCA parameter
      btl_openib_warn_no_device_params_found to 0.
--------------------------------------------------------------------------
--------------------------------------------------------------------------
WARNING: There was an error initializing an OpenFabrics device.

  Local host:   bear-pg0206u15a
  Local device: mlx5_0
--------------------------------------------------------------------------

     Program PWSCF v.6.3 starts on 13Nov2020 at 22: 7:58 

     This program is part of the open-source Quantum ESPRESSO suite
     for quantum simulation of materials; please cite
         "P. Giannozzi et al., J. Phys.:Condens. Matter 21 395502 (2009);
         "P. Giannozzi et al., J. Phys.:Condens. Matter 29 465901 (2017);
          URL http://www.quantum-espresso.org", 
     in publications or presentations arising from this work. More details at
     http://www.quantum-espresso.org/quote

     Parallel version (MPI & OpenMP), running on      20 processor cores
     Number of MPI processes:                20
     Threads/MPI process:                     1

     MPI processes distributed on     1 nodes
     R & G space division:  proc/nbgrp/npool/nimage =      20
     Reading input from wd/ec/ec_8_002.in
Warning: card &IONS ignored
Warning: card ION_DYNAMICS = 'BFGS', ignored
Warning: card / ignored
Warning: card &CELL ignored
Warning: card CELL_DYNAMICS = 'BFGS', ignored
Warning: card CELL_FACTOR = 2.0, ignored
Warning: card PRESS = 0.0, ignored
Warning: card / ignored

     Current dimensions of program PWSCF are:
     Max number of different atomic species (ntypx) = 10
     Max number of k-points (npk) =  40000
     Max angular momentum in pseudopotentials (lmaxx) =  3
               file Pd.pbe-spn-kjpaw_psl.1.0.0.UPF: wavefunction(s)  4S 5S 4D renormalized

     Subspace diagonalization in iterative solution of the eigenvalue problem:
     a serial algorithm will be used

 
     Parallelization info
     --------------------
     sticks:   dense  smooth     PW     G-vecs:    dense   smooth      PW
     Min         376     248     67                24596    13198    1873
     Max         377     250     68                24601    13200    1878
     Sum        7527    4969   1353               491939   263967   37529
 


     bravais-lattice index     =            0
     lattice parameter (alat)  =      14.8394  a.u.
     unit-cell volume          =    3267.7646 (a.u.)^3
     number of atoms/cell      =           32
     number of atomic types    =            1
     number of electrons       =       576.00
     number of Kohn-Sham states=          346
     kinetic-energy cutoff     =      71.0000  Ry
     charge density cutoff     =     430.0000  Ry
     convergence threshold     =      1.0E-06
     mixing beta               =       0.1000
     number of iterations used =           10  plain     mixing
     Exchange-correlation      = SLA PW PBX PBC ( 1  4  3  4 0 0)

     celldm(1)=  14.839420  celldm(2)=   0.000000  celldm(3)=   0.000000
     celldm(4)=   0.000000  celldm(5)=   0.000000  celldm(6)=   0.000000

     crystal axes: (cart. coord. in units of alat)
               a(1) = (   1.000834   0.000000   0.000000 )  
               a(2) = (   0.000000   1.000000   0.000000 )  
               a(3) = (   0.000000   0.000000   0.999167 )  

     reciprocal axes: (cart. coord. in units 2 pi/alat)
               b(1) = (  0.999167  0.000000  0.000000 )  
               b(2) = (  0.000000  1.000000  0.000000 )  
               b(3) = (  0.000000  0.000000  1.000834 )  


     PseudoPot. # 1 for Pd read from file:
     /rds/homes/b/bxp912/pp/Pd.pbe-spn-kjpaw_psl.1.0.0.UPF
     MD5 check sum: 790f2ebce206edfd9790dcb9844eca51
     Pseudo is Projector augmented-wave + core cor, Zval = 18.0
     Generated using "atomic" code by A. Dal Corso v.6.3
     Shape of augmentation charge: PSQ
     Using radial grid of 1235 points,  6 beta functions with: 
                l(1) =   0
                l(2) =   0
                l(3) =   1
                l(4) =   1
                l(5) =   2
                l(6) =   2
     Q(r) pseudized with 0 coefficients 


     atomic species   valence    mass     pseudopotential
        Pd            18.00   106.42000     Pd( 1.00)

      8 Sym. Ops., with inversion, found



   Cartesian axes

     site n.     atom                  positions (alat units)
         1           Pd  tau(   1) = (   0.0000000   0.0000000   0.0000000  )
         2           Pd  tau(   2) = (   0.2502129   0.2500045   0.0000000  )
         3           Pd  tau(   3) = (   0.2502129   0.0000000   0.2497957  )
         4           Pd  tau(   4) = (   0.0000000   0.2500045   0.2497957  )
         5           Pd  tau(   5) = (   0.0000000   0.0000000   0.4995825  )
         6           Pd  tau(   6) = (   0.2502200   0.2500117   0.4995825  )
         7           Pd  tau(   7) = (   0.2502129   0.0000000   0.7493702  )
         8           Pd  tau(   8) = (   0.0000000   0.2500045   0.7493702  )
         9           Pd  tau(   9) = (   0.0000000   0.4999999   0.0000000  )
        10           Pd  tau(  10) = (   0.2502129   0.7499954   0.0000000  )
        11           Pd  tau(  11) = (   0.2502200   0.4999999   0.2498026  )
        12           Pd  tau(  12) = (   0.0000000   0.7499954   0.2497957  )
        13           Pd  tau(  13) = (   0.0000000   0.4999999   0.4995825  )
        14           Pd  tau(  14) = (   0.2502200   0.7499883   0.4995825  )
        15           Pd  tau(  15) = (   0.2502200   0.4999999   0.7493633  )
        16           Pd  tau(  16) = (   0.0000000   0.7499954   0.7493702  )
        17           Pd  tau(  17) = (   0.5004166   0.0000000   0.0000000  )
        18           Pd  tau(  18) = (   0.7506204   0.2500045   0.0000000  )
        19           Pd  tau(  19) = (   0.7506204   0.0000000   0.2497957  )
        20           Pd  tau(  20) = (   0.5004166   0.2500117   0.2498026  )
        21           Pd  tau(  21) = (   0.5004166   0.0000000   0.4995825  )
        22           Pd  tau(  22) = (   0.7506133   0.2500117   0.4995825  )
        23           Pd  tau(  23) = (   0.7506204   0.0000000   0.7493702  )
        24           Pd  tau(  24) = (   0.5004166   0.2500117   0.7493633  )
        25           Pd  tau(  25) = (   0.5004166   0.4999999   0.0000000  )
        26           Pd  tau(  26) = (   0.7506204   0.7499954   0.0000000  )
        27           Pd  tau(  27) = (   0.7506133   0.4999999   0.2498026  )
        28           Pd  tau(  28) = (   0.5004166   0.7499883   0.2498026  )
        29           Pd  tau(  29) = (   0.5004166   0.4999999   0.4995825  )
        30           Pd  tau(  30) = (   0.7506133   0.7499883   0.4995825  )
        31           Pd  tau(  31) = (   0.7506133   0.4999999   0.7493633  )
        32           Pd  tau(  32) = (   0.5004166   0.7499883   0.7493633  )

     number of k points=   125  Marzari-Vanderbilt smearing, width (Ry)=  0.0400

     Number of k-points >= 100: set verbosity='high' to print them.

     Dense  grid:   491939 G-vectors     FFT dimensions: ( 100, 100, 100)

     Smooth grid:   263967 G-vectors     FFT dimensions: (  80,  80,  80)

     Estimated max dynamical RAM per process >       1.30 GB

     Estimated total dynamical RAM >      25.91 GB

     Check: negative/imaginary core charge=   -0.000002    0.000000

     Initial potential from superposition of free atoms

     starting charge  575.98776, renormalised to  576.00000
     Starting wfcs are  320 randomized atomic wfcs +   26 random wfcs
     Checking if some PAW data can be deallocated... 

     total cpu time spent up to now is       72.2 secs

     Self-consistent Calculation

     iteration #  1     ecut=    71.00 Ry     beta= 0.10
     Davidson diagonalization with overlap
     ethr =  1.00E-02,  avg # of iterations =  3.1

     Threshold (ethr) on eigenvalues was too large:
     Diagonalizing with lowered threshold

     Davidson diagonalization with overlap
     ethr =  8.31E-05,  avg # of iterations =  3.0

     total cpu time spent up to now is      799.5 secs

     total energy              =  -16385.02025020 Ry
     Harris-Foulkes estimate   =  -16385.08764171 Ry
     estimated scf accuracy    <       0.47287820 Ry

     iteration #  2     ecut=    71.00 Ry     beta= 0.10
     Davidson diagonalization with overlap
     ethr =  8.21E-05,  avg # of iterations =  1.0

     total cpu time spent up to now is     1021.4 secs

     total energy              =  -16384.93114628 Ry
     Harris-Foulkes estimate   =  -16385.02800427 Ry
     estimated scf accuracy    <       0.25790591 Ry

     iteration #  3     ecut=    71.00 Ry     beta= 0.10
     Davidson diagonalization with overlap
     ethr =  4.48E-05,  avg # of iterations =  2.2

     total cpu time spent up to now is     1329.7 secs

     total energy              =  -16384.96071588 Ry
     Harris-Foulkes estimate   =  -16384.96785675 Ry
     estimated scf accuracy    <       0.09009847 Ry

     iteration #  4     ecut=    71.00 Ry     beta= 0.10
     Davidson diagonalization with overlap
     ethr =  1.56E-05,  avg # of iterations =  1.5

     total cpu time spent up to now is     1570.5 secs

     total energy              =  -16384.96203802 Ry
     Harris-Foulkes estimate   =  -16384.96420780 Ry
     estimated scf accuracy    <       0.02177293 Ry

     iteration #  5     ecut=    71.00 Ry     beta= 0.10
     Davidson diagonalization with overlap
     ethr =  3.78E-06,  avg # of iterations =  1.4

     total cpu time spent up to now is     1811.2 secs

     total energy              =  -16384.95706570 Ry
     Harris-Foulkes estimate   =  -16384.96222401 Ry
     estimated scf accuracy    <       0.01486092 Ry

     iteration #  6     ecut=    71.00 Ry     beta= 0.10
     Davidson diagonalization with overlap
     ethr =  2.58E-06,  avg # of iterations =  1.0

     total cpu time spent up to now is     2033.1 secs

     total energy              =  -16384.95797667 Ry
     Harris-Foulkes estimate   =  -16384.95805108 Ry
     estimated scf accuracy    <       0.00090225 Ry

     iteration #  7     ecut=    71.00 Ry     beta= 0.10
     Davidson diagonalization with overlap
     c_bands:  1 eigenvalues not converged
     ethr =  1.57E-07,  avg # of iterations =  3.3

     total cpu time spent up to now is     2386.4 secs

     total energy              =  -16384.95809954 Ry
     Harris-Foulkes estimate   =  -16384.95812933 Ry
     estimated scf accuracy    <       0.00040327 Ry

     iteration #  8     ecut=    71.00 Ry     beta= 0.10
     Davidson diagonalization with overlap
     ethr =  7.00E-08,  avg # of iterations =  1.2

     total cpu time spent up to now is     2613.2 secs

     total energy              =  -16384.95811043 Ry
     Harris-Foulkes estimate   =  -16384.95811402 Ry
     estimated scf accuracy    <       0.00005276 Ry

     iteration #  9     ecut=    71.00 Ry     beta= 0.10
     Davidson diagonalization with overlap
     ethr =  9.16E-09,  avg # of iterations =  1.0

     total cpu time spent up to now is     2832.2 secs

     total energy              =  -16384.95810991 Ry
     Harris-Foulkes estimate   =  -16384.95811122 Ry
     estimated scf accuracy    <       0.00003704 Ry

     iteration # 10     ecut=    71.00 Ry     beta= 0.10
     Davidson diagonalization with overlap
     ethr =  6.43E-09,  avg # of iterations =  2.0

     total cpu time spent up to now is     3136.3 secs

     total energy              =  -16384.95811697 Ry
     Harris-Foulkes estimate   =  -16384.95811408 Ry
     estimated scf accuracy    <       0.00000303 Ry

     iteration # 11     ecut=    71.00 Ry     beta= 0.10
     Davidson diagonalization with overlap
     ethr =  5.25E-10,  avg # of iterations =  1.2

     total cpu time spent up to now is     3367.3 secs

     total energy              =  -16384.95811929 Ry
     Harris-Foulkes estimate   =  -16384.95811722 Ry
     estimated scf accuracy    <       0.00000108 Ry

     iteration # 12     ecut=    71.00 Ry     beta= 0.10
     Davidson diagonalization with overlap
     ethr =  1.88E-10,  avg # of iterations =  1.0

     total cpu time spent up to now is     3588.3 secs

     End of self-consistent calculation

     Number of k-points >= 100: set verbosity='high' to print the bands.

     the Fermi energy is    19.2985 ev

!    total energy              =  -16384.95812833 Ry
     Harris-Foulkes estimate   =  -16384.95811932 Ry
     estimated scf accuracy    <       0.00000046 Ry

     total all-electron energy =   -322945.811835 Ry

     The total energy is the sum of the following terms:

     one-electron contribution =   -2484.49425743 Ry
     hartree contribution      =    1660.15785001 Ry
     xc contribution           =    -986.52855088 Ry
     ewald contribution        =   -6406.69902540 Ry
     one-center paw contrib.   =   -8167.42700326 Ry
     smearing contrib. (-TS)   =       0.03285862 Ry

     convergence has been achieved in  12 iterations

     Forces acting on atoms (cartesian axes, Ry/au):

     atom    1 type  1   force =     0.00000000    0.00000000    0.00000000
     atom    2 type  1   force =     0.00003342    0.00024717    0.00000000
     atom    3 type  1   force =    -0.00002770    0.00000000   -0.00006767
     atom    4 type  1   force =     0.00000000    0.00019721   -0.00005218
     atom    5 type  1   force =     0.00000000    0.00000000    0.00000000
     atom    6 type  1   force =     0.00006615    0.00033820    0.00000000
     atom    7 type  1   force =    -0.00002770   -0.00000000    0.00006767
     atom    8 type  1   force =     0.00000000    0.00019721    0.00005218
     atom    9 type  1   force =     0.00000000    0.00000000    0.00000000
     atom   10 type  1   force =     0.00003342   -0.00024717    0.00000000
     atom   11 type  1   force =     0.00013540    0.00000000   -0.00001314
     atom   12 type  1   force =     0.00000000   -0.00019721   -0.00005218
     atom   13 type  1   force =     0.00000000    0.00000000    0.00000000
     atom   14 type  1   force =     0.00006615   -0.00033820    0.00000000
     atom   15 type  1   force =     0.00013540    0.00000000    0.00001314
     atom   16 type  1   force =     0.00000000   -0.00019721    0.00005218
     atom   17 type  1   force =     0.00000000    0.00000000    0.00000000
     atom   18 type  1   force =    -0.00003342    0.00024717    0.00000000
     atom   19 type  1   force =     0.00002770   -0.00000000   -0.00006767
     atom   20 type  1   force =     0.00000000    0.00041316   -0.00001195
     atom   21 type  1   force =     0.00000000    0.00000000    0.00000000
     atom   22 type  1   force =    -0.00006615    0.00033820    0.00000000
     atom   23 type  1   force =     0.00002770    0.00000000    0.00006767
     atom   24 type  1   force =     0.00000000    0.00041316    0.00001195
     atom   25 type  1   force =     0.00000000    0.00000000    0.00000000
     atom   26 type  1   force =    -0.00003342   -0.00024717    0.00000000
     atom   27 type  1   force =    -0.00013540    0.00000000   -0.00001314
     atom   28 type  1   force =     0.00000000   -0.00041316   -0.00001195
     atom   29 type  1   force =     0.00000000    0.00000000    0.00000000
     atom   30 type  1   force =    -0.00006615   -0.00033820    0.00000000
     atom   31 type  1   force =    -0.00013540    0.00000000    0.00001314
     atom   32 type  1   force =     0.00000000   -0.00041316    0.00001195

     Total force =     0.001292     Total SCF correction =     0.005857
     SCF correction compared to forces is large: reduce conv_thr to get better values


     Computing stress (Cartesian axis) and pressure

          total   stress  (Ry/bohr**3)                   (kbar)     P=    1.75
   0.00000750   0.00000000   0.00000000          1.10      0.00      0.00
   0.00000000   0.00001218   0.00000000          0.00      1.79      0.00
   0.00000000   0.00000000   0.00001609          0.00      0.00      2.37


     Writing output data file QoVbaHlrAmnKXQrC.save/
-------------------------------------------------------
Primary job  terminated normally, but 1 process returned
a non-zero exit code.. Per user-direction, the job has been aborted.
-------------------------------------------------------
--------------------------------------------------------------------------
mpirun detected that one or more processes exited with non-zero status, thus causing
the job to be terminated. The first process to do so was:

  Process name: [[3440,1],0]
  Exit code:    38
--------------------------------------------------------------------------
