--------------------------------------------------------------------------
WARNING: No preset parameters were found for the device that Open MPI
detected:

  Local host:            bear-pg0206u15a
  Device name:           mlx5_0
  Device vendor ID:      0x02c9
  Device vendor part ID: 4123

Default device parameters will be used, which may result in lower
performance.  You can edit any of the files specified by the
btl_openib_device_param_files MCA parameter to set values for your
device.

NOTE: You can turn off this warning by setting the MCA parameter
      btl_openib_warn_no_device_params_found to 0.
--------------------------------------------------------------------------
--------------------------------------------------------------------------
WARNING: There was an error initializing an OpenFabrics device.

  Local host:   bear-pg0206u15a
  Local device: mlx5_0
--------------------------------------------------------------------------

     Program PWSCF v.6.3 starts on 14Nov2020 at  6:51: 1 

     This program is part of the open-source Quantum ESPRESSO suite
     for quantum simulation of materials; please cite
         "P. Giannozzi et al., J. Phys.:Condens. Matter 21 395502 (2009);
         "P. Giannozzi et al., J. Phys.:Condens. Matter 29 465901 (2017);
          URL http://www.quantum-espresso.org", 
     in publications or presentations arising from this work. More details at
     http://www.quantum-espresso.org/quote

     Parallel version (MPI & OpenMP), running on      20 processor cores
     Number of MPI processes:                20
     Threads/MPI process:                     1

     MPI processes distributed on     1 nodes
     R & G space division:  proc/nbgrp/npool/nimage =      20
     Reading input from wd/ec/ec_9_004.in
Warning: card &IONS ignored
Warning: card ION_DYNAMICS = 'BFGS', ignored
Warning: card / ignored
Warning: card &CELL ignored
Warning: card CELL_DYNAMICS = 'BFGS', ignored
Warning: card CELL_FACTOR = 2.0, ignored
Warning: card PRESS = 0.0, ignored
Warning: card / ignored

     Current dimensions of program PWSCF are:
     Max number of different atomic species (ntypx) = 10
     Max number of k-points (npk) =  40000
     Max angular momentum in pseudopotentials (lmaxx) =  3
               file Pd.pbe-spn-kjpaw_psl.1.0.0.UPF: wavefunction(s)  4S 5S 4D renormalized

     Subspace diagonalization in iterative solution of the eigenvalue problem:
     a serial algorithm will be used

 
     Parallelization info
     --------------------
     sticks:   dense  smooth     PW     G-vecs:    dense   smooth      PW
     Min         376     249     67                24595    13205    1873
     Max         378     250     68                24600    13208    1878
     Sum        7551    4985   1353               491939   264111   37529
 


     bravais-lattice index     =            0
     lattice parameter (alat)  =      14.8394  a.u.
     unit-cell volume          =    3267.7646 (a.u.)^3
     number of atoms/cell      =           32
     number of atomic types    =            1
     number of electrons       =       576.00
     number of Kohn-Sham states=          346
     kinetic-energy cutoff     =      71.0000  Ry
     charge density cutoff     =     430.0000  Ry
     convergence threshold     =      1.0E-06
     mixing beta               =       0.1000
     number of iterations used =           10  plain     mixing
     Exchange-correlation      = SLA PW PBX PBC ( 1  4  3  4 0 0)

     celldm(1)=  14.839420  celldm(2)=   0.000000  celldm(3)=   0.000000
     celldm(4)=   0.000000  celldm(5)=   0.000000  celldm(6)=   0.000000

     crystal axes: (cart. coord. in units of alat)
               a(1) = (   1.000002   0.000000   0.000000 )  
               a(2) = (   0.000000   1.002502   0.000000 )  
               a(3) = (   0.000000   0.000000   0.997502 )  

     reciprocal axes: (cart. coord. in units 2 pi/alat)
               b(1) = (  0.999998  0.000000  0.000000 )  
               b(2) = (  0.000000  0.997504  0.000000 )  
               b(3) = (  0.000000  0.000000  1.002504 )  


     PseudoPot. # 1 for Pd read from file:
     /rds/homes/b/bxp912/pp/Pd.pbe-spn-kjpaw_psl.1.0.0.UPF
     MD5 check sum: 790f2ebce206edfd9790dcb9844eca51
     Pseudo is Projector augmented-wave + core cor, Zval = 18.0
     Generated using "atomic" code by A. Dal Corso v.6.3
     Shape of augmentation charge: PSQ
     Using radial grid of 1235 points,  6 beta functions with: 
                l(1) =   0
                l(2) =   0
                l(3) =   1
                l(4) =   1
                l(5) =   2
                l(6) =   2
     Q(r) pseudized with 0 coefficients 


     atomic species   valence    mass     pseudopotential
        Pd            18.00   106.42000     Pd( 1.00)

      8 Sym. Ops., with inversion, found



   Cartesian axes

     site n.     atom                  positions (alat units)
         1           Pd  tau(   1) = (   0.0000000   0.0000000   0.0000000  )
         2           Pd  tau(   2) = (   0.2500050   0.2506300   0.0000000  )
         3           Pd  tau(   3) = (   0.2500050   0.0000000   0.2493795  )
         4           Pd  tau(   4) = (   0.0000000   0.2506300   0.2493795  )
         5           Pd  tau(   5) = (   0.0000000   0.0000000   0.4987501  )
         6           Pd  tau(   6) = (   0.2500121   0.2506371   0.4987501  )
         7           Pd  tau(   7) = (   0.2500050   0.0000000   0.7481216  )
         8           Pd  tau(   8) = (   0.0000000   0.2506300   0.7481216  )
         9           Pd  tau(   9) = (   0.0000000   0.5012508   0.0000000  )
        10           Pd  tau(  10) = (   0.2500050   0.7518718   0.0000000  )
        11           Pd  tau(  11) = (   0.2500121   0.5012508   0.2493864  )
        12           Pd  tau(  12) = (   0.0000000   0.7518718   0.2493795  )
        13           Pd  tau(  13) = (   0.0000000   0.5012508   0.4987501  )
        14           Pd  tau(  14) = (   0.2500121   0.7518646   0.4987501  )
        15           Pd  tau(  15) = (   0.2500121   0.5012508   0.7481147  )
        16           Pd  tau(  16) = (   0.0000000   0.7518718   0.7481216  )
        17           Pd  tau(  17) = (   0.5000008   0.0000000   0.0000000  )
        18           Pd  tau(  18) = (   0.7499968   0.2506300   0.0000000  )
        19           Pd  tau(  19) = (   0.7499968   0.0000000   0.2493795  )
        20           Pd  tau(  20) = (   0.5000008   0.2506371   0.2493864  )
        21           Pd  tau(  21) = (   0.5000008   0.0000000   0.4987501  )
        22           Pd  tau(  22) = (   0.7499897   0.2506371   0.4987501  )
        23           Pd  tau(  23) = (   0.7499968   0.0000000   0.7481216  )
        24           Pd  tau(  24) = (   0.5000008   0.2506371   0.7481147  )
        25           Pd  tau(  25) = (   0.5000008   0.5012508   0.0000000  )
        26           Pd  tau(  26) = (   0.7499968   0.7518718   0.0000000  )
        27           Pd  tau(  27) = (   0.7499897   0.5012508   0.2493864  )
        28           Pd  tau(  28) = (   0.5000008   0.7518646   0.2493864  )
        29           Pd  tau(  29) = (   0.5000008   0.5012508   0.4987501  )
        30           Pd  tau(  30) = (   0.7499897   0.7518646   0.4987501  )
        31           Pd  tau(  31) = (   0.7499897   0.5012508   0.7481147  )
        32           Pd  tau(  32) = (   0.5000008   0.7518646   0.7481147  )

     number of k points=   125  Marzari-Vanderbilt smearing, width (Ry)=  0.0400

     Number of k-points >= 100: set verbosity='high' to print them.

     Dense  grid:   491939 G-vectors     FFT dimensions: ( 100, 100, 100)

     Smooth grid:   264111 G-vectors     FFT dimensions: (  80,  80,  80)

     Estimated max dynamical RAM per process >       1.30 GB

     Estimated total dynamical RAM >      25.91 GB

     Check: negative/imaginary core charge=   -0.000002    0.000000

     Initial potential from superposition of free atoms

     starting charge  575.98776, renormalised to  576.00000
     Starting wfcs are  320 randomized atomic wfcs +   26 random wfcs
     Checking if some PAW data can be deallocated... 

     total cpu time spent up to now is       72.2 secs

     Self-consistent Calculation

     iteration #  1     ecut=    71.00 Ry     beta= 0.10
     Davidson diagonalization with overlap
     ethr =  1.00E-02,  avg # of iterations =  3.1

     Threshold (ethr) on eigenvalues was too large:
     Diagonalizing with lowered threshold

     Davidson diagonalization with overlap
     ethr =  8.31E-05,  avg # of iterations =  3.1

     total cpu time spent up to now is      802.0 secs

     total energy              =  -16385.02019535 Ry
     Harris-Foulkes estimate   =  -16385.08758168 Ry
     estimated scf accuracy    <       0.47285891 Ry

     iteration #  2     ecut=    71.00 Ry     beta= 0.10
     Davidson diagonalization with overlap
     ethr =  8.21E-05,  avg # of iterations =  1.0

     total cpu time spent up to now is     1024.2 secs

     total energy              =  -16384.93108484 Ry
     Harris-Foulkes estimate   =  -16385.02793542 Ry
     estimated scf accuracy    <       0.25796157 Ry

     iteration #  3     ecut=    71.00 Ry     beta= 0.10
     Davidson diagonalization with overlap
     ethr =  4.48E-05,  avg # of iterations =  2.1

     total cpu time spent up to now is     1324.6 secs

     total energy              =  -16384.96059596 Ry
     Harris-Foulkes estimate   =  -16384.96781473 Ry
     estimated scf accuracy    <       0.09120147 Ry

     iteration #  4     ecut=    71.00 Ry     beta= 0.10
     Davidson diagonalization with overlap
     ethr =  1.58E-05,  avg # of iterations =  1.3

     total cpu time spent up to now is     1559.2 secs

     total energy              =  -16384.96196721 Ry
     Harris-Foulkes estimate   =  -16384.96412847 Ry
     estimated scf accuracy    <       0.02179264 Ry

     iteration #  5     ecut=    71.00 Ry     beta= 0.10
     Davidson diagonalization with overlap
     ethr =  3.78E-06,  avg # of iterations =  1.5

     total cpu time spent up to now is     1802.0 secs

     total energy              =  -16384.95698679 Ry
     Harris-Foulkes estimate   =  -16384.96215360 Ry
     estimated scf accuracy    <       0.01490560 Ry

     iteration #  6     ecut=    71.00 Ry     beta= 0.10
     Davidson diagonalization with overlap
     ethr =  2.59E-06,  avg # of iterations =  1.0

     total cpu time spent up to now is     2023.1 secs

     total energy              =  -16384.95788364 Ry
     Harris-Foulkes estimate   =  -16384.95797450 Ry
     estimated scf accuracy    <       0.00108601 Ry

     iteration #  7     ecut=    71.00 Ry     beta= 0.10
     Davidson diagonalization with overlap
     ethr =  1.89E-07,  avg # of iterations =  3.3

     total cpu time spent up to now is     2377.1 secs

     total energy              =  -16384.95801677 Ry
     Harris-Foulkes estimate   =  -16384.95804685 Ry
     estimated scf accuracy    <       0.00039731 Ry

     iteration #  8     ecut=    71.00 Ry     beta= 0.10
     Davidson diagonalization with overlap
     ethr =  6.90E-08,  avg # of iterations =  1.1

     total cpu time spent up to now is     2603.0 secs

     total energy              =  -16384.95802754 Ry
     Harris-Foulkes estimate   =  -16384.95803113 Ry
     estimated scf accuracy    <       0.00005274 Ry

     iteration #  9     ecut=    71.00 Ry     beta= 0.10
     Davidson diagonalization with overlap
     ethr =  9.16E-09,  avg # of iterations =  1.0

     total cpu time spent up to now is     2821.9 secs

     total energy              =  -16384.95802700 Ry
     Harris-Foulkes estimate   =  -16384.95802833 Ry
     estimated scf accuracy    <       0.00003696 Ry

     iteration # 10     ecut=    71.00 Ry     beta= 0.10
     Davidson diagonalization with overlap
     ethr =  6.42E-09,  avg # of iterations =  2.0

     total cpu time spent up to now is     3125.1 secs

     total energy              =  -16384.95803389 Ry
     Harris-Foulkes estimate   =  -16384.95803119 Ry
     estimated scf accuracy    <       0.00000429 Ry

     iteration # 11     ecut=    71.00 Ry     beta= 0.10
     Davidson diagonalization with overlap
     ethr =  7.45E-10,  avg # of iterations =  1.0

     total cpu time spent up to now is     3347.3 secs

     total energy              =  -16384.95803622 Ry
     Harris-Foulkes estimate   =  -16384.95803422 Ry
     estimated scf accuracy    <       0.00000114 Ry

     iteration # 12     ecut=    71.00 Ry     beta= 0.10
     Davidson diagonalization with overlap
     ethr =  1.98E-10,  avg # of iterations =  1.0

     total cpu time spent up to now is     3569.7 secs

     End of self-consistent calculation

     Number of k-points >= 100: set verbosity='high' to print the bands.

     the Fermi energy is    19.2985 ev

!    total energy              =  -16384.95804501 Ry
     Harris-Foulkes estimate   =  -16384.95803625 Ry
     estimated scf accuracy    <       0.00000045 Ry

     total all-electron energy =   -322945.811752 Ry

     The total energy is the sum of the following terms:

     one-electron contribution =   -2484.49810905 Ry
     hartree contribution      =    1660.16031948 Ry
     xc contribution           =    -986.52877758 Ry
     ewald contribution        =   -6406.69738253 Ry
     one-center paw contrib.   =   -8167.42700429 Ry
     smearing contrib. (-TS)   =       0.03290896 Ry

     convergence has been achieved in  12 iterations

     Forces acting on atoms (cartesian axes, Ry/au):

     atom    1 type  1   force =     0.00000000    0.00000000    0.00000000
     atom    2 type  1   force =     0.00003049    0.00025139    0.00000000
     atom    3 type  1   force =    -0.00003006   -0.00000000   -0.00006372
     atom    4 type  1   force =     0.00000000    0.00019957   -0.00004995
     atom    5 type  1   force =     0.00000000    0.00000000    0.00000000
     atom    6 type  1   force =     0.00006328    0.00034326    0.00000000
     atom    7 type  1   force =    -0.00003006    0.00000000    0.00006372
     atom    8 type  1   force =     0.00000000    0.00019957    0.00004995
     atom    9 type  1   force =     0.00000000    0.00000000    0.00000000
     atom   10 type  1   force =     0.00003049   -0.00025139    0.00000000
     atom   11 type  1   force =     0.00013125   -0.00000000   -0.00001158
     atom   12 type  1   force =     0.00000000   -0.00019957   -0.00004995
     atom   13 type  1   force =     0.00000000    0.00000000    0.00000000
     atom   14 type  1   force =     0.00006328   -0.00034326    0.00000000
     atom   15 type  1   force =     0.00013125    0.00000000    0.00001158
     atom   16 type  1   force =     0.00000000   -0.00019957    0.00004995
     atom   17 type  1   force =     0.00000000    0.00000000    0.00000000
     atom   18 type  1   force =    -0.00003049    0.00025139    0.00000000
     atom   19 type  1   force =     0.00003006    0.00000000   -0.00006372
     atom   20 type  1   force =     0.00000000    0.00042103   -0.00000976
     atom   21 type  1   force =     0.00000000    0.00000000    0.00000000
     atom   22 type  1   force =    -0.00006328    0.00034326    0.00000000
     atom   23 type  1   force =     0.00003006   -0.00000000    0.00006372
     atom   24 type  1   force =     0.00000000    0.00042103    0.00000976
     atom   25 type  1   force =     0.00000000    0.00000000    0.00000000
     atom   26 type  1   force =    -0.00003049   -0.00025139    0.00000000
     atom   27 type  1   force =    -0.00013125    0.00000000   -0.00001158
     atom   28 type  1   force =     0.00000000   -0.00042103   -0.00000976
     atom   29 type  1   force =     0.00000000    0.00000000    0.00000000
     atom   30 type  1   force =    -0.00006328   -0.00034326    0.00000000
     atom   31 type  1   force =    -0.00013125   -0.00000000    0.00001158
     atom   32 type  1   force =     0.00000000   -0.00042103    0.00000976

     Total force =     0.001308     Total SCF correction =     0.005832
     SCF correction compared to forces is large: reduce conv_thr to get better values


     Computing stress (Cartesian axis) and pressure

          total   stress  (Ry/bohr**3)                   (kbar)     P=    1.78
   0.00001208   0.00000000   0.00000000          1.78      0.00      0.00
   0.00000000  -0.00000045   0.00000000          0.00     -0.07      0.00
   0.00000000   0.00000000   0.00002461          0.00      0.00      3.62


     Writing output data file hQzjVyQpOcfXtLuC.save/
-------------------------------------------------------
Primary job  terminated normally, but 1 process returned
a non-zero exit code.. Per user-direction, the job has been aborted.
-------------------------------------------------------
--------------------------------------------------------------------------
mpirun detected that one or more processes exited with non-zero status, thus causing
the job to be terminated. The first process to do so was:

  Process name: [[54293,1],0]
  Exit code:    38
--------------------------------------------------------------------------
