--------------------------------------------------------------------------
WARNING: No preset parameters were found for the device that Open MPI
detected:

  Local host:            bear-pg0206u14b
  Device name:           mlx5_0
  Device vendor ID:      0x02c9
  Device vendor part ID: 4123

Default device parameters will be used, which may result in lower
performance.  You can edit any of the files specified by the
btl_openib_device_param_files MCA parameter to set values for your
device.

NOTE: You can turn off this warning by setting the MCA parameter
      btl_openib_warn_no_device_params_found to 0.
--------------------------------------------------------------------------
--------------------------------------------------------------------------
WARNING: There was an error initializing an OpenFabrics device.

  Local host:   bear-pg0206u14b
  Local device: mlx5_0
--------------------------------------------------------------------------

     Program PWSCF v.6.3 starts on 11Nov2020 at  8: 7:22 

     This program is part of the open-source Quantum ESPRESSO suite
     for quantum simulation of materials; please cite
         "P. Giannozzi et al., J. Phys.:Condens. Matter 21 395502 (2009);
         "P. Giannozzi et al., J. Phys.:Condens. Matter 29 465901 (2017);
          URL http://www.quantum-espresso.org", 
     in publications or presentations arising from this work. More details at
     http://www.quantum-espresso.org/quote

     Parallel version (MPI & OpenMP), running on      20 processor cores
     Number of MPI processes:                20
     Threads/MPI process:                     1

     MPI processes distributed on     1 nodes
     R & G space division:  proc/nbgrp/npool/nimage =      20
     Reading input from wd/eos/eos_002.in
Warning: card &IONS ignored
Warning: card ION_DYNAMICS = 'BFGS', ignored
Warning: card / ignored
Warning: card &CELL ignored
Warning: card CELL_DYNAMICS = 'BFGS', ignored
Warning: card CELL_FACTOR = 2.0, ignored
Warning: card PRESS = 0.0, ignored
Warning: card / ignored

     Current dimensions of program PWSCF are:
     Max number of different atomic species (ntypx) = 10
     Max number of k-points (npk) =  40000
     Max angular momentum in pseudopotentials (lmaxx) =  3
               file Pd.pbe-spn-kjpaw_psl.1.0.0.UPF: wavefunction(s)  4S 5S 4D renormalized

     Subspace diagonalization in iterative solution of the eigenvalue problem:
     a serial algorithm will be used

 
     Parallelization info
     --------------------
     sticks:   dense  smooth     PW     G-vecs:    dense   smooth      PW
     Min         373     247     67                24361    13069    1859
     Max         374     248     68                24364    13072    1860
     Sum        7473    4949   1353               487257   261411   37193
 


     bravais-lattice index     =            0
     lattice parameter (alat)  =      14.8394  a.u.
     unit-cell volume          =    3235.1958 (a.u.)^3
     number of atoms/cell      =           32
     number of atomic types    =            1
     number of electrons       =       576.00
     number of Kohn-Sham states=          346
     kinetic-energy cutoff     =      71.0000  Ry
     charge density cutoff     =     430.0000  Ry
     convergence threshold     =      1.0E-06
     mixing beta               =       0.1000
     number of iterations used =           10  plain     mixing
     Exchange-correlation      = SLA PW PBX PBC ( 1  4  3  4 0 0)

     celldm(1)=  14.839420  celldm(2)=   0.000000  celldm(3)=   0.000000
     celldm(4)=   0.000000  celldm(5)=   0.000000  celldm(6)=   0.000000

     crystal axes: (cart. coord. in units of alat)
               a(1) = (   0.996667   0.000000   0.000000 )  
               a(2) = (   0.000000   0.996667   0.000000 )  
               a(3) = (   0.000000   0.000000   0.996667 )  

     reciprocal axes: (cart. coord. in units 2 pi/alat)
               b(1) = (  1.003344  0.000000  0.000000 )  
               b(2) = (  0.000000  1.003344  0.000000 )  
               b(3) = (  0.000000  0.000000  1.003344 )  


     PseudoPot. # 1 for Pd read from file:
     /rds/homes/b/bxp912/pp/Pd.pbe-spn-kjpaw_psl.1.0.0.UPF
     MD5 check sum: 790f2ebce206edfd9790dcb9844eca51
     Pseudo is Projector augmented-wave + core cor, Zval = 18.0
     Generated using "atomic" code by A. Dal Corso v.6.3
     Shape of augmentation charge: PSQ
     Using radial grid of 1235 points,  6 beta functions with: 
                l(1) =   0
                l(2) =   0
                l(3) =   1
                l(4) =   1
                l(5) =   2
                l(6) =   2
     Q(r) pseudized with 0 coefficients 


     atomic species   valence    mass     pseudopotential
        Pd            18.00   106.42000     Pd( 1.00)

     48 Sym. Ops., with inversion, found



   Cartesian axes

     site n.     atom                  positions (alat units)
         1           Pd  tau(   1) = (   0.0000000   0.0000000   0.0000000  )
         2           Pd  tau(   2) = (   0.2491711   0.2491711   0.0000000  )
         3           Pd  tau(   3) = (   0.2491711   0.0000000   0.2491706  )
         4           Pd  tau(   4) = (   0.0000000   0.2491711   0.2491706  )
         5           Pd  tau(   5) = (   0.0000000   0.0000000   0.4983323  )
         6           Pd  tau(   6) = (   0.2491782   0.2491782   0.4983323  )
         7           Pd  tau(   7) = (   0.2491711   0.0000000   0.7474951  )
         8           Pd  tau(   8) = (   0.0000000   0.2491711   0.7474951  )
         9           Pd  tau(   9) = (   0.0000000   0.4983331   0.0000000  )
        10           Pd  tau(  10) = (   0.2491711   0.7474953   0.0000000  )
        11           Pd  tau(  11) = (   0.2491782   0.4983331   0.2491775  )
        12           Pd  tau(  12) = (   0.0000000   0.7474953   0.2491706  )
        13           Pd  tau(  13) = (   0.0000000   0.4983331   0.4983323  )
        14           Pd  tau(  14) = (   0.2491782   0.7474881   0.4983323  )
        15           Pd  tau(  15) = (   0.2491782   0.4983331   0.7474881  )
        16           Pd  tau(  16) = (   0.0000000   0.7474953   0.7474951  )
        17           Pd  tau(  17) = (   0.4983331   0.0000000   0.0000000  )
        18           Pd  tau(  18) = (   0.7474953   0.2491711   0.0000000  )
        19           Pd  tau(  19) = (   0.7474953   0.0000000   0.2491706  )
        20           Pd  tau(  20) = (   0.4983331   0.2491782   0.2491775  )
        21           Pd  tau(  21) = (   0.4983331   0.0000000   0.4983323  )
        22           Pd  tau(  22) = (   0.7474881   0.2491782   0.4983323  )
        23           Pd  tau(  23) = (   0.7474953   0.0000000   0.7474951  )
        24           Pd  tau(  24) = (   0.4983331   0.2491782   0.7474881  )
        25           Pd  tau(  25) = (   0.4983331   0.4983331   0.0000000  )
        26           Pd  tau(  26) = (   0.7474953   0.7474953   0.0000000  )
        27           Pd  tau(  27) = (   0.7474881   0.4983331   0.2491775  )
        28           Pd  tau(  28) = (   0.4983331   0.7474881   0.2491775  )
        29           Pd  tau(  29) = (   0.4983331   0.4983331   0.4983323  )
        30           Pd  tau(  30) = (   0.7474881   0.7474881   0.4983323  )
        31           Pd  tau(  31) = (   0.7474881   0.4983331   0.7474881  )
        32           Pd  tau(  32) = (   0.4983331   0.7474881   0.7474881  )

     number of k points=    35  Marzari-Vanderbilt smearing, width (Ry)=  0.0400
                       cart. coord. in units 2pi/alat
        k(    1) = (   0.0557414   0.0557414   0.0557414), wk =   0.0219479
        k(    2) = (   0.0557414   0.0557414   0.1672241), wk =   0.0658436
        k(    3) = (   0.0557414   0.0557414   0.2787068), wk =   0.0658436
        k(    4) = (   0.0557414   0.0557414   0.3901895), wk =   0.0658436
        k(    5) = (   0.0557414   0.0557414  -0.5016722), wk =   0.0329218
        k(    6) = (   0.0557414   0.1672241   0.1672241), wk =   0.0658436
        k(    7) = (   0.0557414   0.1672241   0.2787068), wk =   0.1316872
        k(    8) = (   0.0557414   0.1672241   0.3901895), wk =   0.1316872
        k(    9) = (   0.0557414   0.1672241  -0.5016722), wk =   0.0658436
        k(   10) = (   0.0557414   0.2787068   0.2787068), wk =   0.0658436
        k(   11) = (   0.0557414   0.2787068   0.3901895), wk =   0.1316872
        k(   12) = (   0.0557414   0.2787068  -0.5016722), wk =   0.0658436
        k(   13) = (   0.0557414   0.3901895   0.3901895), wk =   0.0658436
        k(   14) = (   0.0557414   0.3901895  -0.5016722), wk =   0.0658436
        k(   15) = (   0.0557414  -0.5016722  -0.5016722), wk =   0.0164609
        k(   16) = (   0.1672241   0.1672241   0.1672241), wk =   0.0219479
        k(   17) = (   0.1672241   0.1672241   0.2787068), wk =   0.0658436
        k(   18) = (   0.1672241   0.1672241   0.3901895), wk =   0.0658436
        k(   19) = (   0.1672241   0.1672241  -0.5016722), wk =   0.0329218
        k(   20) = (   0.1672241   0.2787068   0.2787068), wk =   0.0658436
        k(   21) = (   0.1672241   0.2787068   0.3901895), wk =   0.1316872
        k(   22) = (   0.1672241   0.2787068  -0.5016722), wk =   0.0658436
        k(   23) = (   0.1672241   0.3901895   0.3901895), wk =   0.0658436
        k(   24) = (   0.1672241   0.3901895  -0.5016722), wk =   0.0658436
        k(   25) = (   0.1672241  -0.5016722  -0.5016722), wk =   0.0164609
        k(   26) = (   0.2787068   0.2787068   0.2787068), wk =   0.0219479
        k(   27) = (   0.2787068   0.2787068   0.3901895), wk =   0.0658436
        k(   28) = (   0.2787068   0.2787068  -0.5016722), wk =   0.0329218
        k(   29) = (   0.2787068   0.3901895   0.3901895), wk =   0.0658436
        k(   30) = (   0.2787068   0.3901895  -0.5016722), wk =   0.0658436
        k(   31) = (   0.2787068  -0.5016722  -0.5016722), wk =   0.0164609
        k(   32) = (   0.3901895   0.3901895   0.3901895), wk =   0.0219479
        k(   33) = (   0.3901895   0.3901895  -0.5016722), wk =   0.0329218
        k(   34) = (   0.3901895  -0.5016722  -0.5016722), wk =   0.0164609
        k(   35) = (  -0.5016722  -0.5016722  -0.5016722), wk =   0.0027435

     Dense  grid:   487257 G-vectors     FFT dimensions: ( 100, 100, 100)

     Smooth grid:   261411 G-vectors     FFT dimensions: (  80,  80,  80)

     Estimated max dynamical RAM per process >     538.06 MB

     Estimated total dynamical RAM >      10.51 GB

     Check: negative/imaginary core charge=   -0.000002    0.000000

     Initial potential from superposition of free atoms

     starting charge  575.98776, renormalised to  576.00000
     Starting wfcs are  320 randomized atomic wfcs +   26 random wfcs
     Checking if some PAW data can be deallocated... 

     total cpu time spent up to now is       22.1 secs

     Self-consistent Calculation

     iteration #  1     ecut=    71.00 Ry     beta= 0.10
     Davidson diagonalization with overlap
     ethr =  1.00E-02,  avg # of iterations =  3.0

     Threshold (ethr) on eigenvalues was too large:
     Diagonalizing with lowered threshold

     Davidson diagonalization with overlap
     ethr =  7.76E-05,  avg # of iterations =  3.3

     total cpu time spent up to now is      235.2 secs

     total energy              =  -16385.01104781 Ry
     Harris-Foulkes estimate   =  -16385.07350322 Ry
     estimated scf accuracy    <       0.44168268 Ry

     iteration #  2     ecut=    71.00 Ry     beta= 0.10
     Davidson diagonalization with overlap
     ethr =  7.67E-05,  avg # of iterations =  1.0

     total cpu time spent up to now is      299.5 secs

     total energy              =  -16384.92399462 Ry
     Harris-Foulkes estimate   =  -16385.01809709 Ry
     estimated scf accuracy    <       0.24230299 Ry

     iteration #  3     ecut=    71.00 Ry     beta= 0.10
     Davidson diagonalization with overlap
     ethr =  4.21E-05,  avg # of iterations =  2.1

     total cpu time spent up to now is      387.8 secs

     total energy              =  -16384.95626994 Ry
     Harris-Foulkes estimate   =  -16384.96005947 Ry
     estimated scf accuracy    <       0.05379523 Ry

     iteration #  4     ecut=    71.00 Ry     beta= 0.10
     Davidson diagonalization with overlap
     ethr =  9.34E-06,  avg # of iterations =  1.9

     total cpu time spent up to now is      462.0 secs

     total energy              =  -16384.95575583 Ry
     Harris-Foulkes estimate   =  -16384.95813243 Ry
     estimated scf accuracy    <       0.02094213 Ry

     iteration #  5     ecut=    71.00 Ry     beta= 0.10
     Davidson diagonalization with overlap
     ethr =  3.64E-06,  avg # of iterations =  1.8

     total cpu time spent up to now is      535.9 secs

     total energy              =  -16384.95137969 Ry
     Harris-Foulkes estimate   =  -16384.95594821 Ry
     estimated scf accuracy    <       0.01338308 Ry

     iteration #  6     ecut=    71.00 Ry     beta= 0.10
     Davidson diagonalization with overlap
     ethr =  2.32E-06,  avg # of iterations =  2.0

     total cpu time spent up to now is      615.9 secs

     total energy              =  -16384.95236397 Ry
     Harris-Foulkes estimate   =  -16384.95241838 Ry
     estimated scf accuracy    <       0.00012077 Ry

     iteration #  7     ecut=    71.00 Ry     beta= 0.10
     Davidson diagonalization with overlap
     ethr =  2.10E-08,  avg # of iterations =  3.4

     total cpu time spent up to now is      757.3 secs

     total energy              =  -16384.95242446 Ry
     Harris-Foulkes estimate   =  -16384.95242690 Ry
     estimated scf accuracy    <       0.00005584 Ry

     iteration #  8     ecut=    71.00 Ry     beta= 0.10
     Davidson diagonalization with overlap
     ethr =  9.69E-09,  avg # of iterations =  1.0

     total cpu time spent up to now is      821.4 secs

     total energy              =  -16384.95242008 Ry
     Harris-Foulkes estimate   =  -16384.95242645 Ry
     estimated scf accuracy    <       0.00003677 Ry

     iteration #  9     ecut=    71.00 Ry     beta= 0.10
     Davidson diagonalization with overlap
     ethr =  6.38E-09,  avg # of iterations =  2.0

     total cpu time spent up to now is      911.7 secs

     total energy              =  -16384.95242847 Ry
     Harris-Foulkes estimate   =  -16384.95242513 Ry
     estimated scf accuracy    <       0.00000466 Ry

     iteration # 10     ecut=    71.00 Ry     beta= 0.10
     Davidson diagonalization with overlap
     ethr =  8.09E-10,  avg # of iterations =  1.0

     total cpu time spent up to now is      975.8 secs

     End of self-consistent calculation

          k = 0.0557 0.0557 0.0557 ( 32690 PWs)   bands (ev):

   -64.6375 -64.6071 -64.6070 -64.6070 -64.6013 -64.6011 -64.6011 -64.5905
   -64.5904 -64.5903 -64.5879 -64.5876 -64.5874 -64.5873 -64.5872 -64.5872
   -64.5871 -64.5869 -64.5868 -64.5863 -64.5845 -64.5844 -64.5844 -64.5714
   -64.5709 -64.5708 -64.5706 -64.5706 -64.5705 -64.5704 -64.5703 -64.5698
   -30.5286 -30.5286 -30.5286 -30.5273 -30.5077 -30.5077 -30.5077 -30.4271
   -30.4271 -30.4270 -30.4226 -30.4225 -30.4225 -30.4225 -30.4225 -30.4224
   -30.4145 -30.4144 -30.4144 -30.4089 -30.4089 -30.4089 -30.4088 -30.4088
   -30.4088 -30.3895 -30.3895 -30.3895 -30.3894 -30.3894 -30.3894 -30.3470
   -30.3470 -30.3470 -30.3214 -30.3214 -30.3214 -30.3150 -30.3150 -30.3150
   -30.3054 -30.3054 -30.3054 -30.3054 -30.3054 -30.3053 -30.2897 -30.2897
   -30.2897 -30.2892 -30.2889 -30.2888 -30.2888 -30.2888 -30.2888 -30.2882
   -30.2882 -30.2879 -30.2866 -30.2866 -30.2865 -30.2209 -30.2208 -30.2208
   -30.2207 -30.2207 -30.2207 -30.2080 -30.2080 -30.2079 -30.2079 -30.2078
   -30.2078 -30.2041 -30.2041 -30.2040 -30.1999 -30.1996 -30.1996 -30.1988
   -30.1988 -30.1987 -30.1987 -30.1986 -30.1985 -30.1982 -30.1982 -30.1979
   -30.1972 -30.1972 -30.1914 -30.1913 -30.1913 -30.1442 -30.1413 -30.1413
    12.4814  14.2312  14.2312  14.2312  14.3067  14.3206  14.3206  14.3206
    14.5108  14.5108  14.5108  14.5230  14.5231  14.5231  14.7164  14.7165
    14.7165  15.2582  15.2582  15.2583  15.2583  15.2583  15.2585  15.4158
    15.4159  15.4159  15.5744  15.5745  15.5745  15.6052  15.6053  15.6053
    15.6569  15.6570  15.6570  15.6570  15.6570  15.6570  15.6577  15.6578
    15.6578  16.0023  16.0024  16.0024  16.0024  16.0024  16.0024  16.1113
    16.1114  16.1114  16.1335  16.1335  16.1335  16.1336  16.1336  16.1336
    16.1909  16.1910  16.1910  16.3636  16.3636  16.3636  16.3637  16.3637
    16.3637  16.4694  16.4694  16.4695  16.4734  16.4734  16.4735  16.4735
    16.4735  16.4737  16.5827  16.5828  16.5828  16.6501  16.6501  16.6501
    16.6715  16.6715  16.6822  16.6822  16.6822  16.7013  16.7213  16.7213
    17.5300  17.5300  17.5300  17.5914  17.5914  17.5915  17.6652  17.6652
    17.6652  17.6653  17.6653  17.6653  17.6713  17.6714  17.6715  17.7201
    17.7202  17.7203  17.8265  17.8265  17.8266  17.9465  17.9467  17.9467
    18.0743  18.0743  18.0745  18.1328  18.1329  18.1330  18.2060  18.2062
    18.2062  18.2062  18.2063  18.2063  18.2259  18.2259  18.2259  18.2767
    18.2767  18.2833  18.2833  18.2833  18.2834  18.2834  18.2835  18.3944
    18.3944  18.3945  18.7893  18.7893  18.7894  18.8928  18.8928  18.8928
    19.2793  19.2793  19.2793  19.4092  19.4092  19.4092  19.4364  19.4364
    19.4570  19.4570  19.4570  19.6909  19.6909  19.6909  19.7465  19.7466
    19.7466  19.7466  19.7466  19.7466  19.7497  19.7497  19.7498  20.3861
    20.6984  20.6984  20.6984  21.2586  21.2586  21.2586  21.7730  21.7731
    21.7731  21.7731  21.7731  21.7731  22.3063  22.3063  22.3063  22.8611
    22.8611  22.8611  26.6953  26.6953  26.6953  26.8518  27.8203  27.8203
    27.8204  27.8204  27.8204  27.8205  28.5172  28.5172  28.5172  28.5174
    28.5174  28.5174  29.9548  29.9548  29.9548  29.9548  29.9548  29.9549
    30.1386  30.1386  30.1386  31.0758  31.1061  31.1061  31.1062  31.1062
    31.1062  31.1063

          k = 0.0557 0.0557 0.1672 ( 32672 PWs)   bands (ev):

   -64.6365 -64.6128 -64.6065 -64.6064 -64.6008 -64.6007 -64.5954 -64.5935
   -64.5934 -64.5904 -64.5898 -64.5898 -64.5881 -64.5879 -64.5873 -64.5869
   -64.5866 -64.5864 -64.5845 -64.5840 -64.5840 -64.5819 -64.5818 -64.5718
   -64.5714 -64.5712 -64.5711 -64.5710 -64.5710 -64.5708 -64.5704 -64.5698
   -30.5257 -30.5245 -30.5244 -30.5213 -30.5043 -30.5043 -30.5022 -30.4391
   -30.4337 -30.4337 -30.4291 -30.4290 -30.4279 -30.4279 -30.4274 -30.4274
   -30.4252 -30.4155 -30.4154 -30.4125 -30.4124 -30.4075 -30.4075 -30.4039
   -30.4038 -30.3923 -30.3922 -30.3858 -30.3858 -30.3779 -30.3707 -30.3707
   -30.3519 -30.3519 -30.3373 -30.3372 -30.3215 -30.3215 -30.3207 -30.3207
   -30.3089 -30.2942 -30.2942 -30.2921 -30.2921 -30.2895 -30.2895 -30.2886
   -30.2885 -30.2861 -30.2859 -30.2859 -30.2844 -30.2835 -30.2832 -30.2832
   -30.2826 -30.2826 -30.2796 -30.2743 -30.2743 -30.2336 -30.2332 -30.2236
   -30.2236 -30.2176 -30.2175 -30.2118 -30.2118 -30.2106 -30.2106 -30.2085
   -30.2084 -30.2060 -30.2043 -30.2042 -30.2040 -30.2035 -30.2035 -30.1995
   -30.1994 -30.1993 -30.1989 -30.1986 -30.1980 -30.1961 -30.1959 -30.1959
   -30.1954 -30.1950 -30.1915 -30.1867 -30.1866 -30.1510 -30.1438 -30.1429
    12.5555  14.2240  14.2662  14.2782  14.2782  14.3351  14.3626  14.3626
    14.3763  14.5390  14.5537  14.5537  14.5748  14.5749  14.7690  14.7691
    14.7828  15.1712  15.1712  15.2348  15.2936  15.2937  15.3005  15.3006
    15.3384  15.4195  15.4196  15.4425  15.4425  15.4588  15.4695  15.4696
    15.6164  15.6165  15.6277  15.6277  15.6437  15.6438  15.6792  15.6793
    15.7290  15.7291  15.7979  15.9888  15.9888  16.0054  16.0054  16.0521
    16.0522  16.0615  16.0616  16.1210  16.1211  16.2101  16.2102  16.2251
    16.2723  16.2723  16.3212  16.3245  16.3246  16.3323  16.3323  16.3684
    16.3685  16.4134  16.4135  16.4418  16.4418  16.6087  16.6263  16.6264
    16.6273  16.6273  16.6476  16.6476  16.6641  16.6718  16.6940  16.6949
    16.7044  16.7188  16.7188  16.7268  16.7513  16.7538  16.7581  16.7581
    17.3360  17.3361  17.4488  17.4555  17.4744  17.4745  17.5299  17.5299
    17.5478  17.5954  17.6165  17.6166  17.7375  17.7489  17.7490  17.7623
    17.7624  17.8013  17.8014  17.8121  17.8121  18.0280  18.0281  18.0452
    18.0550  18.0551  18.1216  18.1217  18.2024  18.2024  18.2118  18.2118
    18.2141  18.2142  18.2352  18.2931  18.2937  18.3043  18.3043  18.3331
    18.4240  18.4240  18.4339  18.4339  18.4707  18.4708  18.5267  18.5447
    18.5448  18.5745  18.6893  18.8356  18.8356  18.9572  18.9665  18.9665
    18.9972  19.0097  19.0097  19.2286  19.3461  19.3461  19.3681  19.3853
    19.4290  19.4293  19.4293  19.4538  19.4538  19.6196  19.6737  19.6737
    19.6745  19.6745  19.6869  19.7456  19.7461  19.7466  19.7471  20.3860
    20.7900  20.7900  20.8764  20.8764  21.1086  21.2288  21.2785  21.2785
    21.7493  21.7493  22.2863  22.3451  22.3452  22.4989  22.8900  22.8900
    23.1583  23.1583  26.6933  26.8529  26.8530  27.0983  27.0983  27.1085
    27.1086  27.1478  27.7048  27.7048  27.9552  27.9553  28.6433  28.6435
    29.1608  29.1608  30.0034  30.0034  30.1128  30.1237  30.1238  30.2621
    30.2621  30.3379  30.3379  30.5479  30.5479  30.5921  30.6581  30.6581
    31.0969  31.1919

          k = 0.0557 0.0557 0.2787 ( 32630 PWs)   bands (ev):

   -64.6345 -64.6183 -64.6054 -64.6053 -64.5999 -64.5998 -64.5965 -64.5964
   -64.5924 -64.5923 -64.5902 -64.5899 -64.5885 -64.5879 -64.5873 -64.5869
   -64.5864 -64.5862 -64.5846 -64.5811 -64.5810 -64.5794 -64.5793 -64.5737
   -64.5722 -64.5722 -64.5720 -64.5719 -64.5713 -64.5708 -64.5704 -64.5698
   -30.5187 -30.5159 -30.5158 -30.5111 -30.4977 -30.4977 -30.4918 -30.4568
   -30.4508 -30.4508 -30.4452 -30.4452 -30.4423 -30.4306 -30.4305 -30.4284
   -30.4283 -30.4179 -30.4178 -30.4083 -30.4082 -30.4072 -30.4063 -30.4062
   -30.3931 -30.3931 -30.3911 -30.3911 -30.3797 -30.3797 -30.3607 -30.3606
   -30.3526 -30.3526 -30.3523 -30.3523 -30.3354 -30.3354 -30.3327 -30.3327
   -30.2988 -30.2988 -30.2897 -30.2883 -30.2881 -30.2862 -30.2860 -30.2815
   -30.2799 -30.2770 -30.2770 -30.2743 -30.2743 -30.2734 -30.2734 -30.2722
   -30.2721 -30.2637 -30.2596 -30.2596 -30.2536 -30.2458 -30.2451 -30.2292
   -30.2292 -30.2218 -30.2218 -30.2201 -30.2201 -30.2168 -30.2160 -30.2160
   -30.2125 -30.2124 -30.2120 -30.2120 -30.2057 -30.2035 -30.2003 -30.1995
   -30.1989 -30.1987 -30.1986 -30.1985 -30.1980 -30.1956 -30.1955 -30.1951
   -30.1919 -30.1846 -30.1846 -30.1834 -30.1829 -30.1627 -30.1482 -30.1472
    12.7018  13.8725  14.3337  14.3697  14.3697  14.4057  14.4463  14.4464
    14.4727  14.5948  14.6394  14.6394  14.6749  14.6750  14.7477  14.8707
    14.8708  15.0217  15.0217  15.0667  15.0872  15.1652  15.1652  15.2170
    15.3319  15.3320  15.3598  15.3600  15.3831  15.3832  15.3934  15.3934
    15.4952  15.4953  15.5160  15.5162  15.6243  15.6244  15.6713  15.6713
    15.7927  15.7927  15.9349  15.9350  15.9692  15.9693  15.9873  15.9875
    15.9877  16.0078  16.0079  16.0341  16.0342  16.1486  16.1487  16.2223
    16.2224  16.2730  16.2794  16.2795  16.3499  16.3499  16.3756  16.3757
    16.3816  16.3816  16.4481  16.4626  16.4627  16.5503  16.5862  16.5879
    16.5879  16.6473  16.6474  16.6528  16.7520  16.7874  16.7874  16.8043
    16.8168  16.8189  16.9680  16.9680  16.9855  17.0361  17.1273  17.1274
    17.1841  17.1841  17.2032  17.2033  17.2741  17.3559  17.3610  17.3610
    17.3786  17.3857  17.6866  17.7052  17.7052  17.8047  17.8048  17.8725
    17.8726  17.8883  17.8884  17.9474  17.9475  17.9805  17.9806  18.0451
    18.0452  18.1553  18.1892  18.1893  18.1916  18.1916  18.2142  18.2143
    18.2205  18.2206  18.3256  18.4200  18.4748  18.4748  18.4900  18.4900
    18.5032  18.5824  18.5946  18.5954  18.6305  18.6305  18.6358  18.6358
    18.6843  18.6843  18.7119  18.7280  18.7280  18.7949  18.9823  18.9824
    19.0431  19.0431  19.0439  19.1001  19.1978  19.1979  19.2499  19.2499
    19.2556  19.3340  19.3415  19.3415  19.3542  19.4822  19.5378  19.5379
    19.5391  19.5391  19.5712  19.7452  19.7457  19.7464  19.7469  20.3570
    20.3571  20.5702  20.8125  20.8125  21.1091  21.1091  21.1677  21.4883
    21.6987  21.6987  21.8877  22.2399  22.9849  22.9849  23.5349  23.5350
    23.6547  23.6547  26.2216  26.2216  26.3675  26.3675  26.7840  26.7841
    26.8623  27.1666  27.1666  27.5716  28.2067  28.2067  28.8850  28.8852
    29.2170  29.6673  29.6673  29.7648  29.7648  30.0145  30.0146  30.0944
    30.0944  30.1601  30.1601  30.3261  30.4257  30.4257  30.5879  30.5879
    30.5966  30.5967

          k = 0.0557 0.0557 0.3902 ( 32695 PWs)   bands (ev):

   -64.6316 -64.6233 -64.6038 -64.6038 -64.5993 -64.5992 -64.5985 -64.5984
   -64.5947 -64.5946 -64.5900 -64.5889 -64.5879 -64.5873 -64.5869 -64.5864
   -64.5858 -64.5849 -64.5848 -64.5783 -64.5783 -64.5771 -64.5770 -64.5766
   -64.5738 -64.5737 -64.5733 -64.5732 -64.5714 -64.5708 -64.5704 -64.5699
   -30.5076 -30.5034 -30.5034 -30.4972 -30.4883 -30.4883 -30.4771 -30.4755
   -30.4697 -30.4697 -30.4617 -30.4617 -30.4617 -30.4341 -30.4306 -30.4305
   -30.4252 -30.4252 -30.4236 -30.4235 -30.4137 -30.4136 -30.3955 -30.3955
   -30.3875 -30.3875 -30.3770 -30.3770 -30.3717 -30.3717 -30.3714 -30.3714
   -30.3660 -30.3660 -30.3490 -30.3490 -30.3467 -30.3467 -30.3360 -30.3360
   -30.3087 -30.3087 -30.2879 -30.2876 -30.2867 -30.2863 -30.2751 -30.2737
   -30.2691 -30.2608 -30.2608 -30.2603 -30.2603 -30.2595 -30.2595 -30.2581
   -30.2581 -30.2570 -30.2560 -30.2465 -30.2461 -30.2461 -30.2374 -30.2373
   -30.2334 -30.2334 -30.2332 -30.2331 -30.2314 -30.2255 -30.2244 -30.2244
   -30.2240 -30.2240 -30.2162 -30.2068 -30.2067 -30.2030 -30.2012 -30.1995
   -30.1989 -30.1986 -30.1980 -30.1975 -30.1975 -30.1941 -30.1928 -30.1928
   -30.1924 -30.1852 -30.1852 -30.1792 -30.1725 -30.1717 -30.1546 -30.1535
    12.9165  13.5176  14.4281  14.5007  14.5007  14.5179  14.5706  14.5706
    14.6083  14.6548  14.6773  14.7672  14.7672  14.8159  14.8160  14.8428
    14.8428  14.8615  14.9157  14.9335  14.9335  14.9857  15.0141  15.0142
    15.1456  15.1456  15.1646  15.1647  15.3631  15.3632  15.4462  15.4463
    15.5019  15.5020  15.5733  15.5734  15.5921  15.5922  15.7339  15.7340
    15.7890  15.7891  15.7997  15.7997  15.8997  15.8998  15.9407  15.9407
    15.9583  15.9583  16.0002  16.0003  16.0471  16.0472  16.1679  16.1920
    16.1921  16.2247  16.2247  16.3348  16.3819  16.3820  16.3827  16.3827
    16.4126  16.4126  16.4737  16.4806  16.5168  16.5354  16.5354  16.5672
    16.5673  16.6178  16.6984  16.6985  16.8416  16.8870  16.8870  16.9124
    16.9146  16.9159  16.9435  16.9436  16.9524  16.9525  17.1074  17.1530
    17.1531  17.1956  17.2010  17.2063  17.3870  17.3908  17.3908  17.4054
    17.6366  17.6366  17.7725  17.7725  17.7792  17.7982  17.7983  17.9707
    17.9709  18.0073  18.0074  18.0164  18.0166  18.0334  18.0335  18.0438
    18.0700  18.0701  18.1577  18.1578  18.1892  18.1996  18.1997  18.2023
    18.2025  18.2126  18.2126  18.2329  18.2329  18.3133  18.3734  18.4355
    18.4355  18.5100  18.5853  18.5853  18.6823  18.6823  18.7183  18.7566
    18.8436  18.8436  18.8475  18.9046  18.9118  18.9118  18.9337  18.9338
    19.0893  19.0893  19.1046  19.2011  19.2078  19.2078  19.2368  19.2397
    19.2455  19.2456  19.2873  19.3552  19.3552  19.3562  19.3562  19.4293
    19.5469  19.5470  19.6650  19.7451  19.7457  19.7462  19.7467  19.9535
    19.9536  20.3685  20.3686  20.7692  21.0722  21.1539  21.3223  21.3223
    21.6154  21.6154  21.7929  22.1544  23.6976  23.6976  24.2484  24.2484
    24.2631  24.2631  25.3301  25.3302  25.6416  25.6416  25.8818  25.8818
    27.2121  27.6296  27.6296  28.1130  28.4152  28.5623  28.5623  28.9481
    28.9481  29.2245  29.2246  29.4903  29.4904  29.5038  29.8966  29.8966
    30.0506  30.0506  30.1047  30.1048  30.5448  30.5448  30.5673  30.5674
    30.7890  30.7891

          k = 0.0557 0.0557-0.5017 ( 32706 PWs)   bands (ev):

   -64.6282 -64.6274 -64.6021 -64.6021 -64.6014 -64.6013 -64.5971 -64.5971
   -64.5964 -64.5963 -64.5899 -64.5891 -64.5879 -64.5873 -64.5869 -64.5864
   -64.5856 -64.5849 -64.5808 -64.5800 -64.5763 -64.5762 -64.5755 -64.5754
   -64.5754 -64.5753 -64.5746 -64.5746 -64.5714 -64.5708 -64.5704 -64.5699
   -30.4931 -30.4928 -30.4883 -30.4879 -30.4875 -30.4871 -30.4806 -30.4803
   -30.4765 -30.4765 -30.4757 -30.4757 -30.4579 -30.4572 -30.4282 -30.4281
   -30.4279 -30.4278 -30.4201 -30.4200 -30.4199 -30.4198 -30.3839 -30.3839
   -30.3835 -30.3835 -30.3783 -30.3783 -30.3776 -30.3776 -30.3620 -30.3620
   -30.3617 -30.3617 -30.3615 -30.3614 -30.3607 -30.3607 -30.3216 -30.3216
   -30.3208 -30.3208 -30.2878 -30.2873 -30.2870 -30.2864 -30.2673 -30.2665
   -30.2661 -30.2653 -30.2494 -30.2490 -30.2483 -30.2482 -30.2475 -30.2475
   -30.2472 -30.2472 -30.2468 -30.2468 -30.2464 -30.2463 -30.2460 -30.2460
   -30.2407 -30.2404 -30.2399 -30.2396 -30.2345 -30.2344 -30.2337 -30.2337
   -30.2303 -30.2300 -30.2025 -30.2018 -30.2017 -30.2016 -30.2013 -30.2012
   -30.2006 -30.2000 -30.1995 -30.1989 -30.1986 -30.1980 -30.1936 -30.1929
   -30.1883 -30.1882 -30.1880 -30.1879 -30.1632 -30.1624 -30.1622 -30.1615
    13.1919  13.1929  14.5398  14.5406  14.6620  14.6625  14.6628  14.6634
    14.6705  14.6706  14.7334  14.7335  14.7343  14.7343  14.7806  14.7807
    14.7846  14.7854  14.9360  14.9360  14.9368  14.9368  14.9849  14.9850
    14.9856  14.9857  15.1852  15.1853  15.1860  15.1861  15.5316  15.5317
    15.5319  15.5320  15.6481  15.6482  15.6488  15.6489  15.6753  15.6753
    15.6759  15.6760  15.8117  15.8118  15.8123  15.8124  15.9700  15.9701
    15.9702  15.9702  15.9777  15.9778  15.9779  15.9779  16.1926  16.1927
    16.1927  16.1928  16.3318  16.3325  16.3845  16.3846  16.3852  16.3852
    16.4060  16.4066  16.4745  16.4749  16.4752  16.4757  16.5711  16.5717
    16.7363  16.7364  16.7364  16.7365  16.7977  16.7978  16.7979  16.7980
    16.9611  16.9613  17.0137  17.0140  17.0145  17.0147  17.0421  17.0429
    17.0433  17.0441  17.0480  17.0482  17.7893  17.7893  17.7896  17.7896
    17.7913  17.7914  17.7920  17.7920  17.7932  17.7935  17.8368  17.8371
    17.9116  17.9124  18.0144  18.0145  18.0150  18.0152  18.0983  18.0984
    18.0990  18.0991  18.1077  18.1077  18.1082  18.1082  18.1148  18.1149
    18.1154  18.1155  18.1541  18.1541  18.1547  18.1548  18.3323  18.3323
    18.3330  18.3330  18.4350  18.4358  18.8945  18.8948  18.8953  18.8956
    18.9224  18.9226  19.0380  19.0381  19.0387  19.0388  19.0437  19.0444
    19.0733  19.0736  19.0838  19.0840  19.1401  19.1401  19.1407  19.1407
    19.1483  19.1483  19.1489  19.1489  19.3047  19.3051  19.5795  19.5796
    19.5796  19.5797  19.7451  19.7457  19.7460  19.7466  19.9448  19.9448
    19.9449  19.9450  20.3898  20.3904  20.9391  20.9399  21.4915  21.4915
    21.4923  21.4923  22.0113  22.0120  24.4821  24.4821  24.4824  24.4825
    24.9341  24.9341  24.9347  24.9347  25.0321  25.0321  25.0324  25.0324
    27.7369  27.7370  28.2290  28.2291  28.2298  28.2299  28.7611  28.7613
    28.9978  28.9978  28.9985  28.9986  29.6389  29.6390  29.6397  29.6398
    29.9896  29.9900  29.9904  29.9907  30.7383  30.7383  30.7392  30.7392
    31.0187  31.0195

          k = 0.0557 0.1672 0.1672 ( 32649 PWs)   bands (ev):

   -64.6355 -64.6122 -64.6121 -64.6059 -64.6003 -64.5971 -64.5951 -64.5950
   -64.5934 -64.5933 -64.5898 -64.5897 -64.5891 -64.5876 -64.5863 -64.5863
   -64.5860 -64.5859 -64.5841 -64.5840 -64.5820 -64.5820 -64.5797 -64.5721
   -64.5718 -64.5716 -64.5714 -64.5713 -64.5712 -64.5710 -64.5709 -64.5702
   -30.5231 -30.5231 -30.5186 -30.5137 -30.5010 -30.4992 -30.4992 -30.4418
   -30.4417 -30.4393 -30.4392 -30.4291 -30.4291 -30.4277 -30.4258 -30.4258
   -30.4249 -30.4248 -30.4245 -30.4245 -30.4163 -30.4162 -30.4142 -30.4141
   -30.3898 -30.3830 -30.3830 -30.3814 -30.3814 -30.3762 -30.3762 -30.3676
   -30.3676 -30.3572 -30.3534 -30.3283 -30.3232 -30.3232 -30.3089 -30.3088
   -30.3044 -30.3044 -30.2981 -30.2914 -30.2914 -30.2898 -30.2897 -30.2841
   -30.2839 -30.2837 -30.2836 -30.2831 -30.2819 -30.2818 -30.2798 -30.2797
   -30.2780 -30.2780 -30.2652 -30.2652 -30.2594 -30.2364 -30.2364 -30.2307
   -30.2307 -30.2210 -30.2195 -30.2176 -30.2115 -30.2114 -30.2113 -30.2112
   -30.2083 -30.2082 -30.2073 -30.2073 -30.2071 -30.2065 -30.2027 -30.2016
   -30.2016 -30.2004 -30.1979 -30.1979 -30.1971 -30.1962 -30.1961 -30.1961
   -30.1913 -30.1912 -30.1870 -30.1870 -30.1799 -30.1593 -30.1457 -30.1427
    12.6286  14.2769  14.2770  14.3135  14.3135  14.3204  14.3482  14.3897
    14.4301  14.4301  14.5815  14.5815  14.5998  14.6156  14.8075  14.8358
    14.8359  15.1937  15.1938  15.2144  15.2144  15.2509  15.2509  15.2653
    15.2653  15.2988  15.3352  15.3352  15.3643  15.3644  15.4810  15.4908
    15.4909  15.5002  15.5002  15.5498  15.6602  15.6911  15.6911  15.6976
    15.6976  15.7310  15.7310  15.8156  15.8157  15.9637  15.9637  16.0491
    16.0491  16.0588  16.1536  16.1537  16.1691  16.1692  16.2299  16.2299
    16.2425  16.3052  16.3053  16.3152  16.3153  16.3693  16.3693  16.4684
    16.5159  16.5160  16.5632  16.5632  16.5704  16.5704  16.6187  16.6439
    16.6772  16.6773  16.6805  16.6833  16.6833  16.7021  16.7022  16.7200
    16.7509  16.7519  16.7519  16.7527  16.7663  16.7767  16.7767  16.7834
    17.2344  17.2939  17.2939  17.3456  17.4534  17.4534  17.5628  17.5845
    17.5846  17.5858  17.5859  17.6436  17.6437  17.6672  17.6673  17.7247
    17.7295  17.7297  17.8121  17.8868  17.8964  17.8965  17.9155  17.9155
    17.9406  18.1979  18.1979  18.2164  18.2165  18.2235  18.2829  18.2914
    18.2914  18.3085  18.3097  18.3098  18.3179  18.3180  18.4014  18.4015
    18.4305  18.4305  18.6131  18.6131  18.6545  18.6659  18.6663  18.6664
    18.7052  18.7052  18.7179  18.7180  18.7733  18.7734  18.8031  18.8515
    18.9767  19.0803  19.1374  19.1374  19.2726  19.2752  19.2752  19.2943
    19.3932  19.4236  19.4236  19.4421  19.4421  19.4535  19.6144  19.6144
    19.6729  19.6730  19.6755  19.6755  19.6856  19.6856  19.7087  20.1063
    20.3536  20.7575  20.7575  20.7782  21.2537  21.2537  21.4092  21.4092
    21.8312  21.8312  22.3312  22.3313  22.7949  22.7949  22.8765  22.8766
    23.4250  23.4776  26.4782  26.4782  26.6904  26.6904  27.1533  27.1963
    27.1963  27.2359  27.2359  27.5542  27.8372  27.8372  28.2748  28.2750
    29.2890  29.2890  29.5907  29.5908  29.9835  30.1042  30.1314  30.1314
    30.2243  30.2243  30.4499  30.4499  30.5812  30.5812  30.9460  30.9460
    31.2303  31.2324

          k = 0.0557 0.1672 0.2787 ( 32654 PWs)   bands (ev):

   -64.6335 -64.6175 -64.6109 -64.6049 -64.6006 -64.5994 -64.5962 -64.5943
   -64.5930 -64.5921 -64.5900 -64.5897 -64.5896 -64.5882 -64.5880 -64.5857
   -64.5852 -64.5841 -64.5827 -64.5823 -64.5812 -64.5796 -64.5777 -64.5737
   -64.5726 -64.5725 -64.5724 -64.5720 -64.5717 -64.5713 -64.5709 -64.5702
   -30.5176 -30.5162 -30.5088 -30.5022 -30.4945 -30.4934 -30.4895 -30.4597
   -30.4562 -30.4454 -30.4424 -30.4422 -30.4418 -30.4418 -30.4319 -30.4311
   -30.4308 -30.4250 -30.4242 -30.4222 -30.4202 -30.4190 -30.4157 -30.4092
   -30.4011 -30.3876 -30.3843 -30.3777 -30.3739 -30.3725 -30.3685 -30.3666
   -30.3619 -30.3595 -30.3498 -30.3400 -30.3370 -30.3230 -30.3187 -30.3067
   -30.3046 -30.3027 -30.2965 -30.2907 -30.2888 -30.2852 -30.2842 -30.2836
   -30.2815 -30.2810 -30.2794 -30.2746 -30.2712 -30.2695 -30.2688 -30.2660
   -30.2646 -30.2625 -30.2516 -30.2511 -30.2486 -30.2451 -30.2432 -30.2422
   -30.2264 -30.2254 -30.2253 -30.2238 -30.2212 -30.2210 -30.2203 -30.2195
   -30.2145 -30.2117 -30.2106 -30.2084 -30.2083 -30.2078 -30.2041 -30.2036
   -30.2032 -30.2011 -30.2007 -30.2000 -30.1965 -30.1959 -30.1943 -30.1878
   -30.1859 -30.1855 -30.1852 -30.1789 -30.1758 -30.1722 -30.1503 -30.1452
    12.7731  13.9287  14.3797  14.3815  14.4025  14.4031  14.4055  14.4574
    14.5233  14.5358  14.6364  14.6662  14.6910  14.6928  14.7999  14.8796
    14.9388  15.0159  15.0322  15.0632  15.1006  15.1076  15.1155  15.1516
    15.2340  15.2518  15.2746  15.2879  15.2992  15.3263  15.3993  15.4105
    15.4164  15.4376  15.4678  15.5209  15.5594  15.5841  15.6153  15.7140
    15.7255  15.7392  15.7822  15.8494  15.8901  15.9061  15.9140  16.0006
    16.0084  16.0188  16.0370  16.0511  16.1024  16.1662  16.1739  16.2188
    16.2253  16.2365  16.3225  16.3756  16.4189  16.4227  16.4737  16.4848
    16.5014  16.5044  16.5164  16.5433  16.5779  16.5956  16.6020  16.6344
    16.6602  16.6790  16.7379  16.7694  16.7931  16.8110  16.8167  16.8220
    16.8434  16.8599  16.8659  16.8765  16.8927  16.9966  17.0797  17.1105
    17.1347  17.1429  17.1667  17.2594  17.2793  17.3803  17.3903  17.4048
    17.4766  17.4940  17.5060  17.5816  17.5858  17.6623  17.6703  17.7752
    17.7905  17.8130  17.8185  17.8726  17.9170  18.0025  18.0539  18.0594
    18.0765  18.1564  18.1657  18.1813  18.2137  18.2623  18.2977  18.3095
    18.3321  18.3734  18.3767  18.4249  18.4312  18.4422  18.4435  18.4533
    18.4588  18.4934  18.5686  18.6104  18.6306  18.6643  18.6890  18.7591
    18.7681  18.7996  18.8045  18.8073  18.8128  18.8334  18.8385  18.9256
    18.9322  18.9582  19.0513  19.1368  19.1654  19.1904  19.2687  19.2848
    19.3573  19.3980  19.3994  19.4038  19.4795  19.5036  19.5044  19.5050
    19.5380  19.5412  19.5774  19.6726  19.6765  19.6830  19.6875  19.9587
    20.1480  20.3240  20.6920  20.7884  20.8119  21.2034  21.3382  21.7050
    21.9034  22.1880  22.2979  22.4576  22.8386  22.9843  23.2808  23.5308
    23.8850  24.1195  25.6415  25.8252  26.2898  26.5155  26.6916  26.7980
    26.8617  27.3146  27.5187  27.5290  27.5814  28.0508  28.0597  28.7003
    28.8063  29.0914  29.2332  29.4133  29.5240  29.6307  29.8504  30.0582
    30.2251  30.3214  30.3452  30.5579  30.5994  30.8175  30.9174  30.9317
    31.1575  31.2600

          k = 0.0557 0.1672 0.3902 ( 32689 PWs)   bands (ev):

   -64.6307 -64.6225 -64.6091 -64.6038 -64.6033 -64.5989 -64.5981 -64.5944
   -64.5932 -64.5925 -64.5909 -64.5901 -64.5895 -64.5884 -64.5853 -64.5847
   -64.5843 -64.5843 -64.5827 -64.5795 -64.5785 -64.5774 -64.5765 -64.5758
   -64.5743 -64.5741 -64.5737 -64.5727 -64.5720 -64.5713 -64.5709 -64.5702
   -30.5079 -30.5053 -30.4953 -30.4873 -30.4852 -30.4848 -30.4780 -30.4755
   -30.4742 -30.4607 -30.4604 -30.4586 -30.4503 -30.4414 -30.4393 -30.4347
   -30.4345 -30.4341 -30.4326 -30.4288 -30.4192 -30.4149 -30.4120 -30.4041
   -30.3954 -30.3916 -30.3863 -30.3818 -30.3785 -30.3703 -30.3614 -30.3567
   -30.3546 -30.3538 -30.3496 -30.3439 -30.3367 -30.3333 -30.3319 -30.3210
   -30.3173 -30.3062 -30.2843 -30.2836 -30.2807 -30.2805 -30.2803 -30.2786
   -30.2744 -30.2730 -30.2708 -30.2627 -30.2600 -30.2590 -30.2582 -30.2571
   -30.2546 -30.2534 -30.2506 -30.2479 -30.2400 -30.2391 -30.2355 -30.2354
   -30.2353 -30.2347 -30.2344 -30.2327 -30.2323 -30.2322 -30.2321 -30.2210
   -30.2189 -30.2185 -30.2114 -30.2108 -30.2095 -30.2093 -30.2083 -30.2072
   -30.2062 -30.2050 -30.1989 -30.1983 -30.1971 -30.1945 -30.1923 -30.1895
   -30.1890 -30.1861 -30.1801 -30.1748 -30.1747 -30.1677 -30.1567 -30.1504
    12.9850  13.5782  14.4766  14.4976  14.5228  14.5260  14.5372  14.5651
    14.6546  14.6777  14.7056  14.7176  14.7927  14.7974  14.8068  14.8253
    14.8496  14.8822  14.8962  14.9049  14.9522  14.9760  15.0225  15.0389
    15.0544  15.0848  15.1664  15.1920  15.2043  15.2842  15.3989  15.4182
    15.4221  15.4468  15.4781  15.5336  15.5443  15.6716  15.6788  15.7024
    15.7310  15.7465  15.8105  15.8236  15.8438  15.8479  15.8508  15.8604
    15.8953  15.9387  15.9975  16.0300  16.0404  16.0992  16.1762  16.2028
    16.2325  16.2814  16.3913  16.3981  16.4294  16.4550  16.4717  16.4719
    16.4744  16.4787  16.5261  16.5615  16.5767  16.5836  16.5927  16.6171
    16.6642  16.7002  16.7132  16.8474  16.8502  16.9087  16.9159  16.9234
    16.9287  16.9316  16.9723  16.9842  17.0043  17.0704  17.0767  17.0840
    17.1646  17.1772  17.1984  17.2684  17.2984  17.3239  17.3637  17.3845
    17.5488  17.5582  17.5813  17.6003  17.6050  17.6332  17.7303  17.8247
    17.8268  17.8453  17.9079  17.9571  18.0086  18.0191  18.0300  18.0337
    18.0523  18.0571  18.1087  18.1409  18.1820  18.2053  18.2117  18.2125
    18.2733  18.2810  18.3281  18.3611  18.3843  18.4374  18.4657  18.4762
    18.5092  18.5094  18.5138  18.6524  18.6706  18.6745  18.7026  18.7082
    18.8212  18.8612  18.9044  18.9371  18.9742  18.9976  19.0009  19.0054
    19.0114  19.0163  19.0410  19.1040  19.1076  19.2082  19.2120  19.2374
    19.2627  19.3085  19.3102  19.3568  19.3571  19.3573  19.3619  19.4505
    19.5225  19.5994  19.6729  19.6775  19.6786  19.6807  19.9209  19.9380
    20.0465  20.3047  20.3459  20.5932  20.8596  20.9136  21.1273  21.4688
    21.9484  22.2337  22.3051  22.7529  23.1613  23.7128  23.8665  24.2552
    24.4634  24.7736  24.8248  25.1618  25.3799  25.8026  25.9081  26.4359
    26.8914  27.2160  27.8056  27.8839  27.9243  28.1264  28.3555  28.4282
    28.6193  28.6564  28.8579  29.1609  29.3007  29.5216  29.8501  29.9569
    30.0948  30.2484  30.2734  30.4155  30.5166  30.6887  30.7055  30.7504
    30.8310  31.0944

          k = 0.0557 0.1672-0.5017 ( 32704 PWs)   bands (ev):

   -64.6273 -64.6266 -64.6070 -64.6063 -64.6017 -64.6009 -64.5968 -64.5960
   -64.5922 -64.5922 -64.5914 -64.5914 -64.5893 -64.5886 -64.5852 -64.5844
   -64.5839 -64.5831 -64.5806 -64.5798 -64.5771 -64.5765 -64.5763 -64.5758
   -64.5758 -64.5750 -64.5745 -64.5738 -64.5720 -64.5713 -64.5709 -64.5702
   -30.4946 -30.4942 -30.4913 -30.4909 -30.4792 -30.4788 -30.4741 -30.4735
   -30.4733 -30.4727 -30.4698 -30.4695 -30.4573 -30.4566 -30.4383 -30.4381
   -30.4356 -30.4352 -30.4349 -30.4349 -30.4144 -30.4143 -30.4041 -30.4037
   -30.3916 -30.3913 -30.3912 -30.3909 -30.3707 -30.3703 -30.3611 -30.3606
   -30.3497 -30.3492 -30.3441 -30.3434 -30.3389 -30.3386 -30.3299 -30.3295
   -30.3189 -30.3182 -30.2843 -30.2836 -30.2806 -30.2801 -30.2705 -30.2697
   -30.2650 -30.2642 -30.2619 -30.2611 -30.2594 -30.2591 -30.2518 -30.2515
   -30.2492 -30.2487 -30.2468 -30.2466 -30.2456 -30.2452 -30.2448 -30.2444
   -30.2425 -30.2417 -30.2323 -30.2320 -30.2285 -30.2278 -30.2214 -30.2210
   -30.2209 -30.2201 -30.2160 -30.2156 -30.2108 -30.2104 -30.2083 -30.2075
   -30.2066 -30.2059 -30.2027 -30.2023 -30.1983 -30.1975 -30.1909 -30.1901
   -30.1894 -30.1891 -30.1764 -30.1761 -30.1653 -30.1645 -30.1582 -30.1578
    13.2567  13.2577  14.5893  14.5901  14.6329  14.6330  14.6742  14.6748
    14.6999  14.7008  14.7053  14.7061  14.7119  14.7119  14.8220  14.8220
    14.8232  14.8240  14.8522  14.8523  14.9170  14.9176  14.9595  14.9603
    14.9980  14.9986  15.0841  15.0846  15.2608  15.2615  15.3390  15.3392
    15.5369  15.5371  15.5423  15.5429  15.5755  15.5763  15.6801  15.6808
    15.7606  15.7607  15.7870  15.7877  15.8383  15.8386  15.8628  15.8631
    15.9138  15.9138  15.9471  15.9476  15.9515  15.9519  16.3106  16.3112
    16.3352  16.3356  16.3359  16.3362  16.3534  16.3540  16.4178  16.4179
    16.5186  16.5192  16.5322  16.5326  16.6350  16.6356  16.6737  16.6743
    16.7346  16.7347  16.7799  16.7800  16.7921  16.7922  16.9096  16.9097
    16.9553  16.9555  17.0235  17.0238  17.0408  17.0415  17.0441  17.0448
    17.1062  17.1064  17.1274  17.1277  17.5884  17.5889  17.5984  17.5990
    17.6453  17.6454  17.6575  17.6577  17.6839  17.6842  17.7325  17.7327
    17.7827  17.7833  17.9316  17.9324  17.9380  17.9386  18.0083  18.0087
    18.0220  18.0226  18.0575  18.0579  18.0668  18.0673  18.1351  18.1358
    18.2497  18.2504  18.2889  18.2895  18.3614  18.3620  18.4296  18.4304
    18.5592  18.5599  18.6102  18.6109  18.6834  18.6839  18.8559  18.8566
    18.8974  18.8975  18.9145  18.9152  19.0519  19.0523  19.0769  19.0770
    19.1395  19.1401  19.1669  19.1673  19.1708  19.1710  19.1773  19.1776
    19.1858  19.1863  19.1886  19.1891  19.2771  19.2773  19.3304  19.3306
    19.5467  19.5468  19.6741  19.6748  19.6786  19.6794  19.9229  19.9230
    20.3923  20.3925  20.4616  20.4623  20.7318  20.7325  21.0272  21.0279
    22.1223  22.1230  22.5854  22.5861  23.9375  23.9379  24.5024  24.5030
    24.5143  24.5146  25.0499  25.0502  25.1119  25.1125  25.5974  25.5977
    27.3077  27.3078  27.7458  27.7459  28.1845  28.1853  28.3399  28.3406
    28.7308  28.7316  28.7771  28.7772  29.3374  29.3375  29.7153  29.7155
    30.2458  30.2466  30.4168  30.4175  30.4364  30.4369  30.5377  30.5387
    31.1923  31.3916

          k = 0.0557 0.2787 0.2787 ( 32700 PWs)   bands (ev):

   -64.6316 -64.6162 -64.6161 -64.6045 -64.6039 -64.5986 -64.5958 -64.5957
   -64.5919 -64.5918 -64.5915 -64.5891 -64.5890 -64.5889 -64.5845 -64.5844
   -64.5841 -64.5841 -64.5815 -64.5814 -64.5801 -64.5800 -64.5761 -64.5738
   -64.5737 -64.5734 -64.5733 -64.5727 -64.5726 -64.5716 -64.5714 -64.5705
   -30.5123 -30.5123 -30.4979 -30.4896 -30.4882 -30.4847 -30.4847 -30.4597
   -30.4597 -30.4582 -30.4581 -30.4453 -30.4453 -30.4370 -30.4369 -30.4345
   -30.4345 -30.4312 -30.4312 -30.4292 -30.4292 -30.4191 -30.4174 -30.4173
   -30.4128 -30.4128 -30.3830 -30.3772 -30.3700 -30.3700 -30.3624 -30.3624
   -30.3551 -30.3526 -30.3444 -30.3444 -30.3171 -30.3155 -30.3154 -30.3046
   -30.3046 -30.3026 -30.3026 -30.2918 -30.2918 -30.2791 -30.2790 -30.2773
   -30.2773 -30.2772 -30.2758 -30.2757 -30.2707 -30.2706 -30.2623 -30.2623
   -30.2546 -30.2546 -30.2530 -30.2529 -30.2396 -30.2396 -30.2392 -30.2392
   -30.2339 -30.2339 -30.2314 -30.2314 -30.2224 -30.2224 -30.2206 -30.2198
   -30.2197 -30.2186 -30.2185 -30.2172 -30.2082 -30.2082 -30.2068 -30.2057
   -30.2042 -30.2032 -30.1979 -30.1969 -30.1969 -30.1962 -30.1910 -30.1909
   -30.1869 -30.1866 -30.1865 -30.1735 -30.1734 -30.1697 -30.1547 -30.1453
    12.9139  14.0386  14.0387  14.4374  14.4705  14.4745  14.4745  14.5060
    14.6347  14.6347  14.7194  14.7194  14.7262  14.7911  14.8658  14.8988
    14.9013  14.9013  14.9491  14.9491  15.0555  15.0556  15.0657  15.0657
    15.1438  15.1439  15.1684  15.1684  15.3373  15.3411  15.3412  15.3479
    15.3480  15.4443  15.4443  15.4752  15.4752  15.5223  15.5223  15.6035
    15.6035  15.6825  15.8022  15.8022  15.8093  15.8093  15.8325  16.0238
    16.0238  16.0515  16.0516  16.0632  16.0633  16.0707  16.0791  16.3293
    16.3293  16.4019  16.4019  16.4916  16.4916  16.4935  16.4935  16.5384
    16.5422  16.5422  16.5686  16.5687  16.5868  16.6828  16.7097  16.7150
    16.7151  16.8085  16.8085  16.8236  16.8551  16.8794  16.8928  16.9153
    16.9153  16.9169  16.9635  16.9635  16.9803  16.9804  16.9912  17.0277
    17.1295  17.1295  17.1538  17.1538  17.3230  17.3230  17.3791  17.3792
    17.4611  17.4611  17.5158  17.5566  17.6086  17.6087  17.6400  17.6401
    17.6585  17.6586  17.7281  17.7334  17.8780  17.8781  18.0107  18.0961
    18.0961  18.1148  18.1149  18.1267  18.1467  18.2357  18.2357  18.3123
    18.3476  18.4088  18.4089  18.4656  18.4657  18.5128  18.5129  18.5544
    18.5545  18.6670  18.6670  18.6690  18.6691  18.6881  18.6900  18.6901
    18.6910  18.7435  18.7435  18.9029  18.9474  18.9735  18.9735  18.9792
    18.9793  18.9836  18.9837  19.0877  19.0911  19.1244  19.2529  19.2529
    19.3298  19.4090  19.4090  19.4254  19.4404  19.4405  19.5405  19.5405
    19.5441  19.5441  19.5679  19.5679  19.6059  19.6244  19.9181  19.9514
    19.9514  20.2587  20.2587  20.6321  20.7420  20.7421  21.9438  21.9438
    22.2972  22.2972  22.6652  22.6652  22.9730  22.9731  23.5034  23.5034
    24.2965  24.7508  25.0444  25.0444  26.3047  26.3047  26.6897  26.6897
    26.7948  26.7949  27.2774  27.2774  27.8969  27.8971  28.0934  28.2165
    28.2165  28.6227  28.7336  28.7336  28.8104  29.9327  30.1013  30.1013
    30.2641  30.2641  30.6632  30.6942  30.9611  30.9612  31.1109  31.1110
    31.3460  31.3461

          k = 0.0557 0.2787 0.3902 ( 32724 PWs)   bands (ev):

   -64.6289 -64.6209 -64.6141 -64.6081 -64.6024 -64.5982 -64.5974 -64.5950
   -64.5939 -64.5927 -64.5914 -64.5898 -64.5882 -64.5857 -64.5842 -64.5835
   -64.5830 -64.5819 -64.5808 -64.5807 -64.5790 -64.5781 -64.5763 -64.5749
   -64.5748 -64.5747 -64.5746 -64.5737 -64.5728 -64.5722 -64.5714 -64.5706
   -30.5044 -30.5031 -30.4839 -30.4790 -30.4777 -30.4772 -30.4751 -30.4738
   -30.4720 -30.4577 -30.4568 -30.4567 -30.4528 -30.4492 -30.4446 -30.4443
   -30.4437 -30.4366 -30.4364 -30.4357 -30.4292 -30.4261 -30.4184 -30.4173
   -30.4159 -30.4018 -30.3924 -30.3904 -30.3811 -30.3683 -30.3555 -30.3514
   -30.3474 -30.3366 -30.3353 -30.3289 -30.3281 -30.3280 -30.3186 -30.3154
   -30.3014 -30.2953 -30.2927 -30.2877 -30.2850 -30.2845 -30.2786 -30.2766
   -30.2740 -30.2719 -30.2708 -30.2661 -30.2647 -30.2633 -30.2594 -30.2530
   -30.2526 -30.2520 -30.2512 -30.2509 -30.2479 -30.2423 -30.2392 -30.2384
   -30.2371 -30.2350 -30.2304 -30.2302 -30.2284 -30.2260 -30.2256 -30.2252
   -30.2188 -30.2178 -30.2169 -30.2136 -30.2121 -30.2118 -30.2113 -30.2110
   -30.2052 -30.2036 -30.2021 -30.1997 -30.1983 -30.1982 -30.1977 -30.1935
   -30.1884 -30.1879 -30.1796 -30.1689 -30.1667 -30.1629 -30.1613 -30.1485
    13.1201  13.6972  14.1970  14.5107  14.5712  14.5725  14.5919  14.6078
    14.6233  14.7679  14.7689  14.7719  14.7778  14.7980  14.8045  14.8432
    14.8722  14.8731  14.8858  14.9291  14.9335  14.9583  15.0160  15.0253
    15.0457  15.0948  15.1280  15.1405  15.2080  15.2330  15.2587  15.2711
    15.3103  15.4118  15.4167  15.4526  15.4950  15.5226  15.5247  15.5751
    15.5910  15.6412  15.6692  15.7082  15.7464  15.8567  15.8994  15.9181
    15.9388  15.9883  16.0512  16.0828  16.1091  16.1329  16.1879  16.2971
    16.3103  16.3117  16.3978  16.4548  16.4621  16.5192  16.5674  16.5694
    16.6050  16.6071  16.6134  16.6501  16.6817  16.7021  16.7258  16.8157
    16.8202  16.8589  16.8811  16.8833  16.8980  16.9233  16.9324  16.9633
    16.9676  16.9700  16.9830  17.0687  17.0694  17.0896  17.0946  17.1108
    17.1224  17.2006  17.2013  17.2030  17.2820  17.3013  17.3704  17.3862
    17.3957  17.4333  17.4562  17.4664  17.4780  17.5167  17.5384  17.6405
    17.7516  17.7564  17.7741  17.7865  17.7930  17.8051  17.8720  17.8915
    17.9204  17.9570  18.0164  18.0332  18.0478  18.1296  18.2942  18.3391
    18.3474  18.3604  18.3768  18.3833  18.5107  18.5148  18.5307  18.5449
    18.5452  18.5922  18.6996  18.7211  18.7215  18.7316  18.7897  18.8027
    18.8064  18.8804  18.9099  18.9436  18.9496  19.0111  19.0384  19.1090
    19.1236  19.1237  19.1353  19.1356  19.1468  19.1472  19.1769  19.1993
    19.2928  19.3475  19.3536  19.3549  19.3602  19.3620  19.3652  19.3744
    19.4253  19.4911  19.5467  19.5477  19.5590  19.5828  19.8574  19.9311
    20.1634  20.3056  20.4393  20.5338  20.5798  20.6791  21.4373  21.9453
    22.6132  22.6310  22.8168  22.9294  23.2260  23.4114  23.7254  24.2082
    24.2357  24.4353  24.8308  25.4256  25.4388  25.8160  26.1059  26.7039
    26.8942  26.9712  27.1195  27.2401  27.4831  27.5109  27.7728  27.9489
    28.2274  28.2720  28.4547  28.6946  29.2566  29.5668  30.1372  30.2456
    30.3189  30.3569  30.4262  30.5223  30.6027  30.7222  31.2504  31.2549
    31.4196  31.4851

          k = 0.0557 0.2787-0.5017 ( 32686 PWs)   bands (ev):

   -64.6256 -64.6249 -64.6117 -64.6110 -64.6009 -64.6001 -64.5962 -64.5954
   -64.5944 -64.5936 -64.5910 -64.5903 -64.5875 -64.5867 -64.5830 -64.5822
   -64.5822 -64.5814 -64.5803 -64.5795 -64.5779 -64.5772 -64.5771 -64.5766
   -64.5764 -64.5758 -64.5738 -64.5736 -64.5730 -64.5729 -64.5714 -64.5706
   -30.4925 -30.4922 -30.4907 -30.4903 -30.4689 -30.4682 -30.4674 -30.4674
   -30.4670 -30.4666 -30.4560 -30.4559 -30.4555 -30.4553 -30.4522 -30.4522
   -30.4514 -30.4513 -30.4418 -30.4413 -30.4222 -30.4217 -30.4209 -30.4203
   -30.4047 -30.4043 -30.3904 -30.3904 -30.3853 -30.3849 -30.3418 -30.3416
   -30.3401 -30.3398 -30.3330 -30.3327 -30.3273 -30.3265 -30.3151 -30.3149
   -30.3140 -30.3133 -30.2780 -30.2773 -30.2767 -30.2760 -30.2749 -30.2741
   -30.2720 -30.2718 -30.2708 -30.2706 -30.2652 -30.2650 -30.2632 -30.2624
   -30.2517 -30.2512 -30.2487 -30.2486 -30.2422 -30.2417 -30.2417 -30.2413
   -30.2332 -30.2325 -30.2305 -30.2300 -30.2269 -30.2267 -30.2251 -30.2248
   -30.2193 -30.2186 -30.2157 -30.2151 -30.2149 -30.2144 -30.2134 -30.2131
   -30.2080 -30.2072 -30.2049 -30.2046 -30.2004 -30.1996 -30.1919 -30.1916
   -30.1911 -30.1903 -30.1700 -30.1692 -30.1665 -30.1663 -30.1545 -30.1543
    13.3844  13.3854  14.3953  14.3961  14.6216  14.6217  14.6859  14.6867
    14.7076  14.7080  14.7146  14.7146  14.7728  14.7736  14.8259  14.8263
    14.9003  14.9012  14.9332  14.9332  14.9485  14.9486  14.9691  14.9694
    15.0064  15.0071  15.1099  15.1103  15.1530  15.1531  15.2210  15.2216
    15.3949  15.3957  15.4109  15.4114  15.4924  15.4926  15.5590  15.5591
    15.5651  15.5659  15.7472  15.7479  15.7848  15.7849  15.7972  15.7980
    16.0712  16.0712  16.0738  16.0743  16.1835  16.1837  16.1957  16.1962
    16.2176  16.2182  16.3342  16.3347  16.5456  16.5462  16.6360  16.6366
    16.6456  16.6457  16.6723  16.6728  16.7170  16.7172  16.7334  16.7335
    16.7804  16.7805  16.9323  16.9324  16.9791  16.9797  16.9920  16.9922
    17.0110  17.0111  17.0456  17.0462  17.0505  17.0511  17.0639  17.0642
    17.2228  17.2232  17.2465  17.2468  17.4021  17.4021  17.4098  17.4103
    17.4197  17.4202  17.4833  17.4834  17.4976  17.4978  17.5127  17.5130
    17.5734  17.5740  17.8351  17.8357  17.8376  17.8380  17.8916  17.8921
    17.9211  17.9216  17.9482  17.9489  17.9512  17.9515  18.2438  18.2445
    18.2487  18.2493  18.4408  18.4415  18.4685  18.4691  18.4818  18.4825
    18.6454  18.6461  18.7751  18.7758  18.7797  18.7804  18.9029  18.9036
    18.9267  18.9273  18.9721  18.9721  19.0213  19.0215  19.0215  19.0218
    19.1453  19.1459  19.1729  19.1729  19.1999  19.2002  19.2476  19.2480
    19.2497  19.2501  19.2654  19.2656  19.2708  19.2709  19.2865  19.2865
    19.4837  19.4838  19.5521  19.5528  19.5591  19.5596  19.8889  19.8891
    20.0453  20.0460  20.6137  20.6144  20.9356  20.9358  21.2140  21.2146
    22.8203  22.8210  23.1955  23.1962  23.3918  23.3923  23.8239  23.8244
    24.5482  24.5484  25.0244  25.0246  25.4436  25.4442  26.1886  26.1888
    26.9630  26.9631  27.3210  27.3211  27.3871  27.3877  27.6862  27.6870
    27.8582  27.8589  29.0232  29.0233  29.3782  29.3784  29.9580  29.9581
    30.2653  30.2662  30.4009  30.4018  30.8147  30.8155  31.0089  31.0090
    31.6637  31.6644

          k = 0.0557 0.3902 0.3902 ( 32691 PWs)   bands (ev):

   -64.6262 -64.6187 -64.6186 -64.6121 -64.6011 -64.5973 -64.5972 -64.5963
   -64.5944 -64.5933 -64.5931 -64.5911 -64.5837 -64.5836 -64.5820 -64.5819
   -64.5816 -64.5816 -64.5797 -64.5796 -64.5790 -64.5789 -64.5763 -64.5762
   -64.5759 -64.5758 -64.5752 -64.5751 -64.5737 -64.5720 -64.5718 -64.5709
   -30.4969 -30.4969 -30.4731 -30.4731 -30.4723 -30.4722 -30.4699 -30.4694
   -30.4672 -30.4672 -30.4576 -30.4564 -30.4564 -30.4532 -30.4532 -30.4444
   -30.4443 -30.4378 -30.4377 -30.4368 -30.4367 -30.4354 -30.4354 -30.4227
   -30.4202 -30.4202 -30.4048 -30.3901 -30.3850 -30.3680 -30.3680 -30.3414
   -30.3329 -30.3329 -30.3207 -30.3206 -30.3131 -30.3054 -30.3054 -30.3001
   -30.3001 -30.2994 -30.2994 -30.2944 -30.2944 -30.2751 -30.2750 -30.2706
   -30.2706 -30.2703 -30.2702 -30.2685 -30.2666 -30.2665 -30.2644 -30.2644
   -30.2610 -30.2610 -30.2483 -30.2483 -30.2457 -30.2457 -30.2449 -30.2405
   -30.2405 -30.2300 -30.2300 -30.2274 -30.2273 -30.2273 -30.2272 -30.2245
   -30.2184 -30.2181 -30.2180 -30.2168 -30.2168 -30.2140 -30.2111 -30.2067
   -30.2065 -30.2035 -30.2020 -30.2019 -30.2017 -30.1993 -30.1973 -30.1905
   -30.1905 -30.1867 -30.1866 -30.1679 -30.1613 -30.1597 -30.1596 -30.1491
    13.3178  13.8699  13.8700  14.3453  14.5572  14.6510  14.6544  14.7068
    14.7068  14.7475  14.7476  14.7512  14.8642  14.8642  14.8920  14.9074
    14.9074  14.9181  14.9181  14.9187  14.9188  14.9457  14.9458  15.0654
    15.0655  15.0818  15.0977  15.1353  15.1354  15.2443  15.2444  15.2476
    15.2477  15.2703  15.2703  15.3153  15.3154  15.4512  15.4512  15.4653
    15.4653  15.4955  15.4955  15.7326  15.7326  15.7851  15.9753  15.9754
    15.9800  15.9801  16.0800  16.1465  16.1876  16.1876  16.1940  16.1941
    16.2100  16.4044  16.5129  16.5130  16.5679  16.6913  16.7022  16.7022
    16.7408  16.7408  16.7477  16.7477  16.7478  16.7479  16.7870  16.7870
    16.8143  16.8273  16.9735  16.9846  16.9985  16.9985  17.0079  17.0341
    17.0545  17.0648  17.0648  17.0853  17.0872  17.0872  17.2035  17.2036
    17.2143  17.2143  17.2174  17.2175  17.2334  17.2334  17.3344  17.3345
    17.3412  17.3585  17.4312  17.4312  17.4341  17.4993  17.5410  17.5411
    17.5439  17.5544  17.5544  17.5746  17.5747  17.5997  17.5998  17.7633
    17.8732  17.8732  17.8917  17.8917  18.0028  18.0665  18.0665  18.0981
    18.2578  18.4063  18.5028  18.5028  18.5480  18.5481  18.6391  18.6392
    18.7125  18.7126  18.7649  18.7650  18.8229  18.8230  18.8236  18.9314
    18.9314  19.0274  19.0529  19.0560  19.0561  19.0563  19.0597  19.0597
    19.0651  19.0651  19.1310  19.2026  19.2337  19.2337  19.2385  19.2385
    19.2495  19.3394  19.3394  19.3663  19.3663  19.3693  19.3694  19.3733
    19.3974  19.3975  19.3983  19.3984  19.4975  19.5703  19.6871  19.7691
    19.7692  20.2625  20.2626  20.3491  21.0489  21.0489  22.1022  22.1022
    22.4883  22.4883  23.2586  23.2586  23.6345  23.6345  23.6946  23.6946
    24.1134  24.1135  25.2936  25.2936  25.3208  26.1001  26.5205  26.5206
    26.7114  26.7114  26.9531  26.9531  27.1132  27.1132  27.5203  27.5203
    27.6203  27.6263  27.6266  28.9224  29.3310  29.9127  30.2619  30.2652
    30.2653  30.3962  30.7974  30.7975  30.9591  30.9592  31.3886  31.3886
    31.8138  31.8141

          k = 0.0557 0.3902-0.5017 ( 32696 PWs)   bands (ev):

   -64.6231 -64.6223 -64.6161 -64.6153 -64.5997 -64.5989 -64.5964 -64.5956
   -64.5952 -64.5945 -64.5926 -64.5919 -64.5832 -64.5824 -64.5810 -64.5806
   -64.5802 -64.5799 -64.5798 -64.5791 -64.5786 -64.5781 -64.5778 -64.5777
   -64.5773 -64.5769 -64.5761 -64.5753 -64.5730 -64.5722 -64.5718 -64.5710
   -30.4869 -30.4867 -30.4862 -30.4859 -30.4662 -30.4660 -30.4660 -30.4659
   -30.4612 -30.4605 -30.4586 -30.4578 -30.4539 -30.4533 -30.4531 -30.4527
   -30.4469 -30.4463 -30.4395 -30.4391 -30.4379 -30.4373 -30.4342 -30.4335
   -30.4206 -30.4202 -30.4030 -30.4026 -30.3801 -30.3801 -30.3547 -30.3546
   -30.3189 -30.3187 -30.3156 -30.3154 -30.3116 -30.3108 -30.3068 -30.3060
   -30.2914 -30.2913 -30.2869 -30.2862 -30.2859 -30.2851 -30.2839 -30.2837
   -30.2808 -30.2807 -30.2690 -30.2684 -30.2641 -30.2640 -30.2606 -30.2599
   -30.2546 -30.2540 -30.2523 -30.2522 -30.2465 -30.2464 -30.2447 -30.2441
   -30.2373 -30.2371 -30.2368 -30.2367 -30.2236 -30.2235 -30.2231 -30.2229
   -30.2229 -30.2223 -30.2188 -30.2185 -30.2094 -30.2087 -30.2082 -30.2078
   -30.2065 -30.2062 -30.2051 -30.2044 -30.1961 -30.1955 -30.1954 -30.1952
   -30.1943 -30.1936 -30.1769 -30.1761 -30.1591 -30.1590 -30.1530 -30.1529
    13.5708  13.5718  14.0890  14.0899  14.6366  14.6367  14.7419  14.7419
    14.7420  14.7422  14.7701  14.7704  14.8242  14.8250  14.8701  14.8702
    14.8750  14.8758  14.9932  14.9933  15.0158  15.0166  15.0648  15.0648
    15.0687  15.0689  15.0761  15.0768  15.1196  15.1202  15.1912  15.1920
    15.2587  15.2590  15.2825  15.2831  15.3546  15.3555  15.3646  15.3648
    15.3762  15.3764  15.6147  15.6147  15.8378  15.8384  15.8440  15.8448
    16.0714  16.0720  16.0786  16.0792  16.1830  16.1833  16.3150  16.3153
    16.3240  16.3243  16.4701  16.4702  16.5563  16.5569  16.6983  16.6988
    16.7462  16.7463  16.7648  16.7650  16.8725  16.8726  16.9078  16.9080
    16.9935  16.9941  17.0490  17.0492  17.0561  17.0562  17.0562  17.0566
    17.0623  17.0626  17.0809  17.0813  17.1489  17.1491  17.1703  17.1703
    17.1958  17.1959  17.2591  17.2593  17.2612  17.2615  17.2720  17.2724
    17.2793  17.2797  17.3103  17.3105  17.3979  17.3982  17.4000  17.4004
    17.4283  17.4285  17.6240  17.6243  17.7331  17.7335  17.7476  17.7480
    17.7826  17.7828  17.8099  17.8105  17.8227  17.8234  17.9287  17.9294
    18.3878  18.3885  18.5032  18.5038  18.6580  18.6586  18.6707  18.6715
    18.6844  18.6851  18.8050  18.8053  18.9044  18.9050  18.9413  18.9420
    18.9527  18.9529  18.9790  18.9797  19.0884  19.0885  19.1581  19.1587
    19.1632  19.1638  19.2261  19.2264  19.2529  19.2531  19.2708  19.2710
    19.3011  19.3014  19.3041  19.3044  19.3191  19.3193  19.3235  19.3237
    19.3801  19.3809  19.4011  19.4012  19.4363  19.4366  19.6777  19.6784
    19.8783  19.8785  20.2541  20.2547  21.5738  21.5742  21.7439  21.7445
    22.8424  22.8429  23.0574  23.0579  23.5565  23.5571  23.7906  23.7911
    24.5058  24.5058  24.7995  24.7996  25.8942  25.8948  26.7540  26.7541
    26.7812  26.7812  26.8770  26.8774  26.9801  26.9801  27.0914  27.0919
    27.1654  27.1659  28.2574  28.2575  30.0333  30.0334  30.2455  30.2464
    30.3134  30.3143  30.6242  30.6243  31.3635  31.3643  31.4668  31.4669
    31.5037  31.5038

          k = 0.0557-0.5017-0.5017 ( 32716 PWs)   bands (ev):

   -64.6200 -64.6198 -64.6193 -64.6190 -64.5983 -64.5981 -64.5975 -64.5973
   -64.5942 -64.5939 -64.5934 -64.5931 -64.5797 -64.5795 -64.5793 -64.5793
   -64.5792 -64.5792 -64.5790 -64.5790 -64.5789 -64.5788 -64.5785 -64.5785
   -64.5785 -64.5783 -64.5782 -64.5782 -64.5725 -64.5722 -64.5717 -64.5715
   -30.4780 -30.4780 -30.4780 -30.4779 -30.4778 -30.4778 -30.4777 -30.4777
   -30.4510 -30.4510 -30.4508 -30.4508 -30.4504 -30.4504 -30.4502 -30.4502
   -30.4474 -30.4471 -30.4466 -30.4463 -30.4373 -30.4371 -30.4369 -30.4367
   -30.4216 -30.4215 -30.4213 -30.4211 -30.3677 -30.3676 -30.3676 -30.3676
   -30.2990 -30.2990 -30.2989 -30.2989 -30.2989 -30.2989 -30.2989 -30.2989
   -30.2978 -30.2978 -30.2976 -30.2975 -30.2971 -30.2970 -30.2968 -30.2968
   -30.2683 -30.2682 -30.2682 -30.2682 -30.2580 -30.2579 -30.2578 -30.2577
   -30.2576 -30.2575 -30.2573 -30.2572 -30.2571 -30.2570 -30.2569 -30.2568
   -30.2311 -30.2311 -30.2309 -30.2309 -30.2305 -30.2305 -30.2303 -30.2303
   -30.2154 -30.2153 -30.2151 -30.2149 -30.2105 -30.2105 -30.2105 -30.2104
   -30.2015 -30.2015 -30.2014 -30.2014 -30.1995 -30.1993 -30.1991 -30.1990
   -30.1857 -30.1855 -30.1849 -30.1847 -30.1545 -30.1544 -30.1544 -30.1544
    13.8089  13.8094  13.8098  13.8104  14.6771  14.6773  14.6774  14.6775
    14.7938  14.7939  14.7939  14.7940  14.8650  14.8651  14.8652  14.8653
    14.9959  14.9959  14.9964  14.9964  14.9966  14.9967  14.9971  14.9971
    15.1683  15.1683  15.1687  15.1688  15.1690  15.1691  15.1695  15.1695
    15.2118  15.2119  15.2119  15.2120  15.2120  15.2121  15.2121  15.2121
    15.4320  15.4321  15.4322  15.4323  15.9485  15.9486  15.9489  15.9490
    15.9492  15.9493  15.9496  15.9497  16.2654  16.2656  16.2656  16.2658
    16.5114  16.5118  16.5120  16.5124  16.7064  16.7067  16.7070  16.7073
    16.8284  16.8285  16.8287  16.8288  16.8412  16.8413  16.8414  16.8416
    17.0675  17.0678  17.0679  17.0682  17.0954  17.0955  17.0956  17.0956
    17.0956  17.0956  17.0958  17.0958  17.1499  17.1500  17.1500  17.1503
    17.1570  17.1571  17.1574  17.1574  17.2660  17.2661  17.2664  17.2665
    17.3879  17.3880  17.3881  17.3882  17.3884  17.3884  17.3885  17.3886
    17.5538  17.5541  17.5541  17.5544  17.5677  17.5677  17.5679  17.5679
    17.5681  17.5681  17.5683  17.5683  17.8727  17.8729  17.8734  17.8736
    18.5363  18.5365  18.5371  18.5372  18.6286  18.6288  18.6291  18.6293
    18.8278  18.8279  18.8280  18.8281  18.8284  18.8285  18.8285  18.8287
    19.1555  19.1555  19.1559  19.1560  19.1821  19.1822  19.1822  19.1824
    19.1827  19.1829  19.1829  19.1830  19.2980  19.2981  19.2984  19.2985
    19.3307  19.3308  19.3308  19.3308  19.3309  19.3310  19.3310  19.3310
    19.3311  19.3313  19.3313  19.3315  19.3949  19.3950  19.3953  19.3954
    19.9849  19.9851  19.9853  19.9855  22.2909  22.2910  22.2911  22.2912
    22.2914  22.2915  22.2916  22.2917  24.2646  24.2646  24.2647  24.2648
    24.2649  24.2650  24.2650  24.2651  26.4269  26.4274  26.4276  26.4280
    26.7847  26.7847  26.7848  26.7849  26.7849  26.7850  26.7850  26.7851
    27.5297  27.5299  27.5300  27.5301  30.2637  30.2640  30.2647  30.2649
    30.7423  30.7424  30.7424  30.7425  31.3371  31.3372  31.3372  31.3373
    31.9145  31.9149

          k = 0.1672 0.1672 0.1672 ( 32630 PWs)   bands (ev):

   -64.6345 -64.6116 -64.6115 -64.6115 -64.5969 -64.5968 -64.5968 -64.5948
   -64.5946 -64.5946 -64.5906 -64.5869 -64.5864 -64.5863 -64.5862 -64.5862
   -64.5861 -64.5859 -64.5858 -64.5853 -64.5800 -64.5799 -64.5799 -64.5724
   -64.5719 -64.5718 -64.5716 -64.5716 -64.5715 -64.5714 -64.5713 -64.5708
   -30.5190 -30.5190 -30.5190 -30.5046 -30.4963 -30.4963 -30.4963 -30.4421
   -30.4421 -30.4420 -30.4346 -30.4345 -30.4345 -30.4345 -30.4345 -30.4344
   -30.4290 -30.4290 -30.4290 -30.4289 -30.4289 -30.4289 -30.4002 -30.4002
   -30.4002 -30.3852 -30.3852 -30.3852 -30.3701 -30.3701 -30.3701 -30.3700
   -30.3700 -30.3700 -30.3371 -30.3371 -30.3370 -30.2994 -30.2994 -30.2993
   -30.2956 -30.2956 -30.2956 -30.2944 -30.2944 -30.2944 -30.2944 -30.2944
   -30.2944 -30.2813 -30.2812 -30.2812 -30.2779 -30.2779 -30.2779 -30.2779
   -30.2779 -30.2778 -30.2511 -30.2511 -30.2511 -30.2354 -30.2354 -30.2354
   -30.2316 -30.2315 -30.2315 -30.2169 -30.2169 -30.2168 -30.2136 -30.2135
   -30.2135 -30.2073 -30.2073 -30.2073 -30.2072 -30.2072 -30.2072 -30.2036
   -30.2036 -30.2036 -30.1950 -30.1950 -30.1949 -30.1938 -30.1938 -30.1926
   -30.1925 -30.1925 -30.1804 -30.1804 -30.1804 -30.1678 -30.1449 -30.1449
    12.7007  14.3218  14.3219  14.3219  14.3456  14.3555  14.3555  14.3555
    14.4687  14.4687  14.4687  14.6274  14.6274  14.6274  14.8728  14.8729
    14.8729  15.1223  15.1223  15.1223  15.2340  15.2341  15.2341  15.2341
    15.2341  15.2343  15.3088  15.3089  15.3089  15.4547  15.4548  15.4548
    15.4605  15.4605  15.4605  15.4606  15.4606  15.4606  15.7035  15.7035
    15.7035  15.7036  15.7036  15.7036  15.8419  15.8420  15.8420  16.1374
    16.1375  16.1375  16.2305  16.2305  16.2305  16.2306  16.2306  16.2307
    16.2959  16.2960  16.2961  16.3855  16.3855  16.3855  16.3855  16.3855
    16.3856  16.5382  16.5382  16.5382  16.6280  16.7081  16.7081  16.7081
    16.7082  16.7082  16.7082  16.7201  16.7202  16.7202  16.7212  16.7212
    16.7825  16.7827  16.7827  16.7944  16.7944  16.8184  16.8184  16.8184
    17.2159  17.2160  17.2160  17.3885  17.3885  17.3885  17.5235  17.5236
    17.5236  17.5741  17.5742  17.5742  17.6995  17.6995  17.6996  17.7478
    17.7478  17.7478  17.7479  17.7479  17.7480  18.0406  18.0408  18.0408
    18.0872  18.0872  18.0873  18.1658  18.1658  18.1660  18.2440  18.2440
    18.2937  18.2939  18.2939  18.2939  18.2939  18.2939  18.5111  18.5111
    18.5111  18.6109  18.6109  18.6109  18.6109  18.6110  18.6110  18.7300
    18.7300  18.7301  18.7649  18.7649  18.7649  19.1022  19.1022  19.1022
    19.1107  19.1107  19.1107  19.1920  19.1920  19.1920  19.2444  19.2444
    19.2445  19.2885  19.2885  19.4667  19.4667  19.4667  19.5083  19.6158
    19.6158  19.6158  19.6158  19.6158  19.6158  19.6778  19.6778  19.6778
    20.3177  20.3177  20.3177  21.4548  21.4548  21.4548  21.8189  21.8189
    21.8189  21.8190  21.8190  21.8190  23.0561  23.0561  23.0561  23.4666
    23.4667  23.4667  26.5902  26.5902  26.5903  26.5903  26.5903  26.5903
    26.8535  26.8535  26.8535  28.0392  28.3861  28.3861  28.3861  28.3863
    28.3863  28.3863  29.0684  29.0684  29.0684  30.5611  30.5612  30.5612
    30.6955  30.6955  30.6955  30.6956  30.6956  30.6956  30.8979  30.8979
    30.8980  30.8980

          k = 0.1672 0.1672 0.2787 ( 32662 PWs)   bands (ev):

   -64.6326 -64.6168 -64.6103 -64.6102 -64.6003 -64.6002 -64.5964 -64.5940
   -64.5939 -64.5920 -64.5893 -64.5882 -64.5881 -64.5869 -64.5863 -64.5859
   -64.5854 -64.5847 -64.5828 -64.5827 -64.5804 -64.5781 -64.5780 -64.5736
   -64.5728 -64.5728 -64.5724 -64.5723 -64.5722 -64.5718 -64.5714 -64.5708
   -30.5151 -30.5109 -30.5109 -30.4916 -30.4905 -30.4905 -30.4871 -30.4607
   -30.4501 -30.4501 -30.4439 -30.4439 -30.4406 -30.4405 -30.4402 -30.4402
   -30.4346 -30.4345 -30.4293 -30.4292 -30.4278 -30.4277 -30.4170 -30.4116
   -30.3921 -30.3921 -30.3841 -30.3841 -30.3726 -30.3725 -30.3603 -30.3603
   -30.3547 -30.3547 -30.3497 -30.3497 -30.3145 -30.3130 -30.3130 -30.3089
   -30.3088 -30.3039 -30.3038 -30.2905 -30.2806 -30.2806 -30.2794 -30.2793
   -30.2788 -30.2788 -30.2777 -30.2776 -30.2770 -30.2715 -30.2704 -30.2703
   -30.2683 -30.2683 -30.2492 -30.2431 -30.2395 -30.2395 -30.2382 -30.2378
   -30.2378 -30.2283 -30.2279 -30.2278 -30.2247 -30.2247 -30.2201 -30.2200
   -30.2197 -30.2197 -30.2157 -30.2086 -30.2085 -30.2074 -30.2072 -30.2066
   -30.2055 -30.2054 -30.1988 -30.1988 -30.1959 -30.1908 -30.1874 -30.1873
   -30.1834 -30.1816 -30.1815 -30.1795 -30.1767 -30.1767 -30.1492 -30.1464
    12.8430  13.9793  14.3827  14.4081  14.4082  14.4230  14.4378  14.4378
    14.5454  14.5454  14.5827  14.6824  14.7185  14.7185  14.8363  14.9158
    14.9424  14.9425  14.9795  14.9796  15.0691  15.0691  15.1471  15.2128
    15.2128  15.2674  15.2675  15.2874  15.3117  15.3118  15.3746  15.3748
    15.3974  15.3975  15.4134  15.4135  15.4552  15.4552  15.5324  15.5324
    15.7147  15.7148  15.7349  15.7350  15.8935  15.8936  16.0207  16.0561
    16.0562  16.0810  16.0811  16.1229  16.1502  16.1503  16.2422  16.2423
    16.2735  16.2735  16.3656  16.3657  16.3693  16.3694  16.4443  16.4956
    16.4956  16.5613  16.5716  16.6321  16.6321  16.7173  16.7174  16.7175
    16.7175  16.7252  16.7252  16.7408  16.7563  16.8232  16.8232  16.8416
    16.8505  16.8953  16.8953  16.9071  16.9152  17.0037  17.0988  17.0988
    17.1008  17.1008  17.2110  17.2118  17.3191  17.3192  17.3413  17.3923
    17.3923  17.4846  17.4846  17.5346  17.5543  17.5543  17.8093  17.8094
    17.8419  17.8421  17.8841  17.8886  17.9153  17.9153  18.0391  18.0392
    18.0873  18.0875  18.1654  18.1655  18.1698  18.2108  18.2108  18.2113
    18.2438  18.2439  18.2842  18.2869  18.2870  18.3147  18.3938  18.4583
    18.4583  18.6156  18.6580  18.6580  18.7980  18.7980  18.8084  18.8205
    18.8206  18.8305  18.8305  18.8378  18.8378  18.8974  18.8974  18.9242
    19.0362  19.0408  19.0408  19.1443  19.1459  19.1530  19.1530  19.2246
    19.4328  19.4504  19.4504  19.5073  19.5073  19.5096  19.5096  19.5129
    19.5130  19.6094  19.6189  19.6189  19.6202  19.6482  19.6617  19.6617
    19.9222  19.9222  20.2458  21.3294  21.3294  21.5308  21.5308  21.7930
    21.7930  22.0989  22.4439  22.4622  22.4623  23.4253  23.5015  23.5015
    24.1125  24.1125  25.7290  25.7291  25.9523  25.9523  26.6862  26.7556
    26.7557  27.1757  27.1757  27.5076  27.5076  28.1990  28.5639  28.5640
    28.6002  28.6003  28.6005  28.9227  28.9227  29.7993  29.7993  30.1871
    30.1872  30.5011  30.5011  30.8457  30.8457  31.0740  31.0741  31.2900
    31.2900  31.3400

          k = 0.1672 0.1672 0.3902 ( 32682 PWs)   bands (ev):

   -64.6298 -64.6217 -64.6085 -64.6085 -64.6034 -64.6033 -64.5956 -64.5933
   -64.5930 -64.5929 -64.5899 -64.5899 -64.5869 -64.5863 -64.5860 -64.5854
   -64.5844 -64.5834 -64.5812 -64.5797 -64.5796 -64.5764 -64.5763 -64.5762
   -64.5746 -64.5745 -64.5733 -64.5732 -64.5724 -64.5718 -64.5714 -64.5708
   -30.5068 -30.4992 -30.4992 -30.4821 -30.4821 -30.4790 -30.4754 -30.4739
   -30.4676 -30.4676 -30.4583 -30.4583 -30.4428 -30.4428 -30.4395 -30.4395
   -30.4376 -30.4375 -30.4368 -30.4355 -30.4308 -30.4308 -30.4196 -30.4195
   -30.4009 -30.4009 -30.3724 -30.3724 -30.3664 -30.3664 -30.3605 -30.3604
   -30.3488 -30.3488 -30.3398 -30.3398 -30.3298 -30.3298 -30.3229 -30.3229
   -30.3140 -30.3140 -30.2906 -30.2832 -30.2785 -30.2783 -30.2775 -30.2772
   -30.2710 -30.2678 -30.2677 -30.2621 -30.2615 -30.2615 -30.2598 -30.2598
   -30.2569 -30.2569 -30.2537 -30.2468 -30.2468 -30.2465 -30.2449 -30.2344
   -30.2343 -30.2336 -30.2335 -30.2305 -30.2305 -30.2255 -30.2255 -30.2242
   -30.2222 -30.2221 -30.2142 -30.2119 -30.2118 -30.2094 -30.2075 -30.2071
   -30.2064 -30.2060 -30.2057 -30.2057 -30.2020 -30.1993 -30.1880 -30.1832
   -30.1817 -30.1816 -30.1758 -30.1757 -30.1727 -30.1680 -30.1553 -30.1511
    13.0515  13.6348  14.4596  14.5172  14.5284  14.5285  14.5571  14.5571
    14.6595  14.6595  14.7284  14.7294  14.7429  14.7637  14.8266  14.8266
    14.8523  14.8523  14.8842  14.8842  14.9950  14.9950  14.9994  15.0370
    15.0371  15.0926  15.2276  15.2276  15.2641  15.2642  15.3050  15.3051
    15.3755  15.3756  15.4173  15.4174  15.5316  15.5317  15.5632  15.5633
    15.7324  15.7325  15.7938  15.7939  15.8834  15.8835  15.9210  15.9210
    15.9680  15.9681  15.9863  15.9864  16.1574  16.1575  16.1693  16.1902
    16.3247  16.3247  16.3446  16.3949  16.3949  16.4418  16.4418  16.4735
    16.5419  16.5420  16.5532  16.5533  16.6806  16.7258  16.7259  16.7283
    16.7284  16.7408  16.8247  16.8503  16.8504  16.9266  16.9342  16.9874
    16.9874  17.0012  17.0012  17.0406  17.0410  17.0410  17.0428  17.0429
    17.0553  17.1464  17.1809  17.2449  17.3006  17.3584  17.3997  17.3997
    17.4173  17.4173  17.4594  17.4594  17.5241  17.5241  17.8660  17.8661
    17.8773  17.9078  17.9230  17.9232  17.9377  17.9378  18.0365  18.0366
    18.0653  18.0654  18.0693  18.0697  18.0698  18.1657  18.1658  18.1909
    18.1911  18.2186  18.2366  18.2537  18.2538  18.3433  18.4126  18.4126
    18.5112  18.5438  18.6159  18.6544  18.6544  18.7432  18.7433  18.8138
    18.9521  18.9521  18.9670  18.9748  18.9749  19.0026  19.0181  19.0182
    19.0211  19.0211  19.0430  19.0430  19.0497  19.0498  19.0889  19.3407
    19.3543  19.3665  19.3665  19.3671  19.3671  19.3688  19.3688  19.5418
    19.5636  19.5637  19.6242  19.6242  19.6453  19.6453  19.8156  19.9451
    19.9452  20.1377  20.2773  20.8555  20.8556  21.6154  21.6154  21.7217
    21.7512  21.7512  22.6563  23.1854  23.1855  23.3116  24.0542  24.0542
    24.8210  24.8211  24.8392  24.8393  25.3049  25.3049  26.3887  26.3888
    26.7026  27.2954  27.2955  27.4721  27.6478  27.6478  28.0838  28.0839
    28.9035  28.9037  28.9790  28.9790  29.2328  29.4422  29.4422  29.7117
    29.7118  30.3205  30.3205  30.6972  30.8208  30.8208  31.0117  31.0117
    31.2138  31.2139

          k = 0.1672 0.1672-0.5017 ( 32662 PWs)   bands (ev):

   -64.6265 -64.6257 -64.6066 -64.6065 -64.6058 -64.6057 -64.5950 -64.5942
   -64.5920 -64.5919 -64.5912 -64.5911 -64.5869 -64.5863 -64.5859 -64.5854
   -64.5826 -64.5818 -64.5805 -64.5797 -64.5773 -64.5773 -64.5765 -64.5765
   -64.5751 -64.5750 -64.5743 -64.5742 -64.5724 -64.5718 -64.5714 -64.5708
   -30.4946 -30.4943 -30.4850 -30.4847 -30.4842 -30.4839 -30.4716 -30.4715
   -30.4709 -30.4708 -30.4570 -30.4569 -30.4566 -30.4562 -30.4426 -30.4425
   -30.4423 -30.4423 -30.4341 -30.4340 -30.4338 -30.4337 -30.4106 -30.4106
   -30.4101 -30.4101 -30.3684 -30.3684 -30.3681 -30.3681 -30.3481 -30.3481
   -30.3478 -30.3478 -30.3365 -30.3365 -30.3359 -30.3359 -30.3263 -30.3263
   -30.3258 -30.3258 -30.2783 -30.2780 -30.2776 -30.2772 -30.2739 -30.2731
   -30.2677 -30.2675 -30.2635 -30.2627 -30.2568 -30.2568 -30.2560 -30.2560
   -30.2474 -30.2474 -30.2469 -30.2469 -30.2454 -30.2454 -30.2454 -30.2452
   -30.2451 -30.2451 -30.2447 -30.2444 -30.2207 -30.2204 -30.2168 -30.2168
   -30.2164 -30.2163 -30.2151 -30.2151 -30.2144 -30.2143 -30.2123 -30.2119
   -30.2116 -30.2115 -30.2075 -30.2070 -30.2067 -30.2062 -30.1858 -30.1850
   -30.1776 -30.1776 -30.1774 -30.1774 -30.1636 -30.1628 -30.1583 -30.1580
    13.3188  13.3198  14.5756  14.5758  14.6284  14.6292  14.6718  14.6718
    14.6725  14.6725  14.7079  14.7084  14.7086  14.7090  14.8095  14.8095
    14.8103  14.8103  14.8698  14.8706  14.9012  14.9014  15.0239  15.0240
    15.0245  15.0246  15.1472  15.1474  15.1475  15.1476  15.3406  15.3407
    15.3407  15.3408  15.5214  15.5215  15.5221  15.5222  15.7089  15.7090
    15.7091  15.7091  15.7729  15.7730  15.7735  15.7736  15.8818  15.8818
    15.8820  15.8820  16.0595  16.0596  16.0600  16.0601  16.2486  16.2491
    16.3432  16.3439  16.3823  16.3825  16.3830  16.3832  16.4570  16.4571
    16.4574  16.4575  16.7225  16.7230  16.7295  16.7296  16.7301  16.7301
    16.7821  16.7821  16.7821  16.7822  16.9023  16.9024  16.9025  16.9025
    16.9251  16.9252  17.0362  17.0368  17.0443  17.0451  17.1159  17.1162
    17.1163  17.1166  17.1902  17.1905  17.4386  17.4386  17.4391  17.4391
    17.5244  17.5245  17.5247  17.5247  17.6032  17.6035  17.7093  17.7095
    17.9594  17.9602  17.9661  17.9661  17.9665  17.9665  17.9855  17.9857
    17.9862  17.9863  18.0610  18.0611  18.0616  18.0617  18.1386  18.1388
    18.1393  18.1394  18.1807  18.1808  18.1813  18.1813  18.4193  18.4200
    18.5361  18.5368  18.7640  18.7641  18.8224  18.8225  18.8475  18.8475
    18.8482  18.8482  18.8493  18.8497  18.8501  18.8505  19.2007  19.2007
    19.2012  19.2012  19.2095  19.2095  19.2099  19.2099  19.2278  19.2278
    19.2282  19.2282  19.2366  19.2369  19.2427  19.2427  19.2428  19.2429
    19.4474  19.4475  19.6320  19.6325  19.6328  19.6334  19.9933  19.9941
    20.3939  20.3940  20.3941  20.3942  20.9800  20.9807  21.6911  21.6912
    21.6918  21.6919  23.0674  23.0680  23.9823  23.9823  23.9826  23.9827
    24.6650  24.6651  24.6656  24.6657  25.5911  25.5911  25.5913  25.5913
    26.9586  26.9587  27.6442  27.6442  27.6449  27.6449  28.2546  28.2547
    28.2554  28.2555  29.2789  29.2791  29.2797  29.2799  29.9329  29.9329
    29.9334  29.9334  29.9335  29.9336  30.8499  30.8501  30.8507  30.8509
    31.3831  31.3837

          k = 0.1672 0.2787 0.2787 ( 32670 PWs)   bands (ev):

   -64.6307 -64.6155 -64.6154 -64.6091 -64.6041 -64.5996 -64.5995 -64.5939
   -64.5933 -64.5888 -64.5888 -64.5881 -64.5879 -64.5865 -64.5845 -64.5844
   -64.5841 -64.5841 -64.5829 -64.5828 -64.5787 -64.5787 -64.5766 -64.5739
   -64.5737 -64.5734 -64.5733 -64.5730 -64.5729 -64.5723 -64.5721 -64.5713
   -30.5087 -30.5087 -30.5020 -30.4849 -30.4825 -30.4825 -30.4774 -30.4595
   -30.4595 -30.4548 -30.4547 -30.4459 -30.4459 -30.4421 -30.4421 -30.4414
   -30.4413 -30.4394 -30.4394 -30.4386 -30.4370 -30.4370 -30.4158 -30.4158
   -30.4008 -30.4008 -30.4003 -30.3652 -30.3617 -30.3617 -30.3603 -30.3570
   -30.3570 -30.3461 -30.3461 -30.3273 -30.3257 -30.3257 -30.3135 -30.2982
   -30.2982 -30.2951 -30.2951 -30.2936 -30.2936 -30.2864 -30.2864 -30.2752
   -30.2752 -30.2751 -30.2710 -30.2710 -30.2681 -30.2681 -30.2675 -30.2675
   -30.2625 -30.2625 -30.2536 -30.2535 -30.2401 -30.2401 -30.2372 -30.2355
   -30.2355 -30.2305 -30.2286 -30.2263 -30.2263 -30.2247 -30.2231 -30.2231
   -30.2222 -30.2222 -30.2212 -30.2192 -30.2191 -30.2103 -30.2103 -30.2090
   -30.2089 -30.2084 -30.1964 -30.1941 -30.1925 -30.1899 -30.1893 -30.1869
   -30.1868 -30.1782 -30.1782 -30.1751 -30.1751 -30.1707 -30.1524 -30.1473
    12.9808  14.0777  14.0777  14.3992  14.4619  14.5034  14.5043  14.5043
    14.6018  14.6634  14.6635  14.7733  14.7733  14.7859  14.8160  14.8161
    14.8194  14.9059  14.9060  14.9579  15.0845  15.0845  15.1384  15.1384
    15.1587  15.1587  15.2407  15.2407  15.2977  15.2978  15.3028  15.3029
    15.3103  15.3269  15.3269  15.4050  15.4050  15.4920  15.4921  15.5281
    15.5395  15.5396  15.7304  15.7304  15.9716  15.9716  15.9809  16.0375
    16.0497  16.0498  16.0585  16.0585  16.1026  16.1027  16.2354  16.2953
    16.2954  16.3845  16.3845  16.4201  16.4201  16.4735  16.5386  16.5390
    16.5391  16.5688  16.5688  16.6668  16.6669  16.6851  16.6851  16.7578
    16.8004  16.8108  16.8654  16.8655  16.8730  16.8930  16.9236  16.9561
    16.9561  16.9665  16.9843  16.9844  17.0036  17.0036  17.0322  17.0790
    17.0790  17.1303  17.1303  17.1756  17.2206  17.2206  17.3179  17.3180
    17.3337  17.3973  17.5820  17.5821  17.6220  17.6220  17.6469  17.6471
    17.7132  17.7133  17.9049  17.9243  17.9371  17.9430  17.9580  17.9580
    17.9885  17.9886  18.0258  18.0258  18.1560  18.1998  18.1999  18.2764
    18.2765  18.2777  18.3091  18.3092  18.3502  18.3886  18.3886  18.4518
[...]
    23.8098  23.8100  23.8101  23.8101  24.9772  24.9776  24.9779  24.9782
    27.4388  27.4389  27.4390  27.4391  27.4393  27.4394  27.4395  27.4396
    27.9005  27.9007  27.9008  27.9009  29.6129  29.6130  29.6131  29.6132
    30.1584  30.1584  30.1586  30.1587  30.1589  30.1590  30.1592  30.1592
    31.8509  31.8513

          k = 0.3902 0.3902 0.3902 ( 32693 PWs)   bands (ev):

   -64.6213 -64.6146 -64.6145 -64.6144 -64.6088 -64.6087 -64.6086 -64.6039
   -64.5830 -64.5830 -64.5828 -64.5825 -64.5820 -64.5819 -64.5818 -64.5817
   -64.5816 -64.5815 -64.5814 -64.5810 -64.5772 -64.5771 -64.5770 -64.5767
   -64.5762 -64.5762 -64.5760 -64.5759 -64.5758 -64.5757 -64.5757 -64.5752
   -30.4809 -30.4809 -30.4809 -30.4675 -30.4674 -30.4674 -30.4639 -30.4639
   -30.4638 -30.4610 -30.4610 -30.4610 -30.4609 -30.4609 -30.4609 -30.4600
   -30.4600 -30.4599 -30.4599 -30.4599 -30.4598 -30.4491 -30.4490 -30.4490
   -30.4040 -30.3605 -30.3605 -30.3605 -30.3235 -30.3235 -30.3234 -30.3234
   -30.3234 -30.3234 -30.3200 -30.3200 -30.3200 -30.3166 -30.3166 -30.3166
   -30.3114 -30.3113 -30.3113 -30.2824 -30.2824 -30.2824 -30.2824 -30.2823
   -30.2823 -30.2758 -30.2757 -30.2757 -30.2709 -30.2707 -30.2707 -30.2707
   -30.2579 -30.2579 -30.2579 -30.2506 -30.2505 -30.2505 -30.2505 -30.2505
   -30.2505 -30.2432 -30.2432 -30.2432 -30.2374 -30.2374 -30.2374 -30.2352
   -30.2351 -30.2351 -30.2351 -30.2351 -30.2351 -30.2271 -30.2271 -30.2271
   -30.1858 -30.1858 -30.1858 -30.1790 -30.1790 -30.1745 -30.1745 -30.1744
   -30.1687 -30.1687 -30.1687 -30.1669 -30.1669 -30.1668 -30.1597 -30.1597
    13.6432  14.0726  14.0727  14.0727  14.3283  14.3283  14.3284  14.3663
    14.7978  14.7978  14.7978  14.9288  14.9289  14.9289  14.9494  14.9494
    14.9494  15.0120  15.0120  15.0120  15.0120  15.0120  15.0121  15.0421
    15.0422  15.0422  15.0422  15.0422  15.0423  15.0758  15.0759  15.0759
    15.2653  15.2653  15.2653  15.5492  15.5493  15.5493  15.6163  15.6163
    15.6163  15.6164  15.6164  15.6165  15.8879  15.8880  15.8880  15.9011
    15.9011  15.9011  15.9012  15.9012  15.9013  16.1169  16.1169  16.1169
    16.4409  16.4410  16.4410  16.4794  16.6757  16.6759  16.6759  16.9165
    16.9165  16.9374  16.9374  16.9374  16.9375  16.9375  16.9375  16.9986
    16.9986  17.0070  17.0071  17.0071  17.0311  17.0312  17.0312  17.0319
    17.0319  17.0319  17.0747  17.0747  17.0747  17.1018  17.1019  17.1019
    17.1728  17.1728  17.1728  17.1758  17.1758  17.1758  17.1759  17.1759
    17.1759  17.2807  17.2808  17.2808  17.3282  17.4579  17.4579  17.4579
    17.7186  17.7186  17.7186  17.8165  17.8165  17.8167  17.8177  17.8177
    17.8178  17.8179  17.8179  17.8179  18.0267  18.0267  18.0269  18.1685
    18.1685  18.1685  18.1686  18.1686  18.1686  18.2273  18.2275  18.2275
    18.2551  18.2551  18.2946  18.2946  18.2947  18.4130  18.4130  18.4130
    18.5566  18.5566  18.5568  18.7155  18.7155  18.8476  18.8477  18.8477
    19.4036  19.4036  19.4036  19.4439  19.4439  19.4439  19.4439  19.4439
    19.4439  19.4803  19.4803  19.4803  19.4803  19.4803  19.4803  19.5115
    19.5115  19.5115  19.5191  19.5191  19.5191  19.5785  19.5785  19.5785
    21.6285  21.6285  21.6286  22.3935  22.3935  22.3935  22.3936  22.3936
    22.3937  22.7854  22.7854  22.7854  23.2849  23.2849  23.2849  24.1588
    24.1588  24.1588  24.1589  24.1589  24.1590  24.6224  24.6225  24.6225
    27.0650  27.0651  27.0651  27.7952  27.7952  27.7952  28.3062  28.3062
    28.3062  28.3064  28.3064  28.3064  29.1669  29.1669  29.1669  29.1671
    29.1671  29.1671  29.6421  29.6422  29.6422  30.5654  30.5654  30.5654
    31.8280  32.7060

          k = 0.3902 0.3902-0.5017 ( 32654 PWs)   bands (ev):

   -64.6186 -64.6178 -64.6123 -64.6122 -64.6115 -64.6114 -64.6069 -64.6061
   -64.5828 -64.5828 -64.5824 -64.5821 -64.5819 -64.5819 -64.5815 -64.5810
   -64.5796 -64.5795 -64.5790 -64.5790 -64.5789 -64.5787 -64.5782 -64.5782
   -64.5769 -64.5769 -64.5766 -64.5762 -64.5761 -64.5760 -64.5758 -64.5752
   -30.4761 -30.4761 -30.4719 -30.4715 -30.4711 -30.4707 -30.4639 -30.4639
   -30.4634 -30.4634 -30.4624 -30.4623 -30.4622 -30.4621 -30.4620 -30.4619
   -30.4617 -30.4613 -30.4580 -30.4576 -30.4553 -30.4553 -30.4548 -30.4548
   -30.3826 -30.3822 -30.3384 -30.3384 -30.3382 -30.3382 -30.3226 -30.3226
   -30.3224 -30.3224 -30.3180 -30.3178 -30.3177 -30.3175 -30.3031 -30.3031
   -30.3028 -30.3028 -30.2950 -30.2950 -30.2947 -30.2942 -30.2932 -30.2930
   -30.2787 -30.2786 -30.2782 -30.2781 -30.2760 -30.2759 -30.2758 -30.2758
   -30.2541 -30.2540 -30.2536 -30.2534 -30.2516 -30.2508 -30.2440 -30.2440
   -30.2437 -30.2436 -30.2435 -30.2435 -30.2433 -30.2432 -30.2394 -30.2393
   -30.2392 -30.2391 -30.2331 -30.2323 -30.2316 -30.2314 -30.2313 -30.2312
   -30.1809 -30.1806 -30.1787 -30.1787 -30.1782 -30.1782 -30.1738 -30.1730
   -30.1673 -30.1672 -30.1672 -30.1672 -30.1668 -30.1660 -30.1616 -30.1614
    13.8428  13.8437  14.1925  14.1926  14.1932  14.1933  14.3387  14.3392
    14.8673  14.8680  14.8891  14.8891  14.8892  14.8892  14.9744  14.9745
    14.9745  14.9746  14.9870  14.9872  14.9875  14.9877  15.0255  15.0260
    15.0333  15.0334  15.0335  15.0335  15.0382  15.0383  15.0389  15.0389
    15.3917  15.3926  15.4412  15.4413  15.4415  15.4415  15.7340  15.7340
    15.7343  15.7343  15.7401  15.7402  15.7408  15.7410  15.7616  15.7617
    15.7619  15.7620  15.9859  15.9865  16.0265  16.0267  16.0271  16.0273
    16.4769  16.4771  16.5706  16.5707  16.5708  16.5709  16.9187  16.9188
    16.9597  16.9598  17.0119  17.0120  17.0120  17.0121  17.0193  17.0195
    17.0264  17.0269  17.0426  17.0427  17.0428  17.0429  17.0451  17.0451
    17.0455  17.0455  17.0465  17.0470  17.0522  17.0522  17.0527  17.0527
    17.1000  17.1001  17.1001  17.1001  17.1281  17.1283  17.1430  17.1431
    17.1433  17.1434  17.4537  17.4537  17.4539  17.4539  17.5055  17.5062
    17.6139  17.6140  17.6143  17.6143  17.6325  17.6328  17.9041  17.9042
    17.9046  17.9048  17.9735  17.9736  17.9739  17.9740  17.9966  17.9967
    17.9969  17.9969  18.2073  18.2079  18.2212  18.2215  18.2794  18.2795
    18.2796  18.2799  18.2799  18.2800  18.2803  18.2807  18.3979  18.3984
    18.5065  18.5066  18.6504  18.6505  18.6508  18.6509  18.7604  18.7611
    19.4571  19.4572  19.4573  19.4573  19.4753  19.4755  19.4797  19.4797
    19.4799  19.4799  19.5055  19.5055  19.5060  19.5060  19.5078  19.5080
    19.5081  19.5083  19.5401  19.5405  19.5407  19.5410  19.5651  19.5653
    21.9892  21.9893  21.9897  21.9898  22.4418  22.4424  22.5777  22.5779
    22.5783  22.5786  23.2553  23.2554  23.2557  23.2558  23.6971  23.6973
    23.7087  23.7089  23.7093  23.7095  24.4169  24.4169  24.4175  24.4176
    27.3866  27.3873  27.6029  27.6029  27.6031  27.6031  28.4303  28.4305
    28.4310  28.4311  28.7044  28.7045  28.7051  28.7053  28.9430  28.9431
    28.9434  28.9435  29.8372  29.8372  29.8373  29.8373  30.0711  30.0719
    32.5287  32.5289

          k = 0.3902-0.5017-0.5017 ( 32644 PWs)   bands (ev):

   -64.6158 -64.6156 -64.6150 -64.6148 -64.6099 -64.6097 -64.6092 -64.6089
   -64.5826 -64.5824 -64.5819 -64.5816 -64.5797 -64.5795 -64.5793 -64.5793
   -64.5792 -64.5792 -64.5790 -64.5790 -64.5789 -64.5788 -64.5785 -64.5785
   -64.5785 -64.5783 -64.5782 -64.5782 -64.5766 -64.5764 -64.5759 -64.5756
   -30.4697 -30.4696 -30.4696 -30.4694 -30.4694 -30.4693 -30.4692 -30.4692
   -30.4637 -30.4635 -30.4632 -30.4630 -30.4630 -30.4628 -30.4625 -30.4623
   -30.4603 -30.4603 -30.4602 -30.4601 -30.4599 -30.4598 -30.4597 -30.4596
   -30.3605 -30.3604 -30.3602 -30.3601 -30.3209 -30.3209 -30.3207 -30.3206
   -30.3155 -30.3155 -30.3153 -30.3152 -30.2991 -30.2991 -30.2990 -30.2990
   -30.2989 -30.2989 -30.2989 -30.2988 -30.2988 -30.2988 -30.2987 -30.2987
   -30.2984 -30.2984 -30.2983 -30.2983 -30.2766 -30.2765 -30.2763 -30.2762
   -30.2483 -30.2483 -30.2483 -30.2483 -30.2476 -30.2475 -30.2473 -30.2472
   -30.2471 -30.2469 -30.2468 -30.2467 -30.2385 -30.2384 -30.2383 -30.2381
   -30.2380 -30.2378 -30.2377 -30.2376 -30.2356 -30.2356 -30.2356 -30.2355
   -30.1764 -30.1764 -30.1764 -30.1764 -30.1717 -30.1715 -30.1713 -30.1712
   -30.1711 -30.1711 -30.1707 -30.1705 -30.1636 -30.1636 -30.1635 -30.1635
    14.0066  14.0071  14.0074  14.0079  14.2586  14.2590  14.2592  14.2596
    14.9388  14.9389  14.9390  14.9390  14.9394  14.9394  14.9396  14.9396
    14.9472  14.9472  14.9472  14.9473  14.9714  14.9714  14.9715  14.9716
    15.0233  15.0233  15.0234  15.0236  15.0237  15.0239  15.0240  15.0240
    15.5704  15.5705  15.5705  15.5707  15.5710  15.5712  15.5712  15.5713
    15.6077  15.6079  15.6080  15.6081  15.8768  15.8768  15.8771  15.8773
    15.8773  15.8775  15.8778  15.8778  15.8984  15.8987  15.8989  15.8992
    16.5399  16.5400  16.5400  16.5401  16.7904  16.7906  16.7907  16.7908
    16.9840  16.9841  16.9842  16.9843  16.9957  16.9957  16.9959  16.9960
    17.0192  17.0194  17.0194  17.0197  17.0222  17.0223  17.0224  17.0226
    17.0634  17.0635  17.0635  17.0636  17.0857  17.0858  17.0859  17.0859
    17.0861  17.0861  17.0862  17.0863  17.2782  17.2783  17.2784  17.2785
    17.2786  17.2786  17.2788  17.2789  17.3100  17.3102  17.3103  17.3105
    17.7300  17.7301  17.7304  17.7305  17.7914  17.7914  17.7915  17.7915
    17.7917  17.7917  17.7918  17.7918  18.0935  18.0936  18.0937  18.0939
    18.0939  18.0941  18.0942  18.0943  18.1049  18.1050  18.1054  18.1055
    18.2478  18.2479  18.2484  18.2485  18.4484  18.4484  18.4487  18.4488
    18.4799  18.4800  18.4803  18.4805  18.6207  18.6208  18.6212  18.6213
    19.5005  19.5006  19.5006  19.5006  19.5007  19.5008  19.5008  19.5009
    19.5131  19.5133  19.5134  19.5135  19.5368  19.5369  19.5371  19.5372
    19.5404  19.5404  19.5404  19.5405  19.5406  19.5407  19.5408  19.5408
    22.2618  22.2621  22.2624  22.2627  22.8320  22.8321  22.8322  22.8324
    22.8325  22.8327  22.8328  22.8329  23.4794  23.4794  23.4795  23.4798
    23.4798  23.4801  23.4801  23.4801  24.0589  24.0593  24.0596  24.0599
    27.9837  27.9838  27.9839  27.9840  27.9842  27.9843  27.9844  27.9845
    28.2252  28.2254  28.2255  28.2255  29.0963  29.0964  29.0965  29.0966
    29.3573  29.3574  29.3575  29.3577  29.3579  29.3580  29.3581  29.3582
    32.9217  32.9219

          k =-0.5017-0.5017-0.5017 ( 32752 PWs)   bands (ev):

   -64.6133 -64.6130 -64.6130 -64.6128 -64.6125 -64.6122 -64.6122 -64.6120
   -64.5799 -64.5797 -64.5796 -64.5795 -64.5794 -64.5794 -64.5792 -64.5791
   -64.5791 -64.5791 -64.5790 -64.5790 -64.5789 -64.5788 -64.5786 -64.5786
   -64.5785 -64.5785 -64.5784 -64.5783 -64.5783 -64.5781 -64.5780 -64.5778
   -30.4655 -30.4655 -30.4654 -30.4654 -30.4652 -30.4651 -30.4651 -30.4650
   -30.4650 -30.4649 -30.4649 -30.4649 -30.4648 -30.4647 -30.4647 -30.4647
   -30.4646 -30.4646 -30.4645 -30.4645 -30.4643 -30.4642 -30.4642 -30.4642
   -30.3379 -30.3378 -30.3378 -30.3377 -30.3376 -30.3376 -30.3376 -30.3375
   -30.2993 -30.2992 -30.2992 -30.2991 -30.2991 -30.2991 -30.2990 -30.2990
   -30.2990 -30.2990 -30.2989 -30.2989 -30.2989 -30.2989 -30.2988 -30.2988
   -30.2988 -30.2988 -30.2987 -30.2987 -30.2987 -30.2986 -30.2986 -30.2985
   -30.2429 -30.2429 -30.2429 -30.2429 -30.2428 -30.2428 -30.2427 -30.2427
   -30.2427 -30.2427 -30.2426 -30.2425 -30.2425 -30.2424 -30.2423 -30.2423
   -30.2422 -30.2422 -30.2422 -30.2421 -30.2421 -30.2421 -30.2421 -30.2420
   -30.1699 -30.1699 -30.1698 -30.1698 -30.1697 -30.1696 -30.1696 -30.1695
   -30.1694 -30.1693 -30.1693 -30.1692 -30.1691 -30.1690 -30.1690 -30.1690
    14.1245  14.1250  14.1250  14.1252  14.1254  14.1257  14.1257  14.1261
    14.9694  14.9695  14.9695  14.9695  14.9696  14.9696  14.9696  14.9697
    14.9697  14.9697  14.9698  14.9698  14.9699  14.9700  14.9700  14.9701
    14.9701  14.9702  14.9702  14.9702  14.9702  14.9702  14.9703  14.9703
    15.7351  15.7352  15.7354  15.7354  15.7355  15.7355  15.7355  15.7356
    15.7356  15.7357  15.7358  15.7358  15.7358  15.7359  15.7359  15.7360
    15.7360  15.7362  15.7362  15.7363  15.7363  15.7363  15.7364  15.7364
    16.6832  16.6835  16.6835  16.6835  16.6835  16.6836  16.6836  16.6836
    16.9969  16.9969  16.9969  16.9970  16.9970  16.9970  16.9971  16.9972
    16.9972  16.9973  16.9973  16.9973  16.9974  16.9974  16.9975  16.9976
    17.1846  17.1847  17.1847  17.1848  17.1848  17.1848  17.1849  17.1849
    17.1850  17.1850  17.1850  17.1850  17.1851  17.1851  17.1851  17.1851
    17.1852  17.1852  17.1852  17.1853  17.1853  17.1854  17.1854  17.1855
    17.9153  17.9153  17.9154  17.9155  17.9155  17.9156  17.9157  17.9157
    17.9157  17.9157  17.9158  17.9158  17.9159  17.9159  17.9159  17.9159
    17.9160  17.9161  17.9161  17.9161  17.9162  17.9162  17.9163  17.9165
    18.4303  18.4305  18.4305  18.4306  18.4306  18.4307  18.4307  18.4308
    18.4309  18.4309  18.4310  18.4310  18.4311  18.4311  18.4313  18.4313
    19.5426  19.5426  19.5426  19.5427  19.5427  19.5428  19.5428  19.5429
    19.5429  19.5429  19.5429  19.5430  19.5430  19.5430  19.5431  19.5431
    19.5431  19.5431  19.5432  19.5433  19.5433  19.5433  19.5433  19.5434
    23.1430  23.1430  23.1431  23.1432  23.1433  23.1433  23.1435  23.1435
    23.1435  23.1436  23.1436  23.1436  23.1437  23.1437  23.1438  23.1438
    23.1439  23.1439  23.1439  23.1440  23.1441  23.1442  23.1442  23.1442
    28.6282  28.6283  28.6283  28.6284  28.6284  28.6284  28.6285  28.6285
    28.6286  28.6287  28.6287  28.6288  28.6290  28.6290  28.6291  28.6291
    28.6291  28.6291  28.6293  28.6293  28.6293  28.6294  28.6294  28.6294
    33.8790  33.8791

     the Fermi energy is    19.5614 ev

!    total energy              =  -16384.95244092 Ry
     Harris-Foulkes estimate   =  -16384.95242876 Ry
     estimated scf accuracy    <       0.00000088 Ry

     total all-electron energy =   -322945.806148 Ry

     The total energy is the sum of the following terms:

     one-electron contribution =   -2451.07476816 Ry
     hartree contribution      =    1648.41799363 Ry
     xc contribution           =    -986.76136493 Ry
     ewald contribution        =   -6428.12631846 Ry
     one-center paw contrib.   =   -8167.43757555 Ry
     smearing contrib. (-TS)   =       0.02959254 Ry

     convergence has been achieved in  10 iterations

     Forces acting on atoms (cartesian axes, Ry/au):

     atom    1 type  1   force =     0.00000000    0.00000000    0.00000000
     atom    2 type  1   force =     0.00005741    0.00005741    0.00000000
     atom    3 type  1   force =     0.00005741   -0.00000000    0.00005741
     atom    4 type  1   force =     0.00000000    0.00005741    0.00005741
     atom    5 type  1   force =     0.00000000    0.00000000    0.00000000
     atom    6 type  1   force =     0.00012906    0.00012906    0.00000000
     atom    7 type  1   force =     0.00005741   -0.00000000   -0.00005741
     atom    8 type  1   force =     0.00000000    0.00005741   -0.00005741
     atom    9 type  1   force =     0.00000000    0.00000000   -0.00000000
     atom   10 type  1   force =     0.00005741   -0.00005741    0.00000000
     atom   11 type  1   force =     0.00012906   -0.00000000    0.00012906
     atom   12 type  1   force =    -0.00000000   -0.00005741    0.00005741
     atom   13 type  1   force =     0.00000000    0.00000000   -0.00000000
     atom   14 type  1   force =     0.00012906   -0.00012906   -0.00000000
     atom   15 type  1   force =     0.00012906    0.00000000   -0.00012906
     atom   16 type  1   force =    -0.00000000   -0.00005741   -0.00005741
     atom   17 type  1   force =     0.00000000    0.00000000    0.00000000
     atom   18 type  1   force =    -0.00005741    0.00005741    0.00000000
     atom   19 type  1   force =    -0.00005741    0.00000000    0.00005741
     atom   20 type  1   force =     0.00000000    0.00012906    0.00012906
     atom   21 type  1   force =     0.00000000    0.00000000    0.00000000
     atom   22 type  1   force =    -0.00012906    0.00012906   -0.00000000
     atom   23 type  1   force =    -0.00005741    0.00000000   -0.00005741
     atom   24 type  1   force =     0.00000000    0.00012906   -0.00012906
     atom   25 type  1   force =     0.00000000   -0.00000000    0.00000000
     atom   26 type  1   force =    -0.00005741   -0.00005741   -0.00000000
     atom   27 type  1   force =    -0.00012906    0.00000000    0.00012906
     atom   28 type  1   force =     0.00000000   -0.00012906    0.00012906
     atom   29 type  1   force =     0.00000000    0.00000000    0.00000000
     atom   30 type  1   force =    -0.00012906   -0.00012906    0.00000000
     atom   31 type  1   force =    -0.00012906   -0.00000000   -0.00012906
     atom   32 type  1   force =     0.00000000   -0.00012906   -0.00012906

     Total force =     0.000692     Total SCF correction =     0.005703
     SCF correction compared to forces is large: reduce conv_thr to get better values


     Computing stress (Cartesian axis) and pressure

          total   stress  (Ry/bohr**3)                   (kbar)     P=   19.34
   0.00013148   0.00000000   0.00000000         19.34      0.00      0.00
   0.00000000   0.00013148   0.00000000          0.00     19.34      0.00
   0.00000000   0.00000000   0.00013148          0.00      0.00     19.34


     Writing output data file ncXXWuYYWyBrQivw.save/
 
     init_run     :     19.69s CPU     21.33s WALL (       1 calls)
     electrons    :    906.49s CPU    953.82s WALL (       1 calls)
     forces       :      8.91s CPU      9.31s WALL (       1 calls)
     stress       :     87.93s CPU     88.41s WALL (       1 calls)

     Called by init_run:
     wfcinit      :     19.06s CPU     20.64s WALL (       1 calls)
     potinit      :      0.32s CPU      0.33s WALL (       1 calls)
     hinit0       :      0.13s CPU      0.14s WALL (       1 calls)

     Called by electrons:
     c_bands      :    827.27s CPU    865.89s WALL (      11 calls)
     sum_band     :     75.41s CPU     83.78s WALL (      11 calls)
     v_of_rho     :      0.33s CPU      0.34s WALL (      11 calls)
     newd         :      0.80s CPU      1.03s WALL (      11 calls)
     PAW_pot      :      2.84s CPU      2.88s WALL (      11 calls)
     mix_rho      :      0.07s CPU      0.09s WALL (      11 calls)

     Called by c_bands:
     init_us_2    :      4.86s CPU      4.90s WALL (     875 calls)
     cegterg      :    801.44s CPU    839.90s WALL (     385 calls)

     Called by sum_band:
     sum_band:bec :      0.61s CPU      0.62s WALL (     385 calls)
     addusdens    :      0.81s CPU      1.09s WALL (      11 calls)

     Called by *egterg:
     h_psi        :    310.67s CPU    344.60s WALL (    1211 calls)
     s_psi        :     38.24s CPU     38.42s WALL (    1211 calls)
     g_psi        :      1.14s CPU      1.15s WALL (     791 calls)
     cdiaghg      :    326.45s CPU    327.85s WALL (    1141 calls)

     Called by h_psi:
     h_psi:pot    :    307.63s CPU    341.41s WALL (    1211 calls)
     h_psi:calbec :     39.73s CPU     41.77s WALL (    1211 calls)
     vloc_psi     :    230.08s CPU    261.60s WALL (    1211 calls)
     add_vuspsi   :     37.81s CPU     38.03s WALL (    1211 calls)

     General routines
     calbec       :     66.23s CPU     69.56s WALL (    1771 calls)
     fft          :      0.35s CPU      0.38s WALL (     168 calls)
     ffts         :      0.02s CPU      0.03s WALL (      22 calls)
     fftw         :    265.24s CPU    301.66s WALL (  747190 calls)
     interpolate  :      0.07s CPU      0.07s WALL (      11 calls)
 
     Parallel routines
     fft_scatt_xy :     21.58s CPU     24.17s WALL (  747380 calls)
     fft_scatt_yz :    174.06s CPU    199.75s WALL (  747380 calls)
 
     PWSCF        : 17m 6.74s CPU    18m34.17s WALL

 
   This run was terminated on:   8:25:56  11Nov2020            

=------------------------------------------------------------------------------=
   JOB DONE.
=------------------------------------------------------------------------------=
