--------------------------------------------------------------------------
WARNING: No preset parameters were found for the device that Open MPI
detected:

  Local host:            bear-pg0206u14b
  Device name:           mlx5_0
  Device vendor ID:      0x02c9
  Device vendor part ID: 4123

Default device parameters will be used, which may result in lower
performance.  You can edit any of the files specified by the
btl_openib_device_param_files MCA parameter to set values for your
device.

NOTE: You can turn off this warning by setting the MCA parameter
      btl_openib_warn_no_device_params_found to 0.
--------------------------------------------------------------------------
--------------------------------------------------------------------------
WARNING: There was an error initializing an OpenFabrics device.

  Local host:   bear-pg0206u14b
  Local device: mlx5_0
--------------------------------------------------------------------------

     Program PWSCF v.6.3 starts on 11Nov2020 at  9:20: 1 

     This program is part of the open-source Quantum ESPRESSO suite
     for quantum simulation of materials; please cite
         "P. Giannozzi et al., J. Phys.:Condens. Matter 21 395502 (2009);
         "P. Giannozzi et al., J. Phys.:Condens. Matter 29 465901 (2017);
          URL http://www.quantum-espresso.org", 
     in publications or presentations arising from this work. More details at
     http://www.quantum-espresso.org/quote

     Parallel version (MPI & OpenMP), running on      20 processor cores
     Number of MPI processes:                20
     Threads/MPI process:                     1

     MPI processes distributed on     1 nodes
     R & G space division:  proc/nbgrp/npool/nimage =      20
     Reading input from wd/eos/eos_006.in
Warning: card &IONS ignored
Warning: card ION_DYNAMICS = 'BFGS', ignored
Warning: card / ignored
Warning: card &CELL ignored
Warning: card CELL_DYNAMICS = 'BFGS', ignored
Warning: card CELL_FACTOR = 2.0, ignored
Warning: card PRESS = 0.0, ignored
Warning: card / ignored

     Current dimensions of program PWSCF are:
     Max number of different atomic species (ntypx) = 10
     Max number of k-points (npk) =  40000
     Max angular momentum in pseudopotentials (lmaxx) =  3
               file Pd.pbe-spn-kjpaw_psl.1.0.0.UPF: wavefunction(s)  4S 5S 4D renormalized

     Subspace diagonalization in iterative solution of the eigenvalue problem:
     a serial algorithm will be used

 
     Parallelization info
     --------------------
     sticks:   dense  smooth     PW     G-vecs:    dense   smooth      PW
     Min         379     250     68                24871    13338    1898
     Max         380     252     69                24876    13340    1902
     Sum        7589    5005   1361               497463   266795   37993
 


     bravais-lattice index     =            0
     lattice parameter (alat)  =      14.8394  a.u.
     unit-cell volume          =    3300.5513 (a.u.)^3
     number of atoms/cell      =           32
     number of atomic types    =            1
     number of electrons       =       576.00
     number of Kohn-Sham states=          346
     kinetic-energy cutoff     =      71.0000  Ry
     charge density cutoff     =     430.0000  Ry
     convergence threshold     =      1.0E-06
     mixing beta               =       0.1000
     number of iterations used =           10  plain     mixing
     Exchange-correlation      = SLA PW PBX PBC ( 1  4  3  4 0 0)

     celldm(1)=  14.839420  celldm(2)=   0.000000  celldm(3)=   0.000000
     celldm(4)=   0.000000  celldm(5)=   0.000000  celldm(6)=   0.000000

     crystal axes: (cart. coord. in units of alat)
               a(1) = (   1.003333   0.000000   0.000000 )  
               a(2) = (   0.000000   1.003333   0.000000 )  
               a(3) = (   0.000000   0.000000   1.003333 )  

     reciprocal axes: (cart. coord. in units 2 pi/alat)
               b(1) = (  0.996678  0.000000  0.000000 )  
               b(2) = (  0.000000  0.996678  0.000000 )  
               b(3) = (  0.000000  0.000000  0.996678 )  


     PseudoPot. # 1 for Pd read from file:
     /rds/homes/b/bxp912/pp/Pd.pbe-spn-kjpaw_psl.1.0.0.UPF
     MD5 check sum: 790f2ebce206edfd9790dcb9844eca51
     Pseudo is Projector augmented-wave + core cor, Zval = 18.0
     Generated using "atomic" code by A. Dal Corso v.6.3
     Shape of augmentation charge: PSQ
     Using radial grid of 1235 points,  6 beta functions with: 
                l(1) =   0
                l(2) =   0
                l(3) =   1
                l(4) =   1
                l(5) =   2
                l(6) =   2
     Q(r) pseudized with 0 coefficients 


     atomic species   valence    mass     pseudopotential
        Pd            18.00   106.42000     Pd( 1.00)

     48 Sym. Ops., with inversion, found



   Cartesian axes

     site n.     atom                  positions (alat units)
         1           Pd  tau(   1) = (   0.0000000   0.0000000   0.0000000  )
         2           Pd  tau(   2) = (   0.2508378   0.2508378   0.0000000  )
         3           Pd  tau(   3) = (   0.2508378   0.0000000   0.2508373  )
         4           Pd  tau(   4) = (   0.0000000   0.2508378   0.2508373  )
         5           Pd  tau(   5) = (   0.0000000   0.0000000   0.5016657  )
         6           Pd  tau(   6) = (   0.2508450   0.2508450   0.5016657  )
         7           Pd  tau(   7) = (   0.2508378   0.0000000   0.7524950  )
         8           Pd  tau(   8) = (   0.0000000   0.2508378   0.7524950  )
         9           Pd  tau(   9) = (   0.0000000   0.5016665   0.0000000  )
        10           Pd  tau(  10) = (   0.2508378   0.7524952   0.0000000  )
        11           Pd  tau(  11) = (   0.2508450   0.5016665   0.2508443  )
        12           Pd  tau(  12) = (   0.0000000   0.7524952   0.2508373  )
        13           Pd  tau(  13) = (   0.0000000   0.5016665   0.5016657  )
        14           Pd  tau(  14) = (   0.2508450   0.7524881   0.5016657  )
        15           Pd  tau(  15) = (   0.2508450   0.5016665   0.7524881  )
        16           Pd  tau(  16) = (   0.0000000   0.7524952   0.7524950  )
        17           Pd  tau(  17) = (   0.5016665   0.0000000   0.0000000  )
        18           Pd  tau(  18) = (   0.7524952   0.2508378   0.0000000  )
        19           Pd  tau(  19) = (   0.7524952   0.0000000   0.2508373  )
        20           Pd  tau(  20) = (   0.5016665   0.2508450   0.2508443  )
        21           Pd  tau(  21) = (   0.5016665   0.0000000   0.5016657  )
        22           Pd  tau(  22) = (   0.7524881   0.2508450   0.5016657  )
        23           Pd  tau(  23) = (   0.7524952   0.0000000   0.7524950  )
        24           Pd  tau(  24) = (   0.5016665   0.2508450   0.7524881  )
        25           Pd  tau(  25) = (   0.5016665   0.5016665   0.0000000  )
        26           Pd  tau(  26) = (   0.7524952   0.7524952   0.0000000  )
        27           Pd  tau(  27) = (   0.7524881   0.5016665   0.2508443  )
        28           Pd  tau(  28) = (   0.5016665   0.7524881   0.2508443  )
        29           Pd  tau(  29) = (   0.5016665   0.5016665   0.5016657  )
        30           Pd  tau(  30) = (   0.7524881   0.7524881   0.5016657  )
        31           Pd  tau(  31) = (   0.7524881   0.5016665   0.7524881  )
        32           Pd  tau(  32) = (   0.5016665   0.7524881   0.7524881  )

     number of k points=    35  Marzari-Vanderbilt smearing, width (Ry)=  0.0400
                       cart. coord. in units 2pi/alat
        k(    1) = (   0.0553710   0.0553710   0.0553710), wk =   0.0219479
        k(    2) = (   0.0553710   0.0553710   0.1661130), wk =   0.0658436
        k(    3) = (   0.0553710   0.0553710   0.2768549), wk =   0.0658436
        k(    4) = (   0.0553710   0.0553710   0.3875969), wk =   0.0658436
        k(    5) = (   0.0553710   0.0553710  -0.4983389), wk =   0.0329218
        k(    6) = (   0.0553710   0.1661130   0.1661130), wk =   0.0658436
        k(    7) = (   0.0553710   0.1661130   0.2768549), wk =   0.1316872
        k(    8) = (   0.0553710   0.1661130   0.3875969), wk =   0.1316872
        k(    9) = (   0.0553710   0.1661130  -0.4983389), wk =   0.0658436
        k(   10) = (   0.0553710   0.2768549   0.2768549), wk =   0.0658436
        k(   11) = (   0.0553710   0.2768549   0.3875969), wk =   0.1316872
        k(   12) = (   0.0553710   0.2768549  -0.4983389), wk =   0.0658436
        k(   13) = (   0.0553710   0.3875969   0.3875969), wk =   0.0658436
        k(   14) = (   0.0553710   0.3875969  -0.4983389), wk =   0.0658436
        k(   15) = (   0.0553710  -0.4983389  -0.4983389), wk =   0.0164609
        k(   16) = (   0.1661130   0.1661130   0.1661130), wk =   0.0219479
        k(   17) = (   0.1661130   0.1661130   0.2768549), wk =   0.0658436
        k(   18) = (   0.1661130   0.1661130   0.3875969), wk =   0.0658436
        k(   19) = (   0.1661130   0.1661130  -0.4983389), wk =   0.0329218
        k(   20) = (   0.1661130   0.2768549   0.2768549), wk =   0.0658436
        k(   21) = (   0.1661130   0.2768549   0.3875969), wk =   0.1316872
        k(   22) = (   0.1661130   0.2768549  -0.4983389), wk =   0.0658436
        k(   23) = (   0.1661130   0.3875969   0.3875969), wk =   0.0658436
        k(   24) = (   0.1661130   0.3875969  -0.4983389), wk =   0.0658436
        k(   25) = (   0.1661130  -0.4983389  -0.4983389), wk =   0.0164609
        k(   26) = (   0.2768549   0.2768549   0.2768549), wk =   0.0219479
        k(   27) = (   0.2768549   0.2768549   0.3875969), wk =   0.0658436
        k(   28) = (   0.2768549   0.2768549  -0.4983389), wk =   0.0329218
        k(   29) = (   0.2768549   0.3875969   0.3875969), wk =   0.0658436
        k(   30) = (   0.2768549   0.3875969  -0.4983389), wk =   0.0658436
        k(   31) = (   0.2768549  -0.4983389  -0.4983389), wk =   0.0164609
        k(   32) = (   0.3875969   0.3875969   0.3875969), wk =   0.0219479
        k(   33) = (   0.3875969   0.3875969  -0.4983389), wk =   0.0329218
        k(   34) = (   0.3875969  -0.4983389  -0.4983389), wk =   0.0164609
        k(   35) = (  -0.4983389  -0.4983389  -0.4983389), wk =   0.0027435

     Dense  grid:   497463 G-vectors     FFT dimensions: ( 100, 100, 100)

     Smooth grid:   266795 G-vectors     FFT dimensions: (  80,  80,  80)

     Estimated max dynamical RAM per process >     546.95 MB

     Estimated total dynamical RAM >      10.68 GB

     Check: negative/imaginary core charge=   -0.000002    0.000000

     Initial potential from superposition of free atoms

     starting charge  575.98776, renormalised to  576.00000
     Starting wfcs are  320 randomized atomic wfcs +   26 random wfcs
     Checking if some PAW data can be deallocated... 

     total cpu time spent up to now is       21.5 secs

     Self-consistent Calculation

     iteration #  1     ecut=    71.00 Ry     beta= 0.10
     Davidson diagonalization with overlap
     ethr =  1.00E-02,  avg # of iterations =  3.1

     Threshold (ethr) on eigenvalues was too large:
     Diagonalizing with lowered threshold

     Davidson diagonalization with overlap
     ethr =  8.87E-05,  avg # of iterations =  3.0

     total cpu time spent up to now is      223.5 secs

     total energy              =  -16385.02509753 Ry
     Harris-Foulkes estimate   =  -16385.09734825 Ry
     estimated scf accuracy    <       0.50492212 Ry

     iteration #  2     ecut=    71.00 Ry     beta= 0.10
     Davidson diagonalization with overlap
     ethr =  8.77E-05,  avg # of iterations =  1.0

     total cpu time spent up to now is      285.8 secs

     total energy              =  -16384.92684753 Ry
     Harris-Foulkes estimate   =  -16385.03341025 Ry
     estimated scf accuracy    <       0.27271807 Ry

     iteration #  3     ecut=    71.00 Ry     beta= 0.10
     Davidson diagonalization with overlap
     ethr =  4.73E-05,  avg # of iterations =  2.2

     total cpu time spent up to now is      373.7 secs

     total energy              =  -16384.96395683 Ry
     Harris-Foulkes estimate   =  -16384.96810296 Ry
     estimated scf accuracy    <       0.05955386 Ry

     iteration #  4     ecut=    71.00 Ry     beta= 0.10
     Davidson diagonalization with overlap
     ethr =  1.03E-05,  avg # of iterations =  1.9

     total cpu time spent up to now is      447.1 secs

     total energy              =  -16384.96352942 Ry
     Harris-Foulkes estimate   =  -16384.96601730 Ry
     estimated scf accuracy    <       0.02231568 Ry

     iteration #  5     ecut=    71.00 Ry     beta= 0.10
     Davidson diagonalization with overlap
     ethr =  3.87E-06,  avg # of iterations =  1.3

     total cpu time spent up to now is      512.7 secs

     total energy              =  -16384.95864303 Ry
     Harris-Foulkes estimate   =  -16384.96373812 Ry
     estimated scf accuracy    <       0.01457237 Ry

     iteration #  6     ecut=    71.00 Ry     beta= 0.10
     Davidson diagonalization with overlap
     ethr =  2.53E-06,  avg # of iterations =  2.0

     total cpu time spent up to now is      593.4 secs

     total energy              =  -16384.95974792 Ry
     Harris-Foulkes estimate   =  -16384.95982197 Ry
     estimated scf accuracy    <       0.00015178 Ry

     iteration #  7     ecut=    71.00 Ry     beta= 0.10
     Davidson diagonalization with overlap
     ethr =  2.64E-08,  avg # of iterations =  3.0

     total cpu time spent up to now is      715.4 secs

     total energy              =  -16384.95980683 Ry
     Harris-Foulkes estimate   =  -16384.95980907 Ry
     estimated scf accuracy    <       0.00006014 Ry

     iteration #  8     ecut=    71.00 Ry     beta= 0.10
     Davidson diagonalization with overlap
     ethr =  1.04E-08,  avg # of iterations =  1.0

     total cpu time spent up to now is      777.5 secs

     total energy              =  -16384.95980206 Ry
     Harris-Foulkes estimate   =  -16384.95980989 Ry
     estimated scf accuracy    <       0.00004158 Ry

     iteration #  9     ecut=    71.00 Ry     beta= 0.10
     Davidson diagonalization with overlap
     ethr =  7.22E-09,  avg # of iterations =  2.0

     total cpu time spent up to now is      864.7 secs

     total energy              =  -16384.95981005 Ry
     Harris-Foulkes estimate   =  -16384.95980687 Ry
     estimated scf accuracy    <       0.00000762 Ry

     iteration # 10     ecut=    71.00 Ry     beta= 0.10
     Davidson diagonalization with overlap
     ethr =  1.32E-09,  avg # of iterations =  1.1

     total cpu time spent up to now is      927.9 secs

     End of self-consistent calculation

          k = 0.0554 0.0554 0.0554 ( 33329 PWs)   bands (ev):

   -65.0984 -65.0707 -65.0706 -65.0706 -65.0654 -65.0653 -65.0653 -65.0556
   -65.0555 -65.0554 -65.0533 -65.0529 -65.0528 -65.0527 -65.0526 -65.0525
   -65.0525 -65.0523 -65.0522 -65.0517 -65.0501 -65.0500 -65.0500 -65.0382
   -65.0377 -65.0377 -65.0375 -65.0374 -65.0373 -65.0372 -65.0372 -65.0367
   -30.9765 -30.9765 -30.9765 -30.9750 -30.9566 -30.9566 -30.9566 -30.8816
   -30.8815 -30.8815 -30.8773 -30.8773 -30.8773 -30.8773 -30.8773 -30.8772
   -30.8698 -30.8698 -30.8698 -30.8648 -30.8648 -30.8648 -30.8647 -30.8647
   -30.8647 -30.8468 -30.8468 -30.8468 -30.8467 -30.8467 -30.8467 -30.8071
   -30.8071 -30.8071 -30.7836 -30.7836 -30.7836 -30.7778 -30.7778 -30.7778
   -30.7688 -30.7687 -30.7687 -30.7687 -30.7687 -30.7687 -30.7542 -30.7542
   -30.7542 -30.7537 -30.7533 -30.7533 -30.7533 -30.7533 -30.7532 -30.7528
   -30.7528 -30.7525 -30.7512 -30.7512 -30.7511 -30.6902 -30.6901 -30.6901
   -30.6899 -30.6898 -30.6898 -30.6782 -30.6782 -30.6782 -30.6781 -30.6781
   -30.6780 -30.6749 -30.6749 -30.6748 -30.6709 -30.6705 -30.6705 -30.6699
   -30.6699 -30.6699 -30.6698 -30.6698 -30.6696 -30.6694 -30.6694 -30.6691
   -30.6684 -30.6684 -30.6631 -30.6631 -30.6630 -30.6190 -30.6168 -30.6168
    12.1103  13.8732  13.8732  13.8732  13.9353  13.9490  13.9490  13.9490
    14.1275  14.1277  14.1277  14.1441  14.1441  14.1441  14.3240  14.3241
    14.3241  14.8730  14.8730  14.8731  14.8731  14.8731  14.8733  15.0234
    15.0235  15.0235  15.1657  15.1657  15.1657  15.2072  15.2072  15.2072
    15.2483  15.2484  15.2484  15.2484  15.2484  15.2485  15.2512  15.2513
    15.2514  15.5906  15.5906  15.5906  15.5907  15.5907  15.5907  15.6962
    15.6963  15.6963  15.7181  15.7181  15.7181  15.7181  15.7182  15.7182
    15.7743  15.7744  15.7744  15.9412  15.9413  15.9413  15.9413  15.9413
    15.9413  16.0465  16.0466  16.0466  16.0511  16.0511  16.0512  16.0512
    16.0512  16.0514  16.1572  16.1573  16.1574  16.2192  16.2192  16.2192
    16.2398  16.2398  16.2502  16.2502  16.2503  16.2672  16.2863  16.2863
    17.0722  17.0722  17.0722  17.1321  17.1321  17.1322  17.2037  17.2038
    17.2038  17.2038  17.2038  17.2039  17.2097  17.2097  17.2098  17.2573
    17.2575  17.2575  17.3579  17.3579  17.3580  17.4749  17.4751  17.4751
    17.5980  17.5980  17.5982  17.6547  17.6547  17.6548  17.7278  17.7280
    17.7280  17.7280  17.7280  17.7280  17.7463  17.7464  17.7464  17.7919
    17.7919  17.8002  17.8002  17.8003  17.8003  17.8003  17.8004  17.9077
    17.9077  17.9078  18.2882  18.2882  18.2883  18.3883  18.3883  18.3884
    18.7677  18.7677  18.7677  18.8872  18.8872  18.8872  18.9136  18.9136
    18.9334  18.9334  18.9334  19.1602  19.1602  19.1602  19.2129  19.2130
    19.2130  19.2130  19.2130  19.2131  19.2161  19.2161  19.2162  19.9067
    20.2074  20.2074  20.2074  20.6996  20.6997  20.6997  21.2058  21.2058
    21.2058  21.2059  21.2059  21.2059  21.7313  21.7314  21.7314  22.3365
    22.3365  22.3365  26.0175  26.0175  26.0175  26.1743  27.1891  27.1891
    27.1891  27.1892  27.1892  27.1892  27.8771  27.8772  27.8772  27.8773
    27.8773  27.8773  29.2668  29.2668  29.2668  29.2668  29.2668  29.2669
    29.4142  29.4142  29.4142  30.3894  30.4322  30.4323  30.4323  30.4324
    30.4324  30.4325

          k = 0.0554 0.0554 0.1661 ( 33307 PWs)   bands (ev):

   -65.0975 -65.0759 -65.0702 -65.0701 -65.0649 -65.0649 -65.0601 -65.0584
   -65.0583 -65.0555 -65.0550 -65.0549 -65.0534 -65.0532 -65.0527 -65.0523
   -65.0520 -65.0517 -65.0501 -65.0497 -65.0496 -65.0477 -65.0477 -65.0385
   -65.0382 -65.0380 -65.0379 -65.0378 -65.0378 -65.0376 -65.0372 -65.0367
   -30.9738 -30.9722 -30.9722 -30.9689 -30.9535 -30.9535 -30.9519 -30.8926
   -30.8877 -30.8877 -30.8834 -30.8834 -30.8824 -30.8823 -30.8821 -30.8821
   -30.8799 -30.8708 -30.8708 -30.8684 -30.8683 -30.8636 -30.8635 -30.8600
   -30.8600 -30.8495 -30.8495 -30.8435 -30.8435 -30.8358 -30.8293 -30.8293
   -30.8116 -30.8116 -30.7983 -30.7983 -30.7837 -30.7837 -30.7829 -30.7829
   -30.7719 -30.7584 -30.7583 -30.7567 -30.7566 -30.7540 -30.7540 -30.7532
   -30.7531 -30.7509 -30.7508 -30.7507 -30.7493 -30.7485 -30.7481 -30.7481
   -30.7476 -30.7476 -30.7448 -30.7399 -30.7399 -30.7019 -30.7015 -30.6927
   -30.6927 -30.6873 -30.6872 -30.6820 -30.6820 -30.6806 -30.6806 -30.6788
   -30.6788 -30.6765 -30.6749 -30.6748 -30.6747 -30.6741 -30.6741 -30.6705
   -30.6704 -30.6703 -30.6699 -30.6696 -30.6690 -30.6673 -30.6672 -30.6671
   -30.6665 -30.6662 -30.6633 -30.6586 -30.6586 -30.6250 -30.6186 -30.6181
    12.1831  13.8289  13.9070  13.9190  13.9190  13.9629  13.9900  13.9900
    14.0033  14.1715  14.1784  14.1785  14.1857  14.1857  14.3755  14.3756
    14.3957  14.7883  14.7883  14.8477  14.9074  14.9075  14.9141  14.9142
    14.9375  15.0182  15.0182  15.0491  15.0492  15.0577  15.0608  15.0609
    15.2071  15.2072  15.2288  15.2288  15.2398  15.2399  15.2770  15.2770
    15.3206  15.3207  15.3938  15.5772  15.5773  15.5935  15.5936  15.6383
    15.6383  15.6479  15.6480  15.7068  15.7069  15.7936  15.7937  15.8092
    15.8541  15.8541  15.9000  15.9056  15.9057  15.9106  15.9106  15.9459
    15.9460  15.9910  15.9911  16.0207  16.0208  16.1793  16.1973  16.1973
    16.1993  16.1994  16.2188  16.2188  16.2314  16.2402  16.2625  16.2646
    16.2737  16.2858  16.2858  16.2936  16.3156  16.3182  16.3242  16.3242
    16.8840  16.8841  16.9937  16.9996  17.0183  17.0184  17.0724  17.0724
    17.0899  17.1341  17.1564  17.1564  17.2724  17.2848  17.2849  17.2978
    17.2979  17.3357  17.3358  17.3440  17.3440  17.5533  17.5534  17.5737
    17.5794  17.5795  17.6452  17.6453  17.7242  17.7242  17.7333  17.7333
    17.7334  17.7335  17.7520  17.8078  17.8105  17.8227  17.8228  17.8485
    17.9394  17.9394  17.9461  17.9461  17.9816  17.9816  18.0358  18.0530
    18.0531  18.0869  18.1915  18.3331  18.3332  18.4601  18.4601  18.4611
    18.4892  18.5114  18.5114  18.7211  18.8266  18.8266  18.8478  18.8641
    18.9065  18.9069  18.9069  18.9334  18.9334  19.0916  19.1428  19.1428
    19.1436  19.1436  19.1555  19.2120  19.2125  19.2130  19.2135  19.8912
    20.2398  20.2398  20.3716  20.3716  20.6006  20.6716  20.7197  20.7197
    21.1840  21.1840  21.7134  21.7700  21.7700  21.9747  22.3077  22.3078
    22.6227  22.6227  26.0166  26.1766  26.1766  26.4713  26.4773  26.4773
    26.4806  26.4806  27.0708  27.0708  27.3198  27.3199  28.0002  28.0004
    28.5121  28.5121  29.3147  29.3147  29.4009  29.4009  29.4324  29.5746
    29.5747  29.6528  29.6528  29.8652  29.8652  29.8684  29.9739  29.9739
    30.4115  30.4122

          k = 0.0554 0.0554 0.2769 ( 33317 PWs)   bands (ev):

   -65.0957 -65.0809 -65.0692 -65.0691 -65.0641 -65.0640 -65.0611 -65.0610
   -65.0573 -65.0572 -65.0553 -65.0551 -65.0538 -65.0532 -65.0527 -65.0523
   -65.0517 -65.0516 -65.0502 -65.0470 -65.0469 -65.0455 -65.0454 -65.0403
   -65.0389 -65.0389 -65.0387 -65.0386 -65.0382 -65.0376 -65.0373 -65.0367
   -30.9670 -30.9640 -30.9640 -30.9595 -30.9476 -30.9476 -30.9424 -30.9091
   -30.9036 -30.9036 -30.8988 -30.8988 -30.8958 -30.8849 -30.8848 -30.8829
   -30.8828 -30.8735 -30.8734 -30.8644 -30.8643 -30.8630 -30.8623 -30.8623
   -30.8503 -30.8503 -30.8483 -30.8482 -30.8378 -30.8378 -30.8198 -30.8198
   -30.8127 -30.8127 -30.8122 -30.8122 -30.7966 -30.7966 -30.7940 -30.7940
   -30.7629 -30.7629 -30.7543 -30.7530 -30.7529 -30.7511 -30.7508 -30.7467
   -30.7453 -30.7425 -30.7425 -30.7398 -30.7398 -30.7391 -30.7391 -30.7380
   -30.7380 -30.7301 -30.7262 -30.7262 -30.7203 -30.7133 -30.7125 -30.6979
   -30.6979 -30.6911 -30.6911 -30.6896 -30.6895 -30.6865 -30.6857 -30.6857
   -30.6825 -30.6824 -30.6821 -30.6820 -30.6763 -30.6743 -30.6713 -30.6705
   -30.6700 -30.6697 -30.6696 -30.6696 -30.6690 -30.6669 -30.6668 -30.6664
   -30.6635 -30.6567 -30.6566 -30.6554 -30.6549 -30.6358 -30.6227 -30.6217
    12.3269  13.4804  13.9720  14.0081  14.0081  14.0314  14.0715  14.0715
    14.0974  14.2259  14.2686  14.2686  14.2768  14.2769  14.3666  14.4751
    14.4752  14.6428  14.6428  14.6845  14.6936  14.7709  14.7709  14.8222
    14.9240  14.9241  14.9717  14.9719  14.9943  14.9944  14.9998  14.9998
    15.1002  15.1002  15.1078  15.1080  15.2231  15.2232  15.2709  15.2710
    15.3849  15.3850  15.5245  15.5245  15.5579  15.5579  15.5762  15.5763
    15.5775  15.5957  15.5958  15.6241  15.6242  15.7343  15.7344  15.8042
    15.8043  15.8560  15.8590  15.8590  15.9301  15.9301  15.9529  15.9530
    15.9589  15.9590  16.0245  16.0403  16.0403  16.1233  16.1562  16.1595
    16.1595  16.2191  16.2192  16.2220  16.3180  16.3523  16.3523  16.3687
    16.3793  16.3813  16.5298  16.5298  16.5473  16.5962  16.6819  16.6819
    16.7376  16.7376  16.7551  16.7552  16.8244  16.9022  16.9087  16.9088
    16.9257  16.9309  17.2236  17.2419  17.2419  17.3369  17.3369  17.4042
    17.4044  17.4199  17.4199  17.4772  17.4773  17.5076  17.5077  17.5697
    17.5699  17.6751  17.7113  17.7114  17.7119  17.7120  17.7355  17.7355
    17.7412  17.7413  17.8393  17.9366  17.9872  17.9873  18.0029  18.0029
    18.0131  18.0996  18.1006  18.1014  18.1413  18.1413  18.1465  18.1465
    18.1880  18.1880  18.2148  18.2302  18.2302  18.3071  18.4760  18.4761
    18.5384  18.5384  18.5497  18.5888  18.6863  18.6863  18.7342  18.7342
    18.7394  18.8147  18.8224  18.8224  18.8344  18.9593  19.0119  19.0119
    19.0131  19.0131  19.0439  19.2116  19.2121  19.2128  19.2132  19.8161
    19.8161  20.0555  20.2628  20.2629  20.5884  20.5884  20.6141  20.9642
    21.1373  21.1373  21.3661  21.6712  22.4017  22.4017  22.9453  22.9454
    23.1038  23.1038  25.6018  25.6019  25.7583  25.7583  26.1590  26.1590
    26.1878  26.4920  26.4920  26.8957  27.5656  27.5657  28.2360  28.2362
    28.5417  28.9991  28.9991  29.0853  29.0853  29.3382  29.3383  29.3747
    29.3747  29.4820  29.4820  29.6422  29.7398  29.7399  29.9059  29.9059
    29.9156  29.9157

          k = 0.0554 0.0554 0.3876 ( 33308 PWs)   bands (ev):

   -65.0930 -65.0855 -65.0678 -65.0677 -65.0636 -65.0635 -65.0629 -65.0628
   -65.0594 -65.0593 -65.0552 -65.0541 -65.0532 -65.0527 -65.0523 -65.0517
   -65.0513 -65.0504 -65.0503 -65.0445 -65.0444 -65.0434 -65.0433 -65.0429
   -65.0404 -65.0403 -65.0399 -65.0398 -65.0382 -65.0376 -65.0373 -65.0367
   -30.9566 -30.9524 -30.9524 -30.9467 -30.9388 -30.9388 -30.9281 -30.9266
   -30.9211 -30.9211 -30.9140 -30.9140 -30.9136 -30.8879 -30.8849 -30.8848
   -30.8801 -30.8800 -30.8787 -30.8786 -30.8695 -30.8694 -30.8523 -30.8522
   -30.8451 -30.8451 -30.8350 -30.8350 -30.8302 -30.8301 -30.8300 -30.8300
   -30.8251 -30.8251 -30.8092 -30.8092 -30.8070 -30.8070 -30.7972 -30.7972
   -30.7720 -30.7720 -30.7528 -30.7525 -30.7515 -30.7511 -30.7406 -30.7394
   -30.7350 -30.7275 -30.7275 -30.7268 -30.7268 -30.7263 -30.7263 -30.7249
   -30.7249 -30.7236 -30.7227 -30.7140 -30.7136 -30.7136 -30.7055 -30.7055
   -30.7019 -30.7019 -30.7018 -30.7017 -30.7001 -30.6942 -30.6935 -30.6935
   -30.6930 -30.6930 -30.6860 -30.6771 -30.6771 -30.6739 -30.6722 -30.6705
   -30.6699 -30.6696 -30.6690 -30.6686 -30.6685 -30.6655 -30.6643 -30.6642
   -30.6639 -30.6571 -30.6570 -30.6512 -30.6451 -30.6445 -30.6285 -30.6276
    12.5380  13.1300  14.0629  14.1356  14.1356  14.1404  14.1924  14.1924
    14.2295  14.2796  14.3061  14.3925  14.3925  14.4153  14.4154  14.4687
    14.4687  14.4743  14.5378  14.5454  14.5454  14.5970  14.6155  14.6156
    14.7586  14.7587  14.7594  14.7594  14.9575  14.9576  15.0554  15.0555
    15.1098  15.1099  15.1756  15.1757  15.1942  15.1943  15.3315  15.3315
    15.3870  15.3871  15.3940  15.3941  15.4915  15.4916  15.5298  15.5298
    15.5470  15.5470  15.5881  15.5882  15.6346  15.6347  15.7520  15.7740
    15.7741  15.8055  15.8055  15.9158  15.9590  15.9591  15.9597  15.9598
    15.9908  15.9908  16.0475  16.0562  16.0913  16.1091  16.1091  16.1404
    16.1405  16.1885  16.2680  16.2681  16.4048  16.4489  16.4490  16.4736
    16.4741  16.4754  16.5042  16.5043  16.5122  16.5123  16.6627  16.7072
    16.7072  16.7466  16.7518  16.7586  16.9384  16.9414  16.9414  16.9558
    17.1768  17.1768  17.3064  17.3065  17.3129  17.3308  17.3308  17.4987
    17.4989  17.5350  17.5351  17.5430  17.5432  17.5585  17.5586  17.5678
    17.5959  17.5959  17.6807  17.6808  17.7182  17.7213  17.7213  17.7234
    17.7235  17.7414  17.7415  17.7526  17.7526  17.8407  17.8857  17.9495
    17.9495  18.0180  18.0963  18.0963  18.1873  18.1873  18.2210  18.2608
    18.3422  18.3422  18.3459  18.4009  18.4078  18.4079  18.4289  18.4290
    18.5796  18.5796  18.5938  18.6864  18.6935  18.6935  18.7213  18.7241
    18.7324  18.7325  18.7718  18.8358  18.8358  18.8368  18.8368  18.9070
    19.0270  19.0271  19.1640  19.2115  19.2121  19.2126  19.2131  19.4222
    19.4223  19.8286  19.8287  20.2401  20.5243  20.6378  20.7875  20.7875
    21.0602  21.0602  21.2540  21.5927  23.1060  23.1061  23.6510  23.6511
    23.6963  23.6963  24.7200  24.7200  25.0455  25.0455  25.2666  25.2666
    26.5400  26.9562  26.9562  27.4369  27.7432  27.9131  27.9132  28.2723
    28.2723  28.5677  28.5678  28.8225  28.8226  28.8237  29.2014  29.2014
    29.3360  29.3360  29.4307  29.4308  29.8830  29.8831  29.8867  29.8868
    30.1083  30.1084

          k = 0.0554 0.0554-0.4983 ( 33330 PWs)   bands (ev):

   -65.0900 -65.0892 -65.0662 -65.0661 -65.0655 -65.0654 -65.0617 -65.0616
   -65.0609 -65.0608 -65.0551 -65.0543 -65.0532 -65.0527 -65.0523 -65.0517
   -65.0512 -65.0504 -65.0467 -65.0460 -65.0426 -65.0426 -65.0419 -65.0419
   -65.0418 -65.0418 -65.0411 -65.0410 -65.0382 -65.0376 -65.0373 -65.0367
   -30.9430 -30.9426 -30.9384 -30.9381 -30.9376 -30.9373 -30.9312 -30.9308
   -30.9279 -30.9279 -30.9271 -30.9271 -30.9102 -30.9095 -30.8829 -30.8828
   -30.8826 -30.8825 -30.8755 -30.8755 -30.8753 -30.8753 -30.8415 -30.8415
   -30.8411 -30.8411 -30.8366 -30.8366 -30.8359 -30.8359 -30.8212 -30.8212
   -30.8209 -30.8209 -30.8208 -30.8208 -30.8201 -30.8201 -30.7839 -30.7839
   -30.7831 -30.7831 -30.7526 -30.7521 -30.7517 -30.7512 -30.7333 -30.7325
   -30.7322 -30.7314 -30.7167 -30.7164 -30.7156 -30.7156 -30.7149 -30.7149
   -30.7148 -30.7148 -30.7145 -30.7145 -30.7141 -30.7141 -30.7138 -30.7137
   -30.7087 -30.7084 -30.7079 -30.7076 -30.7028 -30.7028 -30.7020 -30.7020
   -30.6989 -30.6986 -30.6735 -30.6727 -30.6725 -30.6724 -30.6721 -30.6720
   -30.6712 -30.6706 -30.6705 -30.6699 -30.6696 -30.6690 -30.6650 -30.6642
   -30.6600 -30.6599 -30.6597 -30.6596 -30.6365 -30.6357 -30.6356 -30.6349
    12.8090  12.8099  14.1701  14.1708  14.2886  14.2887  14.2926  14.2932
    14.2934  14.2940  14.3508  14.3508  14.3516  14.3517  14.3973  14.3974
    14.4104  14.4112  14.5562  14.5562  14.5570  14.5570  14.5815  14.5816
    14.5822  14.5823  14.7831  14.7832  14.7838  14.7840  15.1374  15.1375
    15.1377  15.1378  15.2517  15.2518  15.2524  15.2525  15.2740  15.2741
    15.2747  15.2747  15.4066  15.4067  15.4072  15.4073  15.5580  15.5580
    15.5582  15.5582  15.5661  15.5662  15.5663  15.5663  15.7743  15.7744
    15.7744  15.7745  15.9104  15.9112  15.9614  15.9615  15.9621  15.9621
    15.9844  15.9850  16.0505  16.0509  16.0512  16.0517  16.1437  16.1442
    16.3033  16.3034  16.3035  16.3035  16.3636  16.3636  16.3637  16.3638
    16.5208  16.5210  16.5719  16.5721  16.5726  16.5729  16.5978  16.5985
    16.5989  16.5997  16.6051  16.6054  17.3242  17.3242  17.3248  17.3248
    17.3297  17.3298  17.3300  17.3301  17.3332  17.3335  17.3769  17.3771
    17.4404  17.4411  17.5404  17.5405  17.5410  17.5412  17.6232  17.6232
    17.6238  17.6239  17.6337  17.6337  17.6342  17.6342  17.6385  17.6386
    17.6391  17.6393  17.6772  17.6773  17.6779  17.6779  17.8493  17.8493
    17.8500  17.8500  17.9453  17.9461  18.3919  18.3923  18.3927  18.3931
    18.4180  18.4182  18.5297  18.5299  18.5304  18.5306  18.5371  18.5379
    18.5638  18.5641  18.5738  18.5740  18.6283  18.6283  18.6289  18.6289
    18.6361  18.6362  18.6367  18.6367  18.7865  18.7868  19.0577  19.0577
    19.0578  19.0579  19.2115  19.2122  19.2125  19.2131  19.4150  19.4150
    19.4151  19.4152  19.8810  19.8817  20.3992  20.4000  20.9451  20.9451
    20.9459  20.9459  21.4596  21.4603  23.8815  23.8815  23.8818  23.8819
    24.3522  24.3522  24.3528  24.3528  24.4262  24.4262  24.4265  24.4265
    27.0660  27.0661  27.5553  27.5555  27.5561  27.5563  28.0838  28.0839
    28.3394  28.3394  28.3401  28.3402  28.9733  28.9735  28.9741  28.9742
    29.2823  29.2827  29.2831  29.2834  30.0552  30.0552  30.0561  30.0561
    30.3381  30.3385

          k = 0.0554 0.1661 0.1661 ( 33347 PWs)   bands (ev):

   -65.0966 -65.0753 -65.0753 -65.0697 -65.0645 -65.0616 -65.0598 -65.0597
   -65.0582 -65.0581 -65.0550 -65.0548 -65.0543 -65.0529 -65.0518 -65.0518
   -65.0515 -65.0514 -65.0498 -65.0496 -65.0479 -65.0478 -65.0458 -65.0388
   -65.0386 -65.0383 -65.0382 -65.0381 -65.0380 -65.0378 -65.0377 -65.0370
   -30.9712 -30.9712 -30.9666 -30.9619 -30.9505 -30.9491 -30.9491 -30.8953
   -30.8953 -30.8929 -30.8928 -30.8840 -30.8839 -30.8824 -30.8804 -30.8804
   -30.8798 -30.8797 -30.8792 -30.8792 -30.8718 -30.8717 -30.8696 -30.8696
   -30.8470 -30.8410 -30.8410 -30.8390 -30.8390 -30.8345 -30.8345 -30.8266
   -30.8265 -30.8166 -30.8133 -30.7899 -30.7853 -30.7853 -30.7720 -30.7720
   -30.7678 -30.7678 -30.7624 -30.7558 -30.7557 -30.7545 -30.7544 -30.7491
   -30.7489 -30.7487 -30.7485 -30.7481 -30.7470 -30.7470 -30.7450 -30.7450
   -30.7434 -30.7434 -30.7314 -30.7314 -30.7260 -30.7045 -30.7045 -30.6993
   -30.6993 -30.6903 -30.6888 -30.6875 -30.6818 -30.6817 -30.6815 -30.6814
   -30.6787 -30.6787 -30.6777 -30.6777 -30.6773 -30.6768 -30.6735 -30.6724
   -30.6724 -30.6712 -30.6689 -30.6689 -30.6682 -30.6674 -30.6674 -30.6673
   -30.6627 -30.6627 -30.6589 -30.6589 -30.6524 -30.6326 -30.6207 -30.6178
    12.2550  13.8810  13.8811  13.9530  13.9530  13.9601  13.9753  14.0162
    14.0559  14.0559  14.2126  14.2126  14.2188  14.2303  14.4135  14.4475
    14.4476  14.8101  14.8102  14.8302  14.8303  14.8503  14.8503  14.8772
    14.8772  14.8911  14.9478  14.9478  14.9634  14.9634  15.0863  15.0901
    15.0902  15.0981  15.0981  15.1503  15.2602  15.2885  15.2885  15.2948
    15.2948  15.3217  15.3217  15.4110  15.4110  15.5527  15.5527  15.6343
    15.6343  15.6455  15.7403  15.7404  15.7554  15.7555  15.8156  15.8157
    15.8256  15.8842  15.8842  15.8932  15.8932  15.9466  15.9466  16.0433
    16.0918  16.0919  16.1357  16.1357  16.1428  16.1429  16.1891  16.2120
    16.2484  16.2486  16.2489  16.2526  16.2527  16.2696  16.2697  16.2869
    16.3181  16.3181  16.3186  16.3195  16.3301  16.3419  16.3420  16.3468
    16.7856  16.8431  16.8431  16.8932  16.9980  16.9980  17.1041  17.1248
    17.1249  17.1253  17.1253  17.1826  17.1827  17.2055  17.2056  17.2594
    17.2663  17.2664  17.3458  17.4166  17.4265  17.4266  17.4463  17.4464
    17.4685  17.7197  17.7197  17.7359  17.7360  17.7409  17.7981  17.8101
    17.8102  17.8259  17.8260  17.8269  17.8358  17.8359  17.9150  17.9151
    17.9428  17.9428  18.1193  18.1193  18.1591  18.1706  18.1706  18.1752
    18.2177  18.2178  18.2192  18.2193  18.2790  18.2791  18.3125  18.3485
    18.4695  18.5791  18.6277  18.6277  18.7593  18.7593  18.7598  18.7766
    18.8720  18.9034  18.9034  18.9191  18.9191  18.9301  19.0857  19.0857
    19.1421  19.1421  19.1445  19.1445  19.1542  19.1542  19.1765  19.6107
    19.8123  20.2089  20.2089  20.2690  20.6965  20.6966  20.8923  20.8923
    21.2640  21.2640  21.7580  21.7580  22.2595  22.2595  22.2964  22.2964
    22.8806  22.8887  25.8592  25.8592  26.0149  26.0149  26.4779  26.5687
    26.5687  26.6117  26.6118  26.8774  27.1966  27.1966  27.6346  27.6347
    28.6389  28.6389  28.9152  28.9152  29.3065  29.3834  29.4520  29.4520
    29.5332  29.5332  29.7642  29.7643  29.8592  29.8592  30.2549  30.2549
    30.5432  30.5487

          k = 0.0554 0.1661 0.2769 ( 33325 PWs)   bands (ev):

   -65.0948 -65.0802 -65.0742 -65.0687 -65.0648 -65.0637 -65.0608 -65.0591
   -65.0579 -65.0571 -65.0552 -65.0548 -65.0548 -65.0535 -65.0533 -65.0512
   -65.0507 -65.0498 -65.0485 -65.0481 -65.0471 -65.0457 -65.0439 -65.0402
   -65.0393 -65.0392 -65.0391 -65.0388 -65.0384 -65.0381 -65.0377 -65.0370
   -30.9660 -30.9646 -30.9573 -30.9513 -30.9446 -30.9435 -30.9401 -30.9120
   -30.9086 -30.8989 -30.8961 -30.8957 -30.8955 -30.8953 -30.8863 -30.8853
   -30.8850 -30.8800 -30.8793 -30.8773 -30.8754 -30.8741 -30.8711 -30.8649
   -30.8575 -30.8448 -30.8422 -30.8360 -30.8322 -30.8311 -30.8273 -30.8254
   -30.8212 -30.8192 -30.8100 -30.8007 -30.7981 -30.7852 -30.7810 -30.7702
   -30.7680 -30.7663 -30.7607 -30.7552 -30.7532 -30.7501 -30.7492 -30.7485
   -30.7467 -30.7462 -30.7448 -30.7401 -30.7372 -30.7354 -30.7349 -30.7322
   -30.7309 -30.7285 -30.7188 -30.7182 -30.7159 -30.7128 -30.7109 -30.7099
   -30.6955 -30.6946 -30.6944 -30.6929 -30.6906 -30.6904 -30.6899 -30.6890
   -30.6844 -30.6817 -30.6810 -30.6788 -30.6787 -30.6781 -30.6747 -30.6742
   -30.6737 -30.6719 -30.6716 -30.6708 -30.6677 -30.6672 -30.6656 -30.6596
   -30.6576 -30.6574 -30.6572 -30.6512 -30.6486 -30.6447 -30.6246 -30.6199
    12.3970  13.5358  13.9823  14.0185  14.0277  14.0406  14.0426  14.0819
    14.1468  14.1591  14.2661  14.2947  14.2952  14.3188  14.4176  14.4848
    14.5482  14.6226  14.6528  14.6830  14.7014  14.7173  14.7217  14.7513
    14.8490  14.8563  14.8792  14.8879  14.9125  14.9362  15.0100  15.0164
    15.0267  15.0428  15.0721  15.1209  15.1617  15.1809  15.2098  15.3109
    15.3231  15.3351  15.3749  15.4437  15.4803  15.4965  15.5043  15.5901
    15.5996  15.6107  15.6247  15.6409  15.6862  15.7514  15.7604  15.8039
    15.8053  15.8164  15.9033  15.9526  15.9967  15.9985  16.0509  16.0602
    16.0761  16.0780  16.0898  16.1157  16.1482  16.1671  16.1722  16.2047
    16.2317  16.2474  16.3045  16.3347  16.3594  16.3772  16.3806  16.3842
    16.4051  16.4226  16.4285  16.4413  16.4562  16.5574  16.6358  16.6661
    16.6892  16.6967  16.7207  16.8091  16.8293  16.9257  16.9366  16.9511
    17.0207  17.0377  17.0487  17.1207  17.1259  17.2003  17.2068  17.3102
    17.3240  17.3455  17.3521  17.4028  17.4475  17.5293  17.5814  17.5854
    17.6022  17.6762  17.6885  17.7035  17.7336  17.7819  17.8144  17.8239
    17.8495  17.8965  17.8997  17.9376  17.9441  17.9556  17.9564  17.9665
    17.9800  18.0052  18.0764  18.1152  18.1367  18.1688  18.2048  18.2631
    18.2725  18.2993  18.3045  18.3071  18.3114  18.3321  18.3371  18.4246
    18.4318  18.4525  18.5448  18.6268  18.6551  18.6768  18.7529  18.7682
    18.8389  18.8770  18.8779  18.8823  18.9692  18.9789  18.9797  18.9882
    19.0120  19.0152  19.0499  19.1417  19.1455  19.1517  19.1561  19.4266
    19.6370  19.7846  20.1467  20.2403  20.2925  20.6498  20.7799  21.1761
    21.3735  21.6547  21.7286  21.8819  22.2630  22.4029  22.7299  22.9433
    23.3273  23.5242  25.0294  25.2172  25.6704  25.9027  26.0180  26.1775
    26.1884  26.6884  26.8754  26.8951  26.9067  27.3823  27.4057  28.0299
    28.1617  28.4218  28.5590  28.7444  28.8689  28.9572  29.1919  29.3427
    29.5309  29.6309  29.6622  29.8396  29.9126  30.1375  30.2300  30.2481
    30.4753  30.5693

          k = 0.0554 0.1661 0.3876 ( 33338 PWs)   bands (ev):

   -65.0922 -65.0848 -65.0725 -65.0677 -65.0673 -65.0632 -65.0625 -65.0591
   -65.0581 -65.0575 -65.0559 -65.0552 -65.0547 -65.0536 -65.0509 -65.0503
   -65.0500 -65.0499 -65.0485 -65.0456 -65.0447 -65.0437 -65.0428 -65.0422
   -65.0408 -65.0407 -65.0403 -65.0394 -65.0388 -65.0381 -65.0377 -65.0370
   -30.9570 -30.9545 -30.9449 -30.9374 -30.9359 -30.9354 -30.9291 -30.9266
   -30.9254 -30.9129 -30.9128 -30.9112 -30.9032 -30.8951 -30.8933 -30.8888
   -30.8885 -30.8883 -30.8871 -30.8835 -30.8746 -30.8705 -30.8675 -30.8602
   -30.8521 -30.8488 -30.8436 -30.8397 -30.8364 -30.8291 -30.8208 -30.8162
   -30.8144 -30.8137 -30.8098 -30.8046 -30.7978 -30.7947 -30.7933 -30.7831
   -30.7798 -30.7697 -30.7493 -30.7486 -30.7461 -30.7458 -30.7456 -30.7439
   -30.7398 -30.7387 -30.7367 -30.7290 -30.7266 -30.7258 -30.7250 -30.7241
   -30.7216 -30.7204 -30.7178 -30.7154 -30.7081 -30.7072 -30.7038 -30.7038
   -30.7033 -30.7032 -30.7029 -30.7012 -30.7009 -30.7008 -30.7006 -30.6904
   -30.6884 -30.6881 -30.6813 -30.6807 -30.6799 -30.6796 -30.6786 -30.6776
   -30.6767 -30.6755 -30.6699 -30.6693 -30.6681 -30.6658 -30.6638 -30.6607
   -30.6606 -30.6579 -30.6522 -30.6474 -30.6473 -30.6408 -30.6305 -30.6248
    12.6054  13.1897  14.1102  14.1199  14.1264  14.1571  14.1709  14.1866
    14.2748  14.2974  14.3292  14.3451  14.3989  14.4173  14.4198  14.4490
    14.4750  14.5007  14.5068  14.5085  14.5731  14.5800  14.6331  14.6390
    14.6646  14.6910  14.7797  14.7934  14.8166  14.8972  15.0066  15.0249
    15.0317  15.0453  15.0860  15.1405  15.1457  15.2670  15.2770  15.2992
    15.3287  15.3425  15.4046  15.4176  15.4356  15.4452  15.4456  15.4520
    15.4880  15.5310  15.5867  15.6164  15.6287  15.6836  15.7600  15.7828
    15.8170  15.8644  15.9678  15.9767  16.0069  16.0297  16.0459  16.0478
    16.0481  16.0530  16.0992  16.1343  16.1493  16.1550  16.1644  16.1871
    16.2333  16.2696  16.2805  16.4104  16.4147  16.4699  16.4754  16.4846
    16.4893  16.4906  16.5317  16.5433  16.5631  16.6262  16.6331  16.6411
    16.7168  16.7318  16.7493  16.8197  16.8516  16.8746  16.9138  16.9332
    17.0915  17.0989  17.1205  17.1394  17.1462  17.1710  17.2658  17.3568
    17.3587  17.3773  17.4387  17.4864  17.5354  17.5524  17.5604  17.5629
    17.5760  17.5901  17.6332  17.6644  17.7036  17.7269  17.7329  17.7430
    17.7917  17.7983  17.8456  17.8738  17.9015  17.9512  17.9777  17.9906
    18.0201  18.0217  18.0230  18.1584  18.1769  18.1790  18.2071  18.2133
    18.3208  18.3596  18.4007  18.4349  18.4679  18.4909  18.4939  18.4987
    18.5040  18.5087  18.5330  18.5939  18.5975  18.6944  18.7000  18.7230
    18.7469  18.7904  18.7923  18.8373  18.8377  18.8379  18.8422  18.9276
    19.0040  19.0765  19.1420  19.1464  19.1475  19.1496  19.3909  19.4109
    19.5314  19.7808  19.8075  20.0529  20.3111  20.3828  20.5792  20.9404
    21.4067  21.6710  21.7613  22.1849  22.5767  23.1227  23.2999  23.6598
    23.8913  24.1704  24.2226  24.5664  24.7704  25.2025  25.2952  25.8173
    26.2207  26.5452  27.1579  27.2439  27.2565  27.4515  27.7037  27.7576
    27.9567  27.9778  28.1985  28.4943  28.6485  28.8425  29.1879  29.2548
    29.4110  29.5701  29.5812  29.7267  29.8046  30.0113  30.0207  30.0998
    30.1554  30.4158

          k = 0.0554 0.1661-0.4983 ( 33340 PWs)   bands (ev):

   -65.0892 -65.0884 -65.0707 -65.0699 -65.0658 -65.0650 -65.0613 -65.0606
   -65.0572 -65.0571 -65.0564 -65.0564 -65.0546 -65.0538 -65.0508 -65.0500
   -65.0496 -65.0488 -65.0466 -65.0458 -65.0434 -65.0429 -65.0426 -65.0422
   -65.0421 -65.0414 -65.0411 -65.0403 -65.0388 -65.0381 -65.0377 -65.0370
   -30.9446 -30.9443 -30.9413 -30.9409 -30.9299 -30.9296 -30.9255 -30.9250
   -30.9248 -30.9242 -30.9212 -30.9209 -30.9097 -30.9089 -30.8924 -30.8922
   -30.8897 -30.8893 -30.8892 -30.8892 -30.8700 -30.8699 -30.8603 -30.8598
   -30.8487 -30.8486 -30.8483 -30.8482 -30.8292 -30.8288 -30.8205 -30.8201
   -30.8100 -30.8094 -30.8047 -30.8039 -30.7997 -30.7995 -30.7916 -30.7912
   -30.7815 -30.7807 -30.7493 -30.7486 -30.7459 -30.7454 -30.7364 -30.7356
   -30.7313 -30.7305 -30.7282 -30.7275 -30.7260 -30.7258 -30.7190 -30.7187
   -30.7165 -30.7161 -30.7144 -30.7142 -30.7133 -30.7129 -30.7127 -30.7123
   -30.7103 -30.7096 -30.7008 -30.7005 -30.6974 -30.6966 -30.6908 -30.6904
   -30.6902 -30.6894 -30.6858 -30.6853 -30.6808 -30.6804 -30.6788 -30.6781
   -30.6769 -30.6762 -30.6734 -30.6731 -30.6693 -30.6686 -30.6624 -30.6617
   -30.6611 -30.6608 -30.6489 -30.6486 -30.6386 -30.6378 -30.6321 -30.6316
    12.8728  12.8738  14.2184  14.2191  14.2510  14.2511  14.3033  14.3041
    14.3043  14.3050  14.3293  14.3293  14.3293  14.3301  14.4378  14.4378
    14.4477  14.4485  14.4675  14.4676  14.5177  14.5183  14.5791  14.5799
    14.6165  14.6171  14.6869  14.6874  14.8632  14.8639  14.9496  14.9498
    15.1413  15.1415  15.1448  15.1453  15.1801  15.1809  15.2827  15.2834
    15.3541  15.3542  15.3820  15.3827  15.4310  15.4313  15.4555  15.4558
    15.5053  15.5053  15.5380  15.5386  15.5410  15.5414  15.8924  15.8930
    15.9123  15.9129  15.9138  15.9145  15.9338  15.9344  15.9935  15.9936
    16.0932  16.0937  16.1050  16.1054  16.2053  16.2058  16.2421  16.2427
    16.3015  16.3016  16.3447  16.3447  16.3579  16.3581  16.4718  16.4719
    16.5150  16.5152  16.5813  16.5816  16.5966  16.5973  16.5997  16.6004
    16.6616  16.6618  16.6821  16.6824  17.1275  17.1281  17.1375  17.1380
    17.1893  17.1895  17.2007  17.2009  17.2263  17.2266  17.2753  17.2755
    17.3162  17.3168  17.4597  17.4604  17.4670  17.4676  17.5372  17.5376
    17.5491  17.5497  17.5851  17.5855  17.5925  17.5931  17.6586  17.6593
    17.7684  17.7691  17.8077  17.8083  17.8772  17.8779  17.9402  17.9409
    18.0688  18.0695  18.1181  18.1188  18.1903  18.1909  18.3546  18.3553
    18.3943  18.3944  18.4114  18.4121  18.5438  18.5441  18.5678  18.5678
    18.6277  18.6284  18.6539  18.6544  18.6580  18.6581  18.6640  18.6642
    18.6724  18.6729  18.6750  18.6755  18.7629  18.7631  18.8119  18.8121
    19.0261  19.0263  19.1432  19.1439  19.1475  19.1483  19.3945  19.3947
    19.8544  19.8546  19.9283  19.9291  20.2099  20.2106  20.4867  20.4874
    21.5688  21.5695  22.0283  22.0290  23.3438  23.3442  23.9148  23.9151
    23.9209  23.9215  24.4461  24.4463  24.5255  24.5261  24.9876  24.9878
    26.6395  26.6396  27.0762  27.0764  27.5296  27.5303  27.6905  27.6912
    28.0716  28.0724  28.1008  28.1010  28.6567  28.6568  29.0417  29.0420
    29.5756  29.5764  29.7361  29.7365  29.7414  29.7421  29.8511  29.8520
    30.7105  30.7119

          k = 0.0554 0.2769 0.2769 ( 33305 PWs)   bands (ev):

   -65.0931 -65.0790 -65.0789 -65.0683 -65.0678 -65.0629 -65.0604 -65.0603
   -65.0569 -65.0567 -65.0565 -65.0543 -65.0542 -65.0542 -65.0501 -65.0500
   -65.0498 -65.0497 -65.0474 -65.0473 -65.0461 -65.0460 -65.0425 -65.0404
   -65.0403 -65.0400 -65.0399 -65.0394 -65.0393 -65.0383 -65.0382 -65.0373
   -30.9610 -30.9610 -30.9473 -30.9396 -30.9386 -30.9356 -30.9356 -30.9121
   -30.9121 -30.9106 -30.9105 -30.8988 -30.8987 -30.8911 -30.8910 -30.8887
   -30.8887 -30.8854 -30.8854 -30.8836 -30.8836 -30.8746 -30.8725 -30.8725
   -30.8682 -30.8682 -30.8409 -30.8352 -30.8288 -30.8288 -30.8218 -30.8218
   -30.8147 -30.8125 -30.8050 -30.8049 -30.7795 -30.7782 -30.7781 -30.7681
   -30.7680 -30.7661 -30.7661 -30.7563 -30.7563 -30.7444 -30.7444 -30.7426
   -30.7423 -30.7423 -30.7412 -30.7411 -30.7368 -30.7367 -30.7287 -30.7287
   -30.7215 -30.7214 -30.7200 -30.7200 -30.7077 -30.7077 -30.7072 -30.7071
   -30.7024 -30.7023 -30.7002 -30.7000 -30.6918 -30.6918 -30.6900 -30.6893
   -30.6891 -30.6881 -30.6881 -30.6868 -30.6785 -30.6785 -30.6772 -30.6760
   -30.6748 -30.6740 -30.6689 -30.6680 -30.6680 -30.6674 -30.6622 -30.6622
   -30.6583 -30.6583 -30.6583 -30.6460 -30.6460 -30.6431 -30.6287 -30.6201
    12.5354  13.6442  13.6443  14.0611  14.1062  14.1091  14.1091  14.1289
    14.2557  14.2557  14.3296  14.3465  14.3465  14.4159  14.4618  14.5050
    14.5167  14.5168  14.5558  14.5558  14.6723  14.6723  14.6751  14.6752
    14.7611  14.7612  14.7828  14.7829  14.9449  14.9450  14.9463  14.9508
    14.9509  15.0493  15.0494  15.0835  15.0835  15.1251  15.1252  15.2022
    15.2022  15.2805  15.3970  15.3970  15.4023  15.4023  15.4262  15.6126
    15.6127  15.6420  15.6421  15.6537  15.6538  15.6576  15.6667  15.9071
    15.9071  15.9804  15.9804  16.0654  16.0654  16.0696  16.0696  16.1103
    16.1133  16.1133  16.1398  16.1399  16.1587  16.2512  16.2770  16.2849
    16.2850  16.3738  16.3739  16.3872  16.4164  16.4413  16.4529  16.4779
    16.4779  16.4792  16.5231  16.5231  16.5395  16.5396  16.5502  16.5850
    16.6847  16.6847  16.7072  16.7073  16.8714  16.8715  16.9246  16.9246
    17.0053  17.0053  17.0577  17.0968  17.1486  17.1488  17.1791  17.1793
    17.1972  17.1974  17.2636  17.2681  17.4085  17.4086  17.5381  17.6269
    17.6269  17.6392  17.6392  17.6478  17.6769  17.7562  17.7562  17.8268
    17.8738  17.9233  17.9233  17.9775  17.9776  18.0241  18.0242  18.0628
    18.0629  18.1716  18.1716  18.1722  18.1723  18.1946  18.1947  18.1961
    18.1989  18.2486  18.2486  18.3991  18.4412  18.4676  18.4677  18.4749
    18.4750  18.4773  18.4773  18.5779  18.5801  18.6219  18.7379  18.7379
    18.8109  18.8873  18.8873  18.9030  18.9180  18.9180  19.0144  19.0144
    19.0180  19.0180  19.0409  19.0409  19.0827  19.0953  19.4076  19.4289
    19.4289  19.7222  19.7222  20.1110  20.1971  20.1971  21.3768  21.3768
    21.7586  21.7586  22.1166  22.1166  22.3956  22.3956  22.9207  22.9207
    23.7279  24.1500  24.4419  24.4419  25.6920  25.6920  26.0182  26.0182
    26.1758  26.1758  26.6311  26.6311  27.2644  27.2646  27.4181  27.5517
    27.5517  27.9437  28.0656  28.0656  28.1507  29.2349  29.4416  29.4416
    29.5689  29.5690  30.0088  30.0105  30.2751  30.2752  30.4297  30.4297
    30.6291  30.6291

          k = 0.0554 0.2769 0.3876 ( 33359 PWs)   bands (ev):

   -65.0905 -65.0833 -65.0771 -65.0716 -65.0665 -65.0626 -65.0618 -65.0597
   -65.0586 -65.0576 -65.0564 -65.0549 -65.0535 -65.0512 -65.0499 -65.0492
   -65.0487 -65.0477 -65.0467 -65.0466 -65.0451 -65.0443 -65.0427 -65.0413
   -65.0413 -65.0412 -65.0411 -65.0403 -65.0394 -65.0389 -65.0382 -65.0374
   -30.9536 -30.9525 -30.9343 -30.9301 -30.9289 -30.9284 -30.9264 -30.9249
   -30.9236 -30.9103 -30.9096 -30.9095 -30.9058 -30.9021 -30.8983 -30.8979
   -30.8972 -30.8906 -30.8902 -30.8895 -30.8839 -30.8806 -30.8736 -30.8725
   -30.8713 -30.8581 -30.8495 -30.8475 -30.8391 -30.8270 -30.8154 -30.8117
   -30.8080 -30.7977 -30.7963 -30.7904 -30.7899 -30.7898 -30.7812 -30.7780
   -30.7652 -30.7592 -30.7570 -30.7522 -30.7499 -30.7494 -30.7439 -30.7423
   -30.7396 -30.7378 -30.7369 -30.7323 -30.7309 -30.7296 -30.7262 -30.7203
   -30.7197 -30.7192 -30.7180 -30.7180 -30.7153 -30.7101 -30.7075 -30.7066
   -30.7053 -30.7035 -30.6991 -30.6990 -30.6972 -30.6949 -30.6946 -30.6942
   -30.6883 -30.6875 -30.6866 -30.6836 -30.6821 -30.6818 -30.6814 -30.6811
   -30.6754 -30.6742 -30.6728 -30.6707 -30.6693 -30.6690 -30.6688 -30.6649
   -30.6600 -30.6596 -30.6518 -30.6417 -30.6400 -30.6362 -30.6347 -30.6228
    12.7383  13.3070  13.8006  14.1317  14.2023  14.2054  14.2122  14.2218
    14.2390  14.3764  14.3815  14.3856  14.3953  14.4230  14.4258  14.4665
    14.4853  14.4920  14.4967  14.5361  14.5541  14.5804  14.6231  14.6438
    14.6578  14.7128  14.7365  14.7491  14.8201  14.8457  14.8721  14.8822
    14.9197  15.0156  15.0195  15.0534  15.0987  15.1257  15.1297  15.1792
    15.1918  15.2408  15.2689  15.3049  15.3425  15.4490  15.4953  15.5126
    15.5303  15.5766  15.6391  15.6695  15.6979  15.7210  15.7715  15.8794
    15.8913  15.8921  15.9732  16.0295  16.0353  16.0943  16.1390  16.1422
    16.1756  16.1777  16.1827  16.2200  16.2503  16.2713  16.2932  16.3794
    16.3851  16.4219  16.4430  16.4457  16.4593  16.4851  16.4915  16.5213
    16.5268  16.5301  16.5435  16.6255  16.6258  16.6455  16.6503  16.6679
    16.6762  16.7516  16.7544  16.7577  16.8316  16.8508  16.9169  16.9315
    16.9428  16.9788  16.9996  17.0111  17.0207  17.0588  17.0815  17.1783
    17.2871  17.2911  17.3145  17.3210  17.3320  17.3439  17.4025  17.4216
    17.4581  17.4872  17.5438  17.5599  17.5718  17.6531  17.8142  17.8558
    17.8662  17.8734  17.8927  17.8987  18.0221  18.0276  18.0402  18.0523
    18.0546  18.1002  18.2035  18.2250  18.2250  18.2366  18.2912  18.3030
    18.3056  18.3792  18.4062  18.4396  18.4448  18.5054  18.5299  18.5992
    18.6124  18.6124  18.6236  18.6240  18.6362  18.6371  18.6647  18.6860
    18.7780  18.8284  18.8343  18.8355  18.8403  18.8424  18.8452  18.8542
    18.9035  18.9761  19.0204  19.0215  19.0323  19.0551  19.3301  19.4132
    19.6314  19.7701  19.9048  20.0045  20.0532  20.1390  20.8802  21.4019
    22.0550  22.0635  22.2668  22.3586  22.6623  22.8371  23.1389  23.6139
    23.6455  23.8443  24.2495  24.8201  24.8323  25.2118  25.4987  26.0350
    26.2259  26.3522  26.4693  26.6084  26.8196  26.8621  27.1140  27.2837
    27.5778  27.6107  27.8195  28.0180  28.5755  28.9078  29.4551  29.5469
    29.6253  29.6706  29.7608  29.8343  29.9373  30.0354  30.5510  30.5717
    30.7330  30.8068

          k = 0.0554 0.2769-0.4983 ( 33342 PWs)   bands (ev):

   -65.0876 -65.0869 -65.0750 -65.0742 -65.0651 -65.0643 -65.0608 -65.0600
   -65.0591 -65.0584 -65.0561 -65.0553 -65.0529 -65.0521 -65.0488 -65.0480
   -65.0480 -65.0473 -65.0463 -65.0456 -65.0441 -65.0434 -65.0433 -65.0429
   -65.0427 -65.0421 -65.0404 -65.0402 -65.0396 -65.0395 -65.0381 -65.0374
   -30.9426 -30.9424 -30.9408 -30.9405 -30.9208 -30.9200 -30.9194 -30.9190
   -30.9187 -30.9186 -30.9085 -30.9084 -30.9080 -30.9078 -30.9052 -30.9052
   -30.9045 -30.9043 -30.8955 -30.8950 -30.8771 -30.8765 -30.8761 -30.8755
   -30.8609 -30.8604 -30.8477 -30.8476 -30.8428 -30.8424 -30.8026 -30.8023
   -30.8010 -30.8007 -30.7945 -30.7942 -30.7890 -30.7882 -30.7777 -30.7775
   -30.7768 -30.7761 -30.7435 -30.7428 -30.7422 -30.7415 -30.7403 -30.7395
   -30.7379 -30.7377 -30.7367 -30.7365 -30.7315 -30.7313 -30.7297 -30.7290
   -30.7189 -30.7184 -30.7163 -30.7162 -30.7103 -30.7098 -30.7097 -30.7093
   -30.7018 -30.7010 -30.6992 -30.6987 -30.6956 -30.6954 -30.6941 -30.6938
   -30.6888 -30.6880 -30.6855 -30.6848 -30.6847 -30.6841 -30.6834 -30.6830
   -30.6782 -30.6775 -30.6755 -30.6752 -30.6713 -30.6705 -30.6634 -30.6631
   -30.6626 -30.6618 -30.6429 -30.6421 -30.6397 -30.6395 -30.6285 -30.6282
    12.9986  12.9996  13.9963  13.9972  14.2389  14.2390  14.3125  14.3133
    14.3313  14.3314  14.3366  14.3371  14.3997  14.4005  14.4314  14.4319
    14.5224  14.5232  14.5467  14.5468  14.5618  14.5619  14.5763  14.5766
    14.6246  14.6254  14.7252  14.7256  14.7687  14.7688  14.8292  14.8298
    15.0034  15.0042  15.0174  15.0179  15.0949  15.0950  15.1577  15.1579
    15.1671  15.1679  15.3477  15.3483  15.3805  15.3806  15.3945  15.3952
    15.6573  15.6573  15.6608  15.6613  15.7656  15.7658  15.7815  15.7820
    15.8027  15.8034  15.9129  15.9135  16.1195  16.1201  16.2045  16.2050
    16.2150  16.2152  16.2415  16.2420  16.2846  16.2848  16.2999  16.3000
    16.3463  16.3465  16.4920  16.4921  16.5386  16.5392  16.5504  16.5506
    16.5695  16.5696  16.6013  16.6019  16.6060  16.6066  16.6204  16.6207
    16.7748  16.7751  16.7975  16.7978  16.9518  16.9518  16.9545  16.9550
    16.9644  16.9649  17.0318  17.0319  17.0444  17.0445  17.0593  17.0595
    17.1134  17.1140  17.3672  17.3678  17.3716  17.3720  17.4228  17.4233
    17.4514  17.4519  17.4758  17.4765  17.4821  17.4824  17.7636  17.7643
    17.7700  17.7705  17.9513  17.9520  17.9813  17.9819  17.9933  17.9940
    18.1522  18.1529  18.2771  18.2778  18.2811  18.2818  18.4008  18.4015
    18.4234  18.4240  18.4672  18.4672  18.5144  18.5145  18.5145  18.5147
    18.6333  18.6340  18.6606  18.6607  18.6858  18.6862  18.7320  18.7323
    18.7341  18.7345  18.7490  18.7492  18.7543  18.7544  18.7699  18.7700
    18.9657  18.9659  19.0256  19.0264  19.0323  19.0328  19.3634  19.3636
    19.5194  19.5201  20.0800  20.0807  20.3894  20.3896  20.6774  20.6780
    22.2591  22.2598  22.6329  22.6335  22.8066  22.8071  23.2459  23.2465
    23.9522  23.9525  24.4266  24.4267  24.8492  24.8498  25.5755  25.5757
    26.2974  26.2975  26.6555  26.6556  26.7337  26.7344  27.0468  27.0475
    27.2036  27.2043  28.3824  28.3825  28.6994  28.6995  29.2743  29.2744
    29.5664  29.5673  29.7100  29.7109  30.1425  30.1433  30.3292  30.3292
    30.9800  30.9807

          k = 0.0554 0.3876 0.3876 ( 33343 PWs)   bands (ev):

   -65.0881 -65.0813 -65.0812 -65.0753 -65.0652 -65.0618 -65.0617 -65.0609
   -65.0592 -65.0581 -65.0580 -65.0561 -65.0494 -65.0493 -65.0478 -65.0477
   -65.0475 -65.0474 -65.0458 -65.0457 -65.0451 -65.0450 -65.0427 -65.0425
   -65.0422 -65.0422 -65.0417 -65.0416 -65.0402 -65.0387 -65.0385 -65.0377
   -30.9466 -30.9466 -30.9246 -30.9246 -30.9240 -30.9239 -30.9216 -30.9208
   -30.9192 -30.9192 -30.9099 -30.9089 -30.9088 -30.9061 -30.9061 -30.8981
   -30.8980 -30.8915 -30.8914 -30.8906 -30.8905 -30.8894 -30.8894 -30.8777
   -30.8753 -30.8753 -30.8610 -30.8474 -30.8426 -30.8271 -30.8271 -30.8022
   -30.7944 -30.7944 -30.7829 -30.7829 -30.7759 -30.7688 -30.7688 -30.7638
   -30.7638 -30.7631 -30.7631 -30.7586 -30.7586 -30.7405 -30.7405 -30.7365
   -30.7364 -30.7358 -30.7358 -30.7344 -30.7329 -30.7328 -30.7307 -30.7307
   -30.7277 -30.7277 -30.7159 -30.7159 -30.7134 -30.7134 -30.7126 -30.7085
   -30.7085 -30.6987 -30.6987 -30.6963 -30.6962 -30.6961 -30.6961 -30.6933
   -30.6880 -30.6875 -30.6875 -30.6864 -30.6863 -30.6840 -30.6812 -30.6772
   -30.6768 -30.6743 -30.6728 -30.6728 -30.6725 -30.6704 -30.6685 -30.6621
   -30.6620 -30.6583 -30.6583 -30.6409 -30.6351 -30.6333 -30.6332 -30.6237
    12.9330  13.4774  13.4775  13.9468  14.1760  14.2693  14.2849  14.3344
    14.3344  14.3585  14.3590  14.3591  14.4759  14.4759  14.5012  14.5219
    14.5219  14.5393  14.5393  14.5416  14.5417  14.5636  14.5637  14.6838
    14.6838  14.6980  14.7148  14.7504  14.7504  14.8508  14.8509  14.8537
    14.8537  14.8808  14.8808  14.9240  14.9240  15.0565  15.0566  15.0705
    15.0705  15.0970  15.0970  15.3327  15.3327  15.3810  15.5684  15.5685
    15.5732  15.5733  15.6662  15.7313  15.7737  15.7737  15.7774  15.7775
    15.7915  15.9809  16.0891  16.0892  16.1411  16.2598  16.2710  16.2711
    16.3077  16.3077  16.3128  16.3128  16.3139  16.3140  16.3510  16.3510
    16.3779  16.3914  16.5322  16.5421  16.5586  16.5586  16.5646  16.5915
    16.6109  16.6231  16.6231  16.6417  16.6423  16.6424  16.7560  16.7561
    16.7658  16.7658  16.7679  16.7680  16.7849  16.7849  16.8822  16.8822
    16.8880  16.9050  16.9775  16.9775  16.9830  17.0415  17.0833  17.0834
    17.0908  17.0997  17.0997  17.1156  17.1157  17.1401  17.1402  17.2977
    17.4037  17.4038  17.4229  17.4229  17.5285  17.5935  17.5935  17.6247
    17.7770  17.9180  18.0138  18.0138  18.0581  18.0581  18.1436  18.1437
    18.2168  18.2169  18.2668  18.2669  18.3233  18.3235  18.3236  18.4271
    18.4271  18.5201  18.5432  18.5482  18.5482  18.5517  18.5517  18.5549
    18.5571  18.5571  18.6193  18.6878  18.7185  18.7185  18.7232  18.7232
    18.7332  18.8205  18.8205  18.8463  18.8463  18.8495  18.8495  18.8527
    18.8763  18.8764  18.8775  18.8776  18.9728  19.0575  19.1743  19.2460
    19.2461  19.7313  19.7313  19.8250  20.5064  20.5064  21.5363  21.5363
    21.9302  21.9302  22.7001  22.7001  23.0508  23.0508  23.1150  23.1151
    23.5326  23.5327  24.6981  24.6981  24.7283  25.4891  25.9045  25.9046
    26.0453  26.0453  26.3003  26.3003  26.4537  26.4537  26.8606  26.8606
    26.9810  27.0004  27.0006  28.2854  28.6522  29.2292  29.5611  29.5673
    29.5673  29.7045  30.1123  30.1124  30.2919  30.2920  30.6991  30.6992
    31.1345  31.1347

          k = 0.0554 0.3876-0.4983 ( 33378 PWs)   bands (ev):

   -65.0853 -65.0846 -65.0789 -65.0781 -65.0640 -65.0632 -65.0610 -65.0602
   -65.0599 -65.0592 -65.0576 -65.0568 -65.0489 -65.0482 -65.0470 -65.0466
   -65.0462 -65.0459 -65.0458 -65.0452 -65.0448 -65.0443 -65.0440 -65.0440
   -65.0435 -65.0432 -65.0425 -65.0417 -65.0397 -65.0389 -65.0386 -65.0378
   -30.9373 -30.9371 -30.9367 -30.9364 -30.9180 -30.9180 -30.9179 -30.9178
   -30.9136 -30.9129 -30.9112 -30.9104 -30.9065 -30.9059 -30.9059 -30.9055
   -30.9002 -30.8997 -30.8933 -30.8929 -30.8916 -30.8910 -30.8886 -30.8879
   -30.8756 -30.8752 -30.8593 -30.8589 -30.8383 -30.8383 -30.8146 -30.8145
   -30.7813 -30.7811 -30.7782 -30.7781 -30.7745 -30.7737 -30.7701 -30.7694
   -30.7556 -30.7555 -30.7516 -30.7508 -30.7507 -30.7499 -30.7489 -30.7488
   -30.7460 -30.7459 -30.7351 -30.7345 -30.7305 -30.7304 -30.7273 -30.7266
   -30.7217 -30.7211 -30.7196 -30.7195 -30.7137 -30.7136 -30.7124 -30.7118
   -30.7056 -30.7054 -30.7051 -30.7049 -30.6928 -30.6926 -30.6925 -30.6921
   -30.6920 -30.6917 -30.6883 -30.6881 -30.6797 -30.6790 -30.6786 -30.6782
   -30.6771 -30.6767 -30.6758 -30.6751 -30.6672 -30.6668 -30.6665 -30.6664
   -30.6658 -30.6650 -30.6492 -30.6485 -30.6329 -30.6328 -30.6272 -30.6271
    13.1824  13.1833  13.6937  13.6946  14.2522  14.2524  14.3517  14.3520
    14.3574  14.3574  14.3972  14.3975  14.4474  14.4481  14.4808  14.4810
    14.4983  14.4990  14.6136  14.6137  14.6343  14.6351  14.6754  14.6755
    14.6794  14.6796  14.6925  14.6932  14.7332  14.7338  14.8049  14.8057
    14.8698  14.8700  14.8931  14.8936  14.9630  14.9638  14.9686  14.9688
    14.9795  14.9797  15.2154  15.2155  15.4354  15.4361  15.4412  15.4420
    15.6615  15.6621  15.6684  15.6691  15.7667  15.7670  15.8945  15.8948
    15.9042  15.9045  16.0445  16.0445  16.1305  16.1311  16.2669  16.2674
    16.3116  16.3116  16.3307  16.3309  16.4358  16.4360  16.4702  16.4704
    16.5518  16.5524  16.6058  16.6060  16.6117  16.6122  16.6138  16.6139
    16.6185  16.6187  16.6355  16.6359  16.7025  16.7027  16.7256  16.7256
    16.7483  16.7484  16.8104  16.8107  16.8118  16.8121  16.8213  16.8217
    16.8299  16.8304  16.8620  16.8622  16.9442  16.9446  16.9455  16.9459
    16.9742  16.9745  17.1643  17.1645  17.2692  17.2696  17.2832  17.2836
    17.3186  17.3188  17.3445  17.3450  17.3550  17.3557  17.4571  17.4578
    17.9027  17.9034  18.0119  18.0125  18.1643  18.1649  18.1758  18.1765
    18.1895  18.1902  18.3044  18.3048  18.4020  18.4027  18.4381  18.4389
    18.4484  18.4486  18.4734  18.4741  18.5794  18.5795  18.6458  18.6464
    18.6510  18.6517  18.7117  18.7119  18.7369  18.7371  18.7546  18.7547
    18.7836  18.7839  18.7865  18.7868  18.8008  18.8010  18.8051  18.8053
    18.8599  18.8607  18.8873  18.8875  18.9138  18.9141  19.1603  19.1610
    19.3568  19.3570  19.7277  19.7284  21.0191  21.0194  21.1934  21.1939
    22.2673  22.2678  22.4859  22.4864  22.9871  22.9877  23.2217  23.2221
    23.9176  23.9177  24.2125  24.2126  25.2898  25.2904  26.0909  26.0910
    26.1663  26.1663  26.2203  26.2207  26.3180  26.3181  26.4610  26.4615
    26.5102  26.5108  27.6279  27.6280  29.3516  29.3517  29.5444  29.5453
    29.6182  29.6192  29.9378  29.9379  30.6905  30.6913  30.7967  30.7969
    30.8157  30.8158

          k = 0.0554-0.4983-0.4983 ( 33388 PWs)   bands (ev):

   -65.0825 -65.0823 -65.0818 -65.0815 -65.0627 -65.0625 -65.0620 -65.0617
   -65.0590 -65.0587 -65.0582 -65.0579 -65.0458 -65.0457 -65.0454 -65.0454
   -65.0453 -65.0453 -65.0451 -65.0451 -65.0450 -65.0449 -65.0446 -65.0446
   -65.0446 -65.0445 -65.0443 -65.0443 -65.0392 -65.0390 -65.0384 -65.0382
   -30.9290 -30.9290 -30.9289 -30.9289 -30.9288 -30.9287 -30.9287 -30.9286
   -30.9040 -30.9040 -30.9038 -30.9037 -30.9034 -30.9033 -30.9031 -30.9031
   -30.9010 -30.9007 -30.9002 -30.8999 -30.8911 -30.8910 -30.8907 -30.8906
   -30.8767 -30.8766 -30.8763 -30.8762 -30.8268 -30.8268 -30.8268 -30.8268
   -30.7628 -30.7628 -30.7628 -30.7628 -30.7627 -30.7627 -30.7627 -30.7627
   -30.7617 -30.7617 -30.7615 -30.7614 -30.7609 -30.7609 -30.7607 -30.7606
   -30.7339 -30.7339 -30.7339 -30.7338 -30.7248 -30.7247 -30.7247 -30.7245
   -30.7244 -30.7244 -30.7241 -30.7240 -30.7239 -30.7238 -30.7237 -30.7236
   -30.6998 -30.6997 -30.6996 -30.6995 -30.6992 -30.6991 -30.6990 -30.6990
   -30.6853 -30.6852 -30.6849 -30.6848 -30.6807 -30.6807 -30.6807 -30.6807
   -30.6724 -30.6724 -30.6724 -30.6724 -30.6705 -30.6704 -30.6701 -30.6700
   -30.6576 -30.6573 -30.6568 -30.6566 -30.6287 -30.6287 -30.6287 -30.6287
    13.4171  13.4177  13.4180  13.4186  14.2903  14.2904  14.2905  14.2907
    14.4072  14.4073  14.4073  14.4074  14.4893  14.4894  14.4895  14.4896
    14.6147  14.6147  14.6151  14.6152  14.6154  14.6155  14.6159  14.6159
    14.7821  14.7822  14.7826  14.7827  14.7828  14.7830  14.7833  14.7834
    14.8192  14.8193  14.8193  14.8193  14.8194  14.8194  14.8194  14.8195
    15.0381  15.0382  15.0383  15.0383  15.5426  15.5427  15.5430  15.5431
    15.5433  15.5434  15.5437  15.5438  15.8465  15.8467  15.8467  15.8469
    16.0876  16.0880  16.0883  16.0886  16.2760  16.2763  16.2766  16.2769
    16.3914  16.3915  16.3917  16.3918  16.4034  16.4036  16.4037  16.4038
    16.6230  16.6232  16.6234  16.6237  16.6528  16.6529  16.6530  16.6530
    16.6530  16.6530  16.6532  16.6532  16.7024  16.7025  16.7025  16.7028
    16.7099  16.7100  16.7103  16.7103  16.8157  16.8158  16.8161  16.8162
    16.9349  16.9349  16.9350  16.9352  16.9353  16.9354  16.9355  16.9356
    17.0964  17.0967  17.0967  17.0970  17.1089  17.1089  17.1091  17.1091
    17.1093  17.1093  17.1095  17.1095  17.4031  17.4033  17.4038  17.4040
    18.0461  18.0462  18.0468  18.0469  18.1336  18.1337  18.1340  18.1342
    18.3282  18.3283  18.3284  18.3285  18.3288  18.3289  18.3290  18.3291
    18.6424  18.6425  18.6428  18.6429  18.6691  18.6692  18.6692  18.6694
    18.6697  18.6698  18.6699  18.6699  18.7799  18.7800  18.7804  18.7804
    18.8121  18.8121  18.8122  18.8122  18.8123  18.8123  18.8124  18.8124
    18.8124  18.8125  18.8126  18.8127  18.8860  18.8862  18.8864  18.8866
    19.4643  19.4645  19.4648  19.4650  21.7274  21.7276  21.7277  21.7278
    21.7280  21.7280  21.7281  21.7283  23.6871  23.6872  23.6872  23.6874
    23.6874  23.6876  23.6876  23.6877  25.8119  25.8124  25.8126  25.8130
    26.1251  26.1251  26.1252  26.1253  26.1253  26.1254  26.1254  26.1255
    26.9062  26.9064  26.9065  26.9066  29.5648  29.5651  29.5658  29.5660
    30.0576  30.0577  30.0577  30.0578  30.6479  30.6480  30.6481  30.6481
    31.2408  31.2410

          k = 0.1661 0.1661 0.1661 ( 33275 PWs)   bands (ev):

   -65.0957 -65.0748 -65.0747 -65.0747 -65.0615 -65.0614 -65.0613 -65.0595
   -65.0594 -65.0594 -65.0557 -65.0524 -65.0519 -65.0518 -65.0517 -65.0516
   -65.0515 -65.0514 -65.0513 -65.0508 -65.0461 -65.0460 -65.0459 -65.0391
   -65.0386 -65.0386 -65.0384 -65.0383 -65.0382 -65.0381 -65.0381 -65.0376
   -30.9671 -30.9671 -30.9671 -30.9534 -30.9462 -30.9462 -30.9462 -30.8958
   -30.8957 -30.8957 -30.8885 -30.8885 -30.8884 -30.8884 -30.8884 -30.8884
   -30.8837 -30.8836 -30.8836 -30.8836 -30.8836 -30.8836 -30.8566 -30.8566
   -30.8566 -30.8426 -30.8426 -30.8426 -30.8289 -30.8288 -30.8288 -30.8288
   -30.8288 -30.8288 -30.7982 -30.7982 -30.7982 -30.7631 -30.7631 -30.7631
   -30.7599 -30.7599 -30.7599 -30.7586 -30.7586 -30.7586 -30.7586 -30.7585
   -30.7585 -30.7464 -30.7464 -30.7464 -30.7433 -30.7433 -30.7433 -30.7432
   -30.7432 -30.7432 -30.7183 -30.7182 -30.7182 -30.7037 -30.7037 -30.7037
   -30.7000 -30.7000 -30.7000 -30.6869 -30.6869 -30.6868 -30.6835 -30.6835
   -30.6835 -30.6777 -30.6777 -30.6777 -30.6776 -30.6776 -30.6776 -30.6742
   -30.6742 -30.6742 -30.6661 -30.6661 -30.6660 -30.6651 -30.6651 -30.6638
   -30.6637 -30.6637 -30.6529 -30.6529 -30.6529 -30.6406 -30.6197 -30.6197
    12.3258  13.9254  13.9255  13.9256  13.9722  13.9939  13.9939  13.9939
    14.0935  14.0935  14.0935  14.2572  14.2572  14.2572  14.4840  14.4841
    14.4841  14.7219  14.7220  14.7220  14.8492  14.8492  14.8493  14.8493
    14.8493  14.8495  14.9192  14.9193  14.9193  15.0565  15.0566  15.0566
    15.0591  15.0591  15.0592  15.0592  15.0592  15.0592  15.3006  15.3006
    15.3006  15.3006  15.3007  15.3007  15.4363  15.4364  15.4364  15.7243
    15.7245  15.7245  15.8150  15.8150  15.8150  15.8150  15.8151  15.8151
    15.8743  15.8744  15.8745  15.9623  15.9623  15.9624  15.9624  15.9624
    15.9625  16.1116  16.1117  16.1117  16.1966  16.2754  16.2754  16.2755
    16.2755  16.2755  16.2755  16.2880  16.2880  16.2882  16.2882  16.2882
    16.3502  16.3503  16.3503  16.3575  16.3575  16.3823  16.3823  16.3823
    16.7677  16.7678  16.7678  16.9350  16.9350  16.9350  17.0645  17.0645
    17.0646  17.1152  17.1154  17.1154  17.2367  17.2367  17.2369  17.2836
    17.2836  17.2836  17.2837  17.2837  17.2837  17.5664  17.5665  17.5665
    17.6108  17.6108  17.6110  17.6866  17.6866  17.6868  17.7606  17.7606
    17.8123  17.8125  17.8125  17.8125  17.8125  17.8125  18.0298  18.0298
    18.0298  18.1175  18.1175  18.1176  18.1176  18.1176  18.1177  18.2310
    18.2310  18.2311  18.2658  18.2658  18.2659  18.5907  18.5908  18.5908
    18.6097  18.6098  18.6098  18.6823  18.6823  18.6823  18.7286  18.7286
    18.7287  18.7711  18.7711  18.9429  18.9429  18.9429  19.0319  19.0871
    19.0871  19.0871  19.0871  19.0871  19.0871  19.1466  19.1466  19.1466
    19.7779  19.7779  19.7780  20.9331  20.9331  20.9331  21.2534  21.2534
    21.2534  21.2534  21.2534  21.2535  22.5119  22.5119  22.5119  22.8801
    22.8801  22.8801  25.9693  25.9693  25.9693  25.9693  25.9693  25.9694
    26.1794  26.1794  26.1794  27.3610  27.7430  27.7430  27.7431  27.7432
    27.7432  27.7432  28.3979  28.3979  28.3979  29.8418  29.8418  29.8418
    30.0131  30.0131  30.0131  30.0132  30.0132  30.0132  30.2044  30.2044
    30.2045  30.2045

          k = 0.1661 0.1661 0.2769 ( 33347 PWs)   bands (ev):

   -65.0939 -65.0796 -65.0737 -65.0736 -65.0645 -65.0644 -65.0609 -65.0588
   -65.0587 -65.0570 -65.0545 -65.0535 -65.0534 -65.0523 -65.0518 -65.0514
   -65.0508 -65.0503 -65.0486 -65.0485 -65.0464 -65.0443 -65.0442 -65.0402
   -65.0395 -65.0394 -65.0391 -65.0390 -65.0389 -65.0385 -65.0382 -65.0376
   -30.9636 -30.9596 -30.9596 -30.9414 -30.9409 -30.9409 -30.9379 -30.9132
   -30.9030 -30.9030 -30.8975 -30.8975 -30.8945 -30.8944 -30.8938 -30.8937
   -30.8889 -30.8888 -30.8839 -30.8839 -30.8823 -30.8822 -30.8723 -30.8671
   -30.8491 -30.8490 -30.8416 -30.8416 -30.8312 -30.8312 -30.8198 -30.8198
   -30.8146 -30.8146 -30.8100 -30.8100 -30.7773 -30.7758 -30.7758 -30.7720
   -30.7719 -30.7674 -30.7674 -30.7551 -30.7458 -30.7457 -30.7448 -30.7447
   -30.7441 -30.7441 -30.7432 -30.7430 -30.7425 -30.7369 -30.7361 -30.7361
   -30.7344 -30.7343 -30.7167 -30.7108 -30.7075 -30.7075 -30.7062 -30.7059
   -30.7059 -30.6971 -30.6968 -30.6967 -30.6940 -30.6940 -30.6895 -30.6895
   -30.6892 -30.6892 -30.6858 -30.6790 -30.6789 -30.6778 -30.6776 -30.6772
   -30.6760 -30.6758 -30.6697 -30.6697 -30.6671 -30.6623 -30.6591 -30.6590
   -30.6553 -30.6540 -30.6535 -30.6516 -30.6493 -30.6493 -30.6236 -30.6212
    12.4657  13.5859  14.0076  14.0109  14.0110  14.0589  14.0740  14.0740
    14.1682  14.1682  14.2049  14.3106  14.3455  14.3455  14.4535  14.5227
    14.5527  14.5528  14.5794  14.5795  14.6884  14.6884  14.7622  14.8181
    14.8181  14.8812  14.8813  14.8926  14.9243  14.9244  14.9758  14.9759
    15.0045  15.0046  15.0180  15.0180  15.0600  15.0600  15.1309  15.1310
    15.3116  15.3117  15.3312  15.3312  15.4861  15.4861  15.6096  15.6472
    15.6473  15.6693  15.6694  15.7109  15.7351  15.7352  15.8224  15.8225
    15.8571  15.8571  15.9417  15.9418  15.9470  15.9470  16.0212  16.0707
    16.0708  16.1323  16.1423  16.2014  16.2015  16.2845  16.2846  16.2851
    16.2851  16.2926  16.2927  16.3070  16.3221  16.3890  16.3891  16.4033
    16.4120  16.4569  16.4569  16.4712  16.4763  16.5640  16.6544  16.6545
    16.6567  16.6567  16.7626  16.7637  16.8675  16.8676  16.8878  16.9384
    16.9384  17.0268  17.0268  17.0769  17.0960  17.0960  17.3431  17.3432
    17.3744  17.3745  17.4166  17.4188  17.4459  17.4459  17.5644  17.5646
    17.6108  17.6110  17.6874  17.6875  17.6893  17.7385  17.7385  17.7389
    17.7639  17.7640  17.7996  17.8057  17.8057  17.8309  17.9072  17.9712
    17.9712  18.1203  18.1634  18.1634  18.2970  18.2971  18.3200  18.3201
    18.3262  18.3298  18.3298  18.3405  18.3405  18.3938  18.3939  18.4197
    18.5320  18.5340  18.5340  18.6320  18.6337  18.6410  18.6410  18.7090
    18.9101  18.9273  18.9273  18.9824  18.9824  18.9847  18.9847  18.9986
    18.9987  19.0900  19.0900  19.0909  19.1012  19.1310  19.1310  19.1372
    19.3915  19.3915  19.7089  20.7726  20.7726  21.0007  21.0007  21.2310
    21.2310  21.5650  21.8880  21.8881  21.9021  22.8439  22.9441  22.9441
    23.5196  23.5196  25.1158  25.1159  25.3415  25.3415  26.0138  26.1351
    26.1351  26.5035  26.5035  26.8689  26.8690  27.5330  27.8997  27.8997
    27.9204  27.9523  27.9524  28.2769  28.2770  29.1220  29.1220  29.5107
    29.5108  29.7902  29.7902  30.1492  30.1492  30.3810  30.3811  30.6050
    30.6050  30.6228

          k = 0.1661 0.1661 0.3876 ( 33337 PWs)   bands (ev):

   -65.0914 -65.0840 -65.0720 -65.0719 -65.0673 -65.0672 -65.0603 -65.0582
   -65.0579 -65.0578 -65.0551 -65.0550 -65.0523 -65.0518 -65.0514 -65.0508
   -65.0501 -65.0491 -65.0471 -65.0458 -65.0457 -65.0428 -65.0426 -65.0426
   -65.0411 -65.0410 -65.0399 -65.0398 -65.0391 -65.0386 -65.0382 -65.0376
   -30.9560 -30.9486 -30.9486 -30.9330 -30.9330 -30.9300 -30.9263 -30.9252
   -30.9193 -30.9193 -30.9109 -30.9109 -30.8963 -30.8963 -30.8934 -30.8933
   -30.8916 -30.8916 -30.8907 -30.8894 -30.8854 -30.8853 -30.8746 -30.8745
   -30.8572 -30.8572 -30.8311 -30.8311 -30.8253 -30.8253 -30.8199 -30.8199
   -30.8091 -30.8091 -30.8008 -30.8008 -30.7913 -30.7913 -30.7850 -30.7850
   -30.7768 -30.7768 -30.7551 -30.7481 -30.7440 -30.7438 -30.7432 -30.7429
   -30.7368 -30.7338 -30.7338 -30.7286 -30.7281 -30.7281 -30.7263 -30.7263
   -30.7239 -30.7238 -30.7207 -30.7143 -30.7143 -30.7141 -30.7123 -30.7028
   -30.7028 -30.7021 -30.7021 -30.6992 -30.6992 -30.6945 -30.6945 -30.6934
   -30.6915 -30.6914 -30.6842 -30.6818 -30.6818 -30.6799 -30.6779 -30.6775
   -30.6768 -30.6765 -30.6761 -30.6761 -30.6726 -30.6699 -30.6596 -30.6555
   -30.6538 -30.6537 -30.6483 -30.6483 -30.6454 -30.6409 -30.6293 -30.6253
    12.6709  13.2456  14.0817  14.1303  14.1304  14.1498  14.1901  14.1902
    14.2794  14.2794  14.3423  14.3473  14.3659  14.3898  14.4269  14.4270
    14.4753  14.4753  14.5084  14.5084  14.6061  14.6061  14.6187  14.6458
    14.6459  14.7025  14.8393  14.8393  14.8681  14.8683  14.9169  14.9169
    14.9827  14.9828  15.0261  15.0262  15.1342  15.1342  15.1629  15.1630
    15.3292  15.3293  15.3887  15.3888  15.4792  15.4793  15.5118  15.5119
    15.5579  15.5580  15.5769  15.5770  15.7406  15.7407  15.7559  15.7736
    15.9064  15.9064  15.9251  15.9701  15.9702  16.0191  16.0191  16.0475
    16.1136  16.1136  16.1250  16.1251  16.2489  16.2927  16.2928  16.2954
    16.2954  16.3072  16.3884  16.4148  16.4148  16.4858  16.4931  16.5467
    16.5468  16.5595  16.5595  16.5978  16.5993  16.5994  16.5998  16.5998
    16.6120  16.6994  16.7324  16.8000  16.8530  16.9061  16.9467  16.9467
    16.9623  16.9623  17.0026  17.0026  17.0676  17.0676  17.4035  17.4035
    17.4077  17.4438  17.4526  17.4527  17.4674  17.4675  17.5618  17.5620
    17.5911  17.5912  17.5925  17.5943  17.5945  17.6883  17.6884  17.7120
    17.7122  17.7415  17.7688  17.7736  17.7736  17.8568  17.9291  17.9291
    18.0192  18.0523  18.1221  18.1604  18.1604  18.2462  18.2462  18.3175
    18.4483  18.4483  18.4610  18.4691  18.4692  18.4955  18.5107  18.5108
    18.5140  18.5140  18.5350  18.5350  18.5410  18.5410  18.5787  18.8211
    18.8345  18.8466  18.8466  18.8473  18.8473  18.8489  18.8489  19.0153
    19.0420  19.0420  19.0950  19.0951  19.1153  19.1153  19.2968  19.4195
    19.4196  19.6052  19.7568  20.3085  20.3085  21.0755  21.0755  21.1852
    21.1946  21.1946  22.1095  22.6020  22.6020  22.7390  23.4826  23.4826
    24.2216  24.2216  24.2359  24.2359  24.7062  24.7062  25.7764  25.7765
    26.0326  26.6510  26.6511  26.8074  26.9769  26.9769  27.4269  27.4269
    28.2490  28.2491  28.3056  28.3056  28.5510  28.7928  28.7928  29.0422
    29.0424  29.6342  29.6342  30.0098  30.1230  30.1230  30.3429  30.3429
    30.5226  30.5227

          k = 0.1661 0.1661-0.4983 ( 33372 PWs)   bands (ev):

   -65.0884 -65.0876 -65.0703 -65.0702 -65.0695 -65.0694 -65.0597 -65.0589
   -65.0570 -65.0569 -65.0562 -65.0561 -65.0523 -65.0518 -65.0514 -65.0508
   -65.0484 -65.0476 -65.0465 -65.0457 -65.0436 -65.0435 -65.0428 -65.0428
   -65.0416 -65.0415 -65.0408 -65.0407 -65.0391 -65.0386 -65.0382 -65.0376
   -30.9447 -30.9444 -30.9355 -30.9351 -30.9347 -30.9343 -30.9232 -30.9231
   -30.9225 -30.9224 -30.9093 -30.9093 -30.9089 -30.9086 -30.8962 -30.8962
   -30.8959 -30.8959 -30.8884 -30.8883 -30.8881 -30.8880 -30.8663 -30.8663
   -30.8659 -30.8658 -30.8274 -30.8274 -30.8271 -30.8271 -30.8084 -30.8084
   -30.8081 -30.8081 -30.7977 -30.7977 -30.7971 -30.7971 -30.7883 -30.7883
   -30.7878 -30.7878 -30.7438 -30.7434 -30.7431 -30.7427 -30.7396 -30.7388
   -30.7339 -30.7337 -30.7299 -30.7291 -30.7236 -30.7236 -30.7228 -30.7228
   -30.7149 -30.7149 -30.7144 -30.7144 -30.7131 -30.7131 -30.7130 -30.7128
   -30.7128 -30.7128 -30.7123 -30.7121 -30.6899 -30.6896 -30.6865 -30.6865
   -30.6861 -30.6860 -30.6849 -30.6849 -30.6842 -30.6841 -30.6827 -30.6820
   -30.6819 -30.6817 -30.6779 -30.6774 -30.6771 -30.6766 -30.6577 -30.6570
   -30.6501 -30.6501 -30.6499 -30.6498 -30.6371 -30.6363 -30.6322 -30.6320
    12.9341  12.9350  14.1937  14.1939  14.2566  14.2573  14.2727  14.2728
    14.2734  14.2735  14.3369  14.3374  14.3376  14.3380  14.4254  14.4254
    14.4262  14.4263  14.4929  14.4937  14.5157  14.5159  14.6418  14.6418
    14.6423  14.6424  14.7540  14.7541  14.7542  14.7544  14.9503  14.9504
    14.9504  14.9505  15.1251  15.1252  15.1259  15.1259  15.3059  15.3060
    15.3061  15.3061  15.3701  15.3702  15.3707  15.3708  15.4747  15.4748
    15.4749  15.4750  15.6462  15.6462  15.6466  15.6467  15.8325  15.8330
    15.9216  15.9222  15.9618  15.9621  15.9625  15.9627  16.0308  16.0308
    16.0311  16.0312  16.2896  16.2901  16.2964  16.2965  16.2969  16.2970
    16.3466  16.3466  16.3466  16.3467  16.4647  16.4648  16.4648  16.4649
    16.4857  16.4858  16.5921  16.5927  16.5999  16.6006  16.6710  16.6713
    16.6714  16.6716  16.7430  16.7433  16.9825  16.9825  16.9830  16.9831
    17.0707  17.0708  17.0710  17.0710  17.1474  17.1477  17.2534  17.2536
    17.4866  17.4873  17.4964  17.4964  17.4968  17.4968  17.5128  17.5129
    17.5134  17.5136  17.5868  17.5869  17.5874  17.5875  17.6612  17.6613
    17.6618  17.6620  17.7028  17.7029  17.7034  17.7034  17.9302  17.9310
    18.0490  18.0497  18.2651  18.2652  18.3216  18.3217  18.3471  18.3471
    18.3479  18.3479  18.3484  18.3487  18.3491  18.3495  18.6868  18.6868
    18.6873  18.6873  18.6951  18.6952  18.6955  18.6956  18.7132  18.7132
    18.7135  18.7136  18.7211  18.7213  18.7295  18.7296  18.7297  18.7298
    18.9241  18.9242  19.1025  19.1031  19.1034  19.1039  19.4668  19.4676
    19.8573  19.8574  19.8575  19.8576  20.4509  20.4515  21.1421  21.1422
    21.1428  21.1429  22.5072  22.5078  23.3890  23.3891  23.3894  23.3895
    24.0795  24.0795  24.0801  24.0801  24.9847  24.9847  24.9849  24.9849
    26.2918  26.2919  26.9946  26.9947  26.9953  26.9954  27.5835  27.5836
    27.5842  27.5844  28.6169  28.6171  28.6178  28.6179  29.2492  29.2493
    29.2737  29.2737  29.2742  29.2742  30.1577  30.1579  30.1585  30.1587
    30.6938  30.6942

          k = 0.1661 0.2769 0.2769 ( 33353 PWs)   bands (ev):

   -65.0922 -65.0783 -65.0783 -65.0725 -65.0680 -65.0639 -65.0638 -65.0587
   -65.0582 -65.0541 -65.0540 -65.0534 -65.0532 -65.0519 -65.0501 -65.0501
   -65.0498 -65.0497 -65.0487 -65.0485 -65.0449 -65.0448 -65.0429 -65.0405
   -65.0403 -65.0400 -65.0399 -65.0396 -65.0395 -65.0390 -65.0388 -65.0381
   -30.9576 -30.9576 -30.9512 -30.9357 -30.9335 -30.9335 -30.9282 -30.9121
   -30.9121 -30.9074 -30.9073 -30.8994 -30.8994 -30.8956 -30.8956 -30.8952
   -30.8952 -30.8933 -30.8933 -30.8927 -30.8907 -30.8907 -30.8711 -30.8710
   -30.8572 -30.8572 -30.8566 -30.8242 -30.8211 -30.8211 -30.8199 -30.8168
   -30.8168 -30.8067 -30.8067 -30.7889 -30.7877 -30.7877 -30.7763 -30.7621
   -30.7621 -30.7591 -30.7591 -30.7578 -30.7578 -30.7509 -30.7509 -30.7408
   -30.7408 -30.7408 -30.7369 -30.7369 -30.7344 -30.7344 -30.7336 -30.7336
   -30.7290 -30.7289 -30.7206 -30.7206 -30.7082 -30.7081 -30.7054 -30.7038
   -30.7038 -30.6994 -30.6973 -30.6951 -30.6951 -30.6936 -30.6926 -30.6925
   -30.6915 -30.6915 -30.6907 -30.6888 -30.6887 -30.6805 -30.6804 -30.6793
   -30.6793 -30.6788 -30.6671 -30.6654 -30.6640 -30.6615 -30.6608 -30.6586
   -30.6585 -30.6507 -30.6507 -30.6475 -30.6475 -30.6439 -30.6266 -30.6219
    12.6014  13.6832  13.6833  14.0226  14.0653  14.1380  14.1382  14.1382
    14.2231  14.2837  14.2838  14.3865  14.3988  14.3988  14.4227  14.4227
    14.4434  14.5218  14.5219  14.5688  14.7029  14.7030  14.7552  14.7553
    14.7654  14.7654  14.8526  14.8526  14.9039  14.9040  14.9071  14.9072
    14.9190  14.9383  14.9383  15.0080  15.0080  15.0960  15.0960  15.1308
    15.1421  15.1421  15.3273  15.3273  15.5637  15.5637  15.5703  15.6268
    15.6398  15.6399  15.6460  15.6461  15.6920  15.6921  15.8162  15.8787
    15.8788  15.9637  15.9637  15.9946  15.9946  16.0496  16.1101  16.1102
    16.1105  16.1389  16.1389  16.2353  16.2353  16.2531  16.2531  16.3235
    16.3646  16.3754  16.4301  16.4302  16.4338  16.4532  16.4856  16.5172
    16.5173  16.5259  16.5435  16.5435  16.5620  16.5620  16.5901  16.6355
    16.6355  16.6846  16.6846  16.7282  16.7721  16.7721  16.8653  16.8653
    16.8814  16.9422  17.1230  17.1231  17.1613  17.1613  17.1857  17.1858
    17.2500  17.2501  17.4355  17.4531  17.4714  17.4724  17.4924  17.4925
    17.5156  17.5157  17.5526  17.5526  17.6761  17.7213  17.7213  17.7935
    17.7940  17.7941  17.8256  17.8257  17.8669  17.9037  17.9038  17.9649
[...]
    23.2299  23.2301  23.2301  23.2302  24.3773  24.3776  24.3779  24.3783
    26.7858  26.7859  26.7860  26.7861  26.7863  26.7864  26.7865  26.7866
    27.2643  27.2645  27.2646  27.2647  28.9424  28.9425  28.9426  28.9427
    29.4979  29.4980  29.4981  29.4982  29.4985  29.4986  29.4987  29.4988
    31.1502  31.1509

          k = 0.3876 0.3876 0.3876 ( 33395 PWs)   bands (ev):

   -65.0836 -65.0775 -65.0774 -65.0774 -65.0722 -65.0721 -65.0721 -65.0678
   -65.0488 -65.0487 -65.0486 -65.0483 -65.0479 -65.0478 -65.0477 -65.0476
   -65.0475 -65.0474 -65.0473 -65.0468 -65.0435 -65.0434 -65.0433 -65.0431
   -65.0426 -65.0426 -65.0424 -65.0423 -65.0422 -65.0421 -65.0420 -65.0416
   -30.9317 -30.9317 -30.9317 -30.9192 -30.9191 -30.9191 -30.9160 -30.9160
   -30.9160 -30.9133 -30.9133 -30.9132 -30.9132 -30.9132 -30.9131 -30.9125
   -30.9125 -30.9124 -30.9124 -30.9124 -30.9123 -30.9020 -30.9020 -30.9020
   -30.8602 -30.8199 -30.8199 -30.8199 -30.7856 -30.7856 -30.7856 -30.7856
   -30.7855 -30.7855 -30.7824 -30.7824 -30.7823 -30.7789 -30.7789 -30.7789
   -30.7743 -30.7743 -30.7743 -30.7474 -30.7474 -30.7474 -30.7474 -30.7474
   -30.7474 -30.7411 -30.7411 -30.7411 -30.7367 -30.7367 -30.7367 -30.7364
   -30.7247 -30.7246 -30.7246 -30.7179 -30.7179 -30.7179 -30.7179 -30.7179
   -30.7178 -30.7110 -30.7110 -30.7109 -30.7058 -30.7057 -30.7057 -30.7037
   -30.7036 -30.7036 -30.7036 -30.7036 -30.7035 -30.6960 -30.6960 -30.6960
   -30.6577 -30.6577 -30.6577 -30.6515 -30.6515 -30.6472 -30.6472 -30.6471
   -30.6420 -30.6420 -30.6420 -30.6401 -30.6401 -30.6400 -30.6336 -30.6336
    13.2553  13.6814  13.6815  13.6815  13.9385  13.9386  13.9386  13.9824
    14.4226  14.4226  14.4226  14.5471  14.5472  14.5472  14.5643  14.5643
    14.5643  14.6299  14.6299  14.6299  14.6300  14.6300  14.6301  14.6561
    14.6561  14.6561  14.6562  14.6562  14.6562  14.6903  14.6904  14.6904
    14.8770  14.8770  14.8770  15.1529  15.1530  15.1530  15.2183  15.2183
    15.2183  15.2183  15.2183  15.2184  15.4827  15.4828  15.4828  15.4958
    15.4958  15.4958  15.4959  15.4959  15.4960  15.7056  15.7056  15.7056
    16.0158  16.0159  16.0159  16.0534  16.2433  16.2434  16.2434  16.4768
    16.4768  16.4972  16.4972  16.4972  16.4972  16.4972  16.4973  16.5557
    16.5557  16.5651  16.5652  16.5652  16.5880  16.5881  16.5881  16.5886
    16.5887  16.5887  16.6297  16.6297  16.6297  16.6577  16.6578  16.6578
    16.7270  16.7270  16.7270  16.7292  16.7292  16.7292  16.7293  16.7293
    16.7293  16.8305  16.8306  16.8306  16.8806  17.0022  17.0022  17.0022
    17.2562  17.2562  17.2562  17.3497  17.3497  17.3498  17.3506  17.3507
    17.3507  17.3508  17.3508  17.3508  17.5526  17.5526  17.5528  17.6903
    17.6904  17.6904  17.6904  17.6905  17.6905  17.7464  17.7466  17.7466
    17.7724  17.7724  17.8112  17.8112  17.8113  17.9264  17.9264  17.9264
    18.0639  18.0639  18.0641  18.2179  18.2179  18.3462  18.3463  18.3463
    18.8822  18.8823  18.8823  18.9212  18.9212  18.9212  18.9212  18.9212
    18.9212  18.9562  18.9562  18.9562  18.9562  18.9562  18.9562  18.9861
    18.9861  18.9861  18.9932  18.9932  18.9932  19.0506  19.0506  19.0506
    21.0775  21.0776  21.0776  21.8286  21.8286  21.8286  21.8286  21.8286
    21.8287  22.2215  22.2215  22.2215  22.7098  22.7098  22.7098  23.5684
    23.5684  23.5684  23.5685  23.5685  23.5686  24.0338  24.0339  24.0339
    26.4170  26.4170  26.4171  27.1359  27.1359  27.1359  27.6608  27.6608
    27.6608  27.6610  27.6610  27.6610  28.5043  28.5043  28.5043  28.5044
    28.5044  28.5044  28.9924  28.9924  28.9924  29.8970  29.8970  29.8970
    31.1368  31.9980

          k = 0.3876 0.3876-0.4983 ( 33344 PWs)   bands (ev):

   -65.0812 -65.0804 -65.0755 -65.0754 -65.0747 -65.0746 -65.0706 -65.0698
   -65.0486 -65.0486 -65.0483 -65.0479 -65.0478 -65.0477 -65.0474 -65.0468
   -65.0457 -65.0456 -65.0451 -65.0451 -65.0450 -65.0448 -65.0443 -65.0443
   -65.0432 -65.0432 -65.0430 -65.0426 -65.0424 -65.0423 -65.0421 -65.0416
   -30.9273 -30.9273 -30.9234 -30.9230 -30.9226 -30.9222 -30.9161 -30.9161
   -30.9156 -30.9156 -30.9148 -30.9145 -30.9145 -30.9144 -30.9142 -30.9142
   -30.9140 -30.9137 -30.9105 -30.9101 -30.9080 -30.9079 -30.9074 -30.9074
   -30.8403 -30.8399 -30.7994 -30.7994 -30.7991 -30.7991 -30.7847 -30.7847
   -30.7845 -30.7845 -30.7805 -30.7803 -30.7801 -30.7799 -30.7666 -30.7666
   -30.7663 -30.7663 -30.7591 -30.7591 -30.7588 -30.7583 -30.7571 -30.7569
   -30.7438 -30.7438 -30.7434 -30.7433 -30.7415 -30.7414 -30.7414 -30.7413
   -30.7212 -30.7211 -30.7207 -30.7205 -30.7188 -30.7180 -30.7118 -30.7118
   -30.7115 -30.7115 -30.7114 -30.7113 -30.7111 -30.7111 -30.7075 -30.7074
   -30.7073 -30.7072 -30.7017 -30.7009 -30.7003 -30.7002 -30.7000 -30.7000
   -30.6531 -30.6528 -30.6511 -30.6511 -30.6506 -30.6506 -30.6467 -30.6459
   -30.6405 -30.6405 -30.6405 -30.6404 -30.6401 -30.6393 -30.6352 -30.6351
    13.4533  13.4541  13.8020  13.8021  13.8027  13.8028  13.9522  13.9527
    14.4888  14.4896  14.5109  14.5109  14.5110  14.5110  14.5909  14.5910
    14.5910  14.5910  14.6016  14.6018  14.6021  14.6024  14.6398  14.6404
    14.6499  14.6500  14.6500  14.6501  14.6539  14.6540  14.6546  14.6547
    15.0000  15.0008  15.0480  15.0481  15.0483  15.0483  15.3329  15.3330
    15.3332  15.3333  15.3391  15.3392  15.3398  15.3399  15.3597  15.3598
    15.3600  15.3601  15.5783  15.5789  15.6179  15.6181  15.6185  15.6187
    16.0509  16.0511  16.1414  16.1415  16.1416  16.1417  16.4789  16.4790
    16.5187  16.5188  16.5695  16.5696  16.5696  16.5697  16.5760  16.5762
    16.5828  16.5833  16.5998  16.5999  16.6000  16.6001  16.6012  16.6012
    16.6016  16.6016  16.6047  16.6052  16.6089  16.6089  16.6094  16.6094
    16.6549  16.6550  16.6550  16.6551  16.6833  16.6836  16.6975  16.6975
    16.6978  16.6979  16.9990  16.9990  16.9992  16.9992  17.0491  17.0498
    17.1532  17.1533  17.1536  17.1536  17.1714  17.1717  17.4340  17.4342
    17.4346  17.4347  17.5016  17.5017  17.5020  17.5021  17.5240  17.5240
    17.5242  17.5243  17.7265  17.7271  17.7409  17.7411  17.7966  17.7967
    17.7971  17.7972  17.7976  17.7979  17.7983  17.7987  17.9105  17.9110
    18.0160  18.0162  18.1550  18.1551  18.1553  18.1554  18.2616  18.2623
    18.9338  18.9338  18.9339  18.9340  18.9512  18.9514  18.9556  18.9556
    18.9558  18.9558  18.9804  18.9804  18.9808  18.9808  18.9826  18.9828
    18.9828  18.9830  19.0138  19.0141  19.0143  19.0146  19.0377  19.0378
    21.4314  21.4315  21.4319  21.4320  21.8783  21.8788  22.0131  22.0133
    22.0138  22.0140  22.6775  22.6776  22.6779  22.6780  23.1200  23.1202
    23.1256  23.1258  23.1262  23.1264  23.8256  23.8257  23.8262  23.8263
    26.7338  26.7345  26.9587  26.9587  26.9588  26.9588  27.7705  27.7706
    27.7711  27.7713  28.0505  28.0507  28.0513  28.0515  28.2962  28.2964
    28.2967  28.2968  29.1721  29.1721  29.1722  29.1722  29.4123  29.4131
    31.8364  31.8365

          k = 0.3876-0.4983-0.4983 ( 33328 PWs)   bands (ev):

   -65.0787 -65.0784 -65.0779 -65.0776 -65.0733 -65.0731 -65.0726 -65.0723
   -65.0484 -65.0482 -65.0477 -65.0474 -65.0458 -65.0456 -65.0454 -65.0454
   -65.0453 -65.0453 -65.0451 -65.0451 -65.0450 -65.0449 -65.0446 -65.0446
   -65.0446 -65.0445 -65.0443 -65.0443 -65.0430 -65.0427 -65.0422 -65.0420
   -30.9214 -30.9214 -30.9213 -30.9211 -30.9211 -30.9210 -30.9209 -30.9209
   -30.9157 -30.9156 -30.9154 -30.9152 -30.9152 -30.9151 -30.9149 -30.9147
   -30.9127 -30.9126 -30.9125 -30.9124 -30.9123 -30.9121 -30.9121 -30.9120
   -30.8198 -30.8197 -30.8195 -30.8194 -30.7833 -30.7832 -30.7831 -30.7830
   -30.7779 -30.7778 -30.7777 -30.7776 -30.7629 -30.7629 -30.7629 -30.7628
   -30.7627 -30.7627 -30.7627 -30.7627 -30.7626 -30.7626 -30.7625 -30.7625
   -30.7622 -30.7622 -30.7621 -30.7621 -30.7420 -30.7419 -30.7417 -30.7416
   -30.7159 -30.7158 -30.7158 -30.7158 -30.7152 -30.7151 -30.7149 -30.7148
   -30.7147 -30.7145 -30.7144 -30.7143 -30.7067 -30.7067 -30.7065 -30.7064
   -30.7063 -30.7061 -30.7060 -30.7059 -30.7039 -30.7039 -30.7039 -30.7039
   -30.6488 -30.6488 -30.6488 -30.6488 -30.6446 -30.6445 -30.6442 -30.6441
   -30.6440 -30.6440 -30.6436 -30.6434 -30.6371 -30.6371 -30.6371 -30.6371
    13.6166  13.6171  13.6174  13.6178  13.8703  13.8707  13.8709  13.8713
    14.5580  14.5580  14.5581  14.5581  14.5585  14.5585  14.5587  14.5587
    14.5669  14.5669  14.5669  14.5670  14.5873  14.5873  14.5874  14.5875
    14.6386  14.6387  14.6387  14.6389  14.6390  14.6392  14.6393  14.6393
    15.1739  15.1740  15.1740  15.1742  15.1745  15.1747  15.1747  15.1748
    15.2100  15.2101  15.2102  15.2103  15.4722  15.4722  15.4725  15.4727
    15.4727  15.4729  15.4732  15.4732  15.4932  15.4934  15.4936  15.4939
    16.1117  16.1119  16.1119  16.1120  16.3549  16.3550  16.3551  16.3552
    16.5425  16.5426  16.5427  16.5428  16.5534  16.5535  16.5537  16.5538
    16.5760  16.5762  16.5762  16.5764  16.5789  16.5790  16.5791  16.5793
    16.6196  16.6197  16.6197  16.6198  16.6417  16.6418  16.6419  16.6419
    16.6421  16.6421  16.6422  16.6423  16.8283  16.8284  16.8285  16.8287
    16.8287  16.8288  16.8289  16.8291  16.8595  16.8597  16.8598  16.8600
    17.2655  17.2656  17.2659  17.2660  17.3251  17.3252  17.3253  17.3253
    17.3255  17.3255  17.3256  17.3256  17.6175  17.6176  17.6176  17.6178
    17.6179  17.6181  17.6181  17.6182  17.6286  17.6287  17.6291  17.6292
    17.7657  17.7659  17.7663  17.7664  17.9600  17.9601  17.9604  17.9605
    17.9900  17.9901  17.9904  17.9906  18.1262  18.1263  18.1267  18.1268
    18.9756  18.9756  18.9757  18.9757  18.9758  18.9758  18.9759  18.9759
    18.9877  18.9878  18.9879  18.9880  19.0104  19.0105  19.0107  19.0108
    19.0139  19.0140  19.0140  19.0141  19.0142  19.0143  19.0143  19.0144
    21.7008  21.7011  21.7014  21.7017  22.2612  22.2613  22.2614  22.2616
    22.2617  22.2619  22.2620  22.2620  22.9012  22.9012  22.9013  22.9016
    22.9016  22.9018  22.9019  22.9019  23.4708  23.4712  23.4715  23.4718
    27.3319  27.3321  27.3321  27.3323  27.3325  27.3326  27.3327  27.3328
    27.5811  27.5813  27.5814  27.5815  28.4345  28.4347  28.4348  28.4348
    28.7017  28.7018  28.7019  28.7020  28.7023  28.7024  28.7025  28.7026
    32.2187  32.2195

          k =-0.4983-0.4983-0.4983 ( 33168 PWs)   bands (ev):

   -65.0764 -65.0761 -65.0761 -65.0759 -65.0756 -65.0753 -65.0753 -65.0751
   -65.0460 -65.0458 -65.0457 -65.0457 -65.0455 -65.0455 -65.0454 -65.0453
   -65.0452 -65.0452 -65.0451 -65.0451 -65.0450 -65.0449 -65.0447 -65.0447
   -65.0446 -65.0446 -65.0445 -65.0444 -65.0444 -65.0442 -65.0441 -65.0440
   -30.9173 -30.9173 -30.9173 -30.9172 -30.9171 -30.9169 -30.9169 -30.9168
   -30.9168 -30.9168 -30.9168 -30.9167 -30.9166 -30.9166 -30.9165 -30.9165
   -30.9165 -30.9165 -30.9164 -30.9163 -30.9161 -30.9161 -30.9160 -30.9160
   -30.7986 -30.7985 -30.7985 -30.7984 -30.7984 -30.7983 -30.7983 -30.7982
   -30.7630 -30.7630 -30.7629 -30.7629 -30.7629 -30.7628 -30.7628 -30.7628
   -30.7627 -30.7627 -30.7627 -30.7627 -30.7626 -30.7626 -30.7626 -30.7626
   -30.7626 -30.7625 -30.7625 -30.7625 -30.7624 -30.7624 -30.7624 -30.7623
   -30.7108 -30.7107 -30.7107 -30.7107 -30.7106 -30.7106 -30.7105 -30.7105
   -30.7105 -30.7105 -30.7104 -30.7103 -30.7103 -30.7102 -30.7101 -30.7101
   -30.7100 -30.7100 -30.7100 -30.7099 -30.7099 -30.7099 -30.7099 -30.7099
   -30.6428 -30.6428 -30.6427 -30.6427 -30.6427 -30.6425 -30.6425 -30.6424
   -30.6423 -30.6422 -30.6422 -30.6421 -30.6420 -30.6420 -30.6419 -30.6419
    13.7353  13.7359  13.7359  13.7361  13.7362  13.7366  13.7366  13.7369
    14.5871  14.5872  14.5872  14.5872  14.5872  14.5873  14.5873  14.5874
    14.5874  14.5874  14.5875  14.5875  14.5876  14.5877  14.5877  14.5877
    14.5878  14.5878  14.5879  14.5879  14.5879  14.5879  14.5880  14.5880
    15.3342  15.3343  15.3345  15.3346  15.3346  15.3346  15.3346  15.3347
    15.3347  15.3348  15.3349  15.3349  15.3349  15.3350  15.3350  15.3351
    15.3352  15.3353  15.3353  15.3354  15.3354  15.3354  15.3355  15.3355
    16.2508  16.2510  16.2510  16.2511  16.2511  16.2511  16.2511  16.2512
    16.5544  16.5545  16.5545  16.5546  16.5546  16.5546  16.5547  16.5547
    16.5548  16.5549  16.5549  16.5549  16.5550  16.5550  16.5551  16.5551
    16.7375  16.7376  16.7376  16.7378  16.7378  16.7378  16.7378  16.7379
    16.7379  16.7379  16.7380  16.7380  16.7380  16.7380  16.7380  16.7381
    16.7381  16.7382  16.7382  16.7382  16.7382  16.7383  16.7383  16.7385
    17.4450  17.4450  17.4451  17.4451  17.4452  17.4453  17.4453  17.4454
    17.4454  17.4454  17.4455  17.4455  17.4456  17.4456  17.4456  17.4456
    17.4457  17.4458  17.4458  17.4458  17.4458  17.4459  17.4460  17.4462
    17.9423  17.9425  17.9425  17.9425  17.9426  17.9426  17.9426  17.9427
    17.9428  17.9429  17.9429  17.9430  17.9430  17.9431  17.9432  17.9432
    19.0160  19.0161  19.0161  19.0162  19.0162  19.0163  19.0163  19.0163
    19.0163  19.0164  19.0164  19.0164  19.0164  19.0165  19.0165  19.0165
    19.0165  19.0166  19.0166  19.0167  19.0167  19.0168  19.0168  19.0169
    22.5682  22.5683  22.5684  22.5684  22.5686  22.5686  22.5687  22.5687
    22.5687  22.5688  22.5688  22.5688  22.5689  22.5690  22.5690  22.5690
    22.5691  22.5692  22.5692  22.5693  22.5694  22.5694  22.5695  22.5695
    27.9756  27.9757  27.9757  27.9758  27.9758  27.9758  27.9758  27.9758
    27.9759  27.9760  27.9760  27.9761  27.9764  27.9764  27.9764  27.9764
    27.9764  27.9765  27.9766  27.9766  27.9767  27.9767  27.9767  27.9767
    33.1874  33.1888

     the Fermi energy is    19.0398 ev

!    total energy              =  -16384.95982327 Ry
     Harris-Foulkes estimate   =  -16384.95981062 Ry
     estimated scf accuracy    <       0.00000099 Ry

     total all-electron energy =   -322945.813530 Ry

     The total energy is the sum of the following terms:

     one-electron contribution =   -2517.70002624 Ry
     hartree contribution      =    1671.82674069 Ry
     xc contribution           =    -986.29326652 Ry
     ewald contribution        =   -6385.41451570 Ry
     one-center paw contrib.   =   -8167.41497413 Ry
     smearing contrib. (-TS)   =       0.03621864 Ry

     convergence has been achieved in  10 iterations

     Forces acting on atoms (cartesian axes, Ry/au):

     atom    1 type  1   force =     0.00000000    0.00000000   -0.00000000
     atom    2 type  1   force =     0.00006034    0.00006034   -0.00000000
     atom    3 type  1   force =     0.00006034    0.00000000    0.00006034
     atom    4 type  1   force =    -0.00000000    0.00006034    0.00006034
     atom    5 type  1   force =     0.00000000   -0.00000000    0.00000000
     atom    6 type  1   force =     0.00011970    0.00011970    0.00000000
     atom    7 type  1   force =     0.00006034    0.00000000   -0.00006034
     atom    8 type  1   force =     0.00000000    0.00006034   -0.00006034
     atom    9 type  1   force =     0.00000000    0.00000000    0.00000000
     atom   10 type  1   force =     0.00006034   -0.00006034    0.00000000
     atom   11 type  1   force =     0.00011970    0.00000000    0.00011970
     atom   12 type  1   force =     0.00000000   -0.00006034    0.00006034
     atom   13 type  1   force =     0.00000000    0.00000000   -0.00000000
     atom   14 type  1   force =     0.00011970   -0.00011970    0.00000000
     atom   15 type  1   force =     0.00011970    0.00000000   -0.00011970
     atom   16 type  1   force =     0.00000000   -0.00006034   -0.00006034
     atom   17 type  1   force =     0.00000000   -0.00000000   -0.00000000
     atom   18 type  1   force =    -0.00006034    0.00006034    0.00000000
     atom   19 type  1   force =    -0.00006034   -0.00000000    0.00006034
     atom   20 type  1   force =    -0.00000000    0.00011970    0.00011970
     atom   21 type  1   force =     0.00000000    0.00000000    0.00000000
     atom   22 type  1   force =    -0.00011970    0.00011970    0.00000000
     atom   23 type  1   force =    -0.00006034   -0.00000000   -0.00006034
     atom   24 type  1   force =    -0.00000000    0.00011970   -0.00011970
     atom   25 type  1   force =     0.00000000    0.00000000    0.00000000
     atom   26 type  1   force =    -0.00006034   -0.00006034    0.00000000
     atom   27 type  1   force =    -0.00011970    0.00000000    0.00011970
     atom   28 type  1   force =    -0.00000000   -0.00011970    0.00011970
     atom   29 type  1   force =     0.00000000    0.00000000   -0.00000000
     atom   30 type  1   force =    -0.00011970   -0.00011970   -0.00000000
     atom   31 type  1   force =    -0.00011970    0.00000000   -0.00011970
     atom   32 type  1   force =    -0.00000000   -0.00011970   -0.00011970

     Total force =     0.000657     Total SCF correction =     0.005891
     SCF correction compared to forces is large: reduce conv_thr to get better values


     Computing stress (Cartesian axis) and pressure

          total   stress  (Ry/bohr**3)                   (kbar)     P=  -16.97
  -0.00011534   0.00000000   0.00000000        -16.97      0.00      0.00
   0.00000000  -0.00011534   0.00000000          0.00    -16.97      0.00
   0.00000000   0.00000000  -0.00011534          0.00      0.00    -16.97


     Writing output data file aljDaXpofUbUnLrt.save/
 
     init_run     :     19.15s CPU     20.74s WALL (       1 calls)
     electrons    :    862.25s CPU    906.46s WALL (       1 calls)
     forces       :      8.58s CPU      8.91s WALL (       1 calls)
     stress       :     84.48s CPU     84.85s WALL (       1 calls)

     Called by init_run:
     wfcinit      :     18.44s CPU     19.96s WALL (       1 calls)
     potinit      :      0.30s CPU      0.32s WALL (       1 calls)
     hinit0       :      0.22s CPU      0.25s WALL (       1 calls)

     Called by electrons:
     c_bands      :    784.41s CPU    820.39s WALL (      11 calls)
     sum_band     :     74.13s CPU     82.03s WALL (      11 calls)
     v_of_rho     :      0.32s CPU      0.34s WALL (      11 calls)
     newd         :      0.77s CPU      1.00s WALL (      11 calls)
     PAW_pot      :      2.78s CPU      2.83s WALL (      11 calls)
     mix_rho      :      0.08s CPU      0.09s WALL (      11 calls)

     Called by c_bands:
     init_us_2    :      4.37s CPU      4.39s WALL (     875 calls)
     cegterg      :    759.52s CPU    795.38s WALL (     385 calls)

     Called by sum_band:
     sum_band:bec :      0.56s CPU      0.57s WALL (     385 calls)
     addusdens    :      0.83s CPU      1.10s WALL (      11 calls)

     Called by *egterg:
     h_psi        :    304.55s CPU    337.09s WALL (    1176 calls)
     s_psi        :     37.07s CPU     37.17s WALL (    1176 calls)
     g_psi        :      1.01s CPU      1.01s WALL (     756 calls)
     cdiaghg      :    298.36s CPU    299.18s WALL (    1106 calls)

     Called by h_psi:
     h_psi:pot    :    301.97s CPU    334.36s WALL (    1176 calls)
     h_psi:calbec :     38.75s CPU     40.56s WALL (    1176 calls)
     vloc_psi     :    226.21s CPU    256.65s WALL (    1176 calls)
     add_vuspsi   :     37.00s CPU     37.15s WALL (    1176 calls)

     General routines
     calbec       :     68.32s CPU     71.28s WALL (    1736 calls)
     fft          :      0.32s CPU      0.34s WALL (     168 calls)
     ffts         :      0.03s CPU      0.03s WALL (      22 calls)
     fftw         :    261.34s CPU    296.53s WALL (  745582 calls)
     interpolate  :      0.04s CPU      0.04s WALL (      11 calls)
 
     Parallel routines
     fft_scatt_xy :     21.32s CPU     23.79s WALL (  745772 calls)
     fft_scatt_yz :    172.08s CPU    197.11s WALL (  745772 calls)
 
     PWSCF        : 16m18.01s CPU    17m42.96s WALL

 
   This run was terminated on:   9:37:44  11Nov2020            

=------------------------------------------------------------------------------=
   JOB DONE.
=------------------------------------------------------------------------------=
