--------------------------------------------------------------------------
WARNING: No preset parameters were found for the device that Open MPI
detected:

  Local host:            bear-pg0206u14b
  Device name:           mlx5_0
  Device vendor ID:      0x02c9
  Device vendor part ID: 4123

Default device parameters will be used, which may result in lower
performance.  You can edit any of the files specified by the
btl_openib_device_param_files MCA parameter to set values for your
device.

NOTE: You can turn off this warning by setting the MCA parameter
      btl_openib_warn_no_device_params_found to 0.
--------------------------------------------------------------------------
--------------------------------------------------------------------------
WARNING: There was an error initializing an OpenFabrics device.

  Local host:   bear-pg0206u14b
  Local device: mlx5_0
--------------------------------------------------------------------------

     Program PWSCF v.6.3 starts on 11Nov2020 at  7:48:18 

     This program is part of the open-source Quantum ESPRESSO suite
     for quantum simulation of materials; please cite
         "P. Giannozzi et al., J. Phys.:Condens. Matter 21 395502 (2009);
         "P. Giannozzi et al., J. Phys.:Condens. Matter 29 465901 (2017);
          URL http://www.quantum-espresso.org", 
     in publications or presentations arising from this work. More details at
     http://www.quantum-espresso.org/quote

     Parallel version (MPI & OpenMP), running on      20 processor cores
     Number of MPI processes:                20
     Threads/MPI process:                     1

     MPI processes distributed on     1 nodes
     R & G space division:  proc/nbgrp/npool/nimage =      20
     Reading input from wd/eos/eos_001.in
Warning: card &IONS ignored
Warning: card ION_DYNAMICS = 'BFGS', ignored
Warning: card / ignored
Warning: card &CELL ignored
Warning: card CELL_DYNAMICS = 'BFGS', ignored
Warning: card CELL_FACTOR = 2.0, ignored
Warning: card PRESS = 0.0, ignored
Warning: card / ignored

     Current dimensions of program PWSCF are:
     Max number of different atomic species (ntypx) = 10
     Max number of k-points (npk) =  40000
     Max angular momentum in pseudopotentials (lmaxx) =  3
               file Pd.pbe-spn-kjpaw_psl.1.0.0.UPF: wavefunction(s)  4S 5S 4D renormalized

     Subspace diagonalization in iterative solution of the eigenvalue problem:
     a serial algorithm will be used

 
     Parallelization info
     --------------------
     sticks:   dense  smooth     PW     G-vecs:    dense   smooth      PW
     Min         372     246     67                24232    13000    1855
     Max         373     247     68                24236    13004    1858
     Sum        7441    4925   1353               484689   260019   37121
 


     bravais-lattice index     =            0
     lattice parameter (alat)  =      14.8394  a.u.
     unit-cell volume          =    3218.9928 (a.u.)^3
     number of atoms/cell      =           32
     number of atomic types    =            1
     number of electrons       =       576.00
     number of Kohn-Sham states=          346
     kinetic-energy cutoff     =      71.0000  Ry
     charge density cutoff     =     430.0000  Ry
     convergence threshold     =      1.0E-06
     mixing beta               =       0.1000
     number of iterations used =           10  plain     mixing
     Exchange-correlation      = SLA PW PBX PBC ( 1  4  3  4 0 0)

     celldm(1)=  14.839420  celldm(2)=   0.000000  celldm(3)=   0.000000
     celldm(4)=   0.000000  celldm(5)=   0.000000  celldm(6)=   0.000000

     crystal axes: (cart. coord. in units of alat)
               a(1) = (   0.995000   0.000000   0.000000 )  
               a(2) = (   0.000000   0.995000   0.000000 )  
               a(3) = (   0.000000   0.000000   0.995000 )  

     reciprocal axes: (cart. coord. in units 2 pi/alat)
               b(1) = (  1.005025  0.000000  0.000000 )  
               b(2) = (  0.000000  1.005025  0.000000 )  
               b(3) = (  0.000000  0.000000  1.005025 )  


     PseudoPot. # 1 for Pd read from file:
     /rds/homes/b/bxp912/pp/Pd.pbe-spn-kjpaw_psl.1.0.0.UPF
     MD5 check sum: 790f2ebce206edfd9790dcb9844eca51
     Pseudo is Projector augmented-wave + core cor, Zval = 18.0
     Generated using "atomic" code by A. Dal Corso v.6.3
     Shape of augmentation charge: PSQ
     Using radial grid of 1235 points,  6 beta functions with: 
                l(1) =   0
                l(2) =   0
                l(3) =   1
                l(4) =   1
                l(5) =   2
                l(6) =   2
     Q(r) pseudized with 0 coefficients 


     atomic species   valence    mass     pseudopotential
        Pd            18.00   106.42000     Pd( 1.00)

     48 Sym. Ops., with inversion, found



   Cartesian axes

     site n.     atom                  positions (alat units)
         1           Pd  tau(   1) = (   0.0000000   0.0000000   0.0000000  )
         2           Pd  tau(   2) = (   0.2487544   0.2487544   0.0000000  )
         3           Pd  tau(   3) = (   0.2487544   0.0000000   0.2487539  )
         4           Pd  tau(   4) = (   0.0000000   0.2487544   0.2487539  )
         5           Pd  tau(   5) = (   0.0000000   0.0000000   0.4974990  )
         6           Pd  tau(   6) = (   0.2487615   0.2487615   0.4974990  )
         7           Pd  tau(   7) = (   0.2487544   0.0000000   0.7462451  )
         8           Pd  tau(   8) = (   0.0000000   0.2487544   0.7462451  )
         9           Pd  tau(   9) = (   0.0000000   0.4974998   0.0000000  )
        10           Pd  tau(  10) = (   0.2487544   0.7462453   0.0000000  )
        11           Pd  tau(  11) = (   0.2487615   0.4974998   0.2487608  )
        12           Pd  tau(  12) = (   0.0000000   0.7462453   0.2487539  )
        13           Pd  tau(  13) = (   0.0000000   0.4974998   0.4974990  )
        14           Pd  tau(  14) = (   0.2487615   0.7462382   0.4974990  )
        15           Pd  tau(  15) = (   0.2487615   0.4974998   0.7462382  )
        16           Pd  tau(  16) = (   0.0000000   0.7462453   0.7462451  )
        17           Pd  tau(  17) = (   0.4974998   0.0000000   0.0000000  )
        18           Pd  tau(  18) = (   0.7462453   0.2487544   0.0000000  )
        19           Pd  tau(  19) = (   0.7462453   0.0000000   0.2487539  )
        20           Pd  tau(  20) = (   0.4974998   0.2487615   0.2487608  )
        21           Pd  tau(  21) = (   0.4974998   0.0000000   0.4974990  )
        22           Pd  tau(  22) = (   0.7462382   0.2487615   0.4974990  )
        23           Pd  tau(  23) = (   0.7462453   0.0000000   0.7462451  )
        24           Pd  tau(  24) = (   0.4974998   0.2487615   0.7462382  )
        25           Pd  tau(  25) = (   0.4974998   0.4974998   0.0000000  )
        26           Pd  tau(  26) = (   0.7462453   0.7462453   0.0000000  )
        27           Pd  tau(  27) = (   0.7462382   0.4974998   0.2487608  )
        28           Pd  tau(  28) = (   0.4974998   0.7462382   0.2487608  )
        29           Pd  tau(  29) = (   0.4974998   0.4974998   0.4974990  )
        30           Pd  tau(  30) = (   0.7462382   0.7462382   0.4974990  )
        31           Pd  tau(  31) = (   0.7462382   0.4974998   0.7462382  )
        32           Pd  tau(  32) = (   0.4974998   0.7462382   0.7462382  )

     number of k points=    35  Marzari-Vanderbilt smearing, width (Ry)=  0.0400
                       cart. coord. in units 2pi/alat
        k(    1) = (   0.0558347   0.0558347   0.0558347), wk =   0.0219479
        k(    2) = (   0.0558347   0.0558347   0.1675042), wk =   0.0658436
        k(    3) = (   0.0558347   0.0558347   0.2791736), wk =   0.0658436
        k(    4) = (   0.0558347   0.0558347   0.3908431), wk =   0.0658436
        k(    5) = (   0.0558347   0.0558347  -0.5025126), wk =   0.0329218
        k(    6) = (   0.0558347   0.1675042   0.1675042), wk =   0.0658436
        k(    7) = (   0.0558347   0.1675042   0.2791736), wk =   0.1316872
        k(    8) = (   0.0558347   0.1675042   0.3908431), wk =   0.1316872
        k(    9) = (   0.0558347   0.1675042  -0.5025126), wk =   0.0658436
        k(   10) = (   0.0558347   0.2791736   0.2791736), wk =   0.0658436
        k(   11) = (   0.0558347   0.2791736   0.3908431), wk =   0.1316872
        k(   12) = (   0.0558347   0.2791736  -0.5025126), wk =   0.0658436
        k(   13) = (   0.0558347   0.3908431   0.3908431), wk =   0.0658436
        k(   14) = (   0.0558347   0.3908431  -0.5025126), wk =   0.0658436
        k(   15) = (   0.0558347  -0.5025126  -0.5025126), wk =   0.0164609
        k(   16) = (   0.1675042   0.1675042   0.1675042), wk =   0.0219479
        k(   17) = (   0.1675042   0.1675042   0.2791736), wk =   0.0658436
        k(   18) = (   0.1675042   0.1675042   0.3908431), wk =   0.0658436
        k(   19) = (   0.1675042   0.1675042  -0.5025126), wk =   0.0329218
        k(   20) = (   0.1675042   0.2791736   0.2791736), wk =   0.0658436
        k(   21) = (   0.1675042   0.2791736   0.3908431), wk =   0.1316872
        k(   22) = (   0.1675042   0.2791736  -0.5025126), wk =   0.0658436
        k(   23) = (   0.1675042   0.3908431   0.3908431), wk =   0.0658436
        k(   24) = (   0.1675042   0.3908431  -0.5025126), wk =   0.0658436
        k(   25) = (   0.1675042  -0.5025126  -0.5025126), wk =   0.0164609
        k(   26) = (   0.2791736   0.2791736   0.2791736), wk =   0.0219479
        k(   27) = (   0.2791736   0.2791736   0.3908431), wk =   0.0658436
        k(   28) = (   0.2791736   0.2791736  -0.5025126), wk =   0.0329218
        k(   29) = (   0.2791736   0.3908431   0.3908431), wk =   0.0658436
        k(   30) = (   0.2791736   0.3908431  -0.5025126), wk =   0.0658436
        k(   31) = (   0.2791736  -0.5025126  -0.5025126), wk =   0.0164609
        k(   32) = (   0.3908431   0.3908431   0.3908431), wk =   0.0219479
        k(   33) = (   0.3908431   0.3908431  -0.5025126), wk =   0.0329218
        k(   34) = (   0.3908431  -0.5025126  -0.5025126), wk =   0.0164609
        k(   35) = (  -0.5025126  -0.5025126  -0.5025126), wk =   0.0027435

     Dense  grid:   484689 G-vectors     FFT dimensions: ( 100, 100, 100)

     Smooth grid:   260019 G-vectors     FFT dimensions: (  80,  80,  80)

     Estimated max dynamical RAM per process >     535.90 MB

     Estimated total dynamical RAM >      10.47 GB

     Check: negative/imaginary core charge=   -0.000002    0.000000

     Initial potential from superposition of free atoms

     starting charge  575.98776, renormalised to  576.00000
     Starting wfcs are  320 randomized atomic wfcs +   26 random wfcs
     Checking if some PAW data can be deallocated... 

     total cpu time spent up to now is       21.7 secs

     Self-consistent Calculation

     iteration #  1     ecut=    71.00 Ry     beta= 0.10
     Davidson diagonalization with overlap
     ethr =  1.00E-02,  avg # of iterations =  3.0

     Threshold (ethr) on eigenvalues was too large:
     Diagonalizing with lowered threshold

     Davidson diagonalization with overlap
     ethr =  7.49E-05,  avg # of iterations =  3.4

     total cpu time spent up to now is      236.3 secs

     total energy              =  -16385.00504399 Ry
     Harris-Foulkes estimate   =  -16385.06522564 Ry
     estimated scf accuracy    <       0.42696106 Ry

     iteration #  2     ecut=    71.00 Ry     beta= 0.10
     Davidson diagonalization with overlap
     ethr =  7.41E-05,  avg # of iterations =  1.0

     total cpu time spent up to now is      300.3 secs

     total energy              =  -16384.92064660 Ry
     Harris-Foulkes estimate   =  -16385.01180533 Ry
     estimated scf accuracy    <       0.23515296 Ry

     iteration #  3     ecut=    71.00 Ry     beta= 0.10
     Davidson diagonalization with overlap
     ethr =  4.08E-05,  avg # of iterations =  2.1

     total cpu time spent up to now is      388.5 secs

     total energy              =  -16384.95178311 Ry
     Harris-Foulkes estimate   =  -16384.95548747 Ry
     estimated scf accuracy    <       0.05242407 Ry

     iteration #  4     ecut=    71.00 Ry     beta= 0.10
     Davidson diagonalization with overlap
     ethr =  9.10E-06,  avg # of iterations =  2.3

     total cpu time spent up to now is      467.9 secs

     total energy              =  -16384.95124843 Ry
     Harris-Foulkes estimate   =  -16384.95359846 Ry
     estimated scf accuracy    <       0.02061359 Ry

     iteration #  5     ecut=    71.00 Ry     beta= 0.10
     Davidson diagonalization with overlap
     ethr =  3.58E-06,  avg # of iterations =  1.0

     total cpu time spent up to now is      532.3 secs

     total energy              =  -16384.94699388 Ry
     Harris-Foulkes estimate   =  -16384.95143704 Ry
     estimated scf accuracy    <       0.01309563 Ry

     iteration #  6     ecut=    71.00 Ry     beta= 0.10
     Davidson diagonalization with overlap
     ethr =  2.27E-06,  avg # of iterations =  2.1

     total cpu time spent up to now is      611.7 secs

     total energy              =  -16384.94794562 Ry
     Harris-Foulkes estimate   =  -16384.94799534 Ry
     estimated scf accuracy    <       0.00011401 Ry

     iteration #  7     ecut=    71.00 Ry     beta= 0.10
     Davidson diagonalization with overlap
     ethr =  1.98E-08,  avg # of iterations =  3.6

     total cpu time spent up to now is      761.1 secs

     total energy              =  -16384.94801096 Ry
     Harris-Foulkes estimate   =  -16384.94801235 Ry
     estimated scf accuracy    <       0.00005421 Ry

     iteration #  8     ecut=    71.00 Ry     beta= 0.10
     Davidson diagonalization with overlap
     ethr =  9.41E-09,  avg # of iterations =  1.5

     total cpu time spent up to now is      830.1 secs

     total energy              =  -16384.94800554 Ry
     Harris-Foulkes estimate   =  -16384.94801218 Ry
     estimated scf accuracy    <       0.00003595 Ry

     iteration #  9     ecut=    71.00 Ry     beta= 0.10
     Davidson diagonalization with overlap
     ethr =  6.24E-09,  avg # of iterations =  3.0

     total cpu time spent up to now is      940.1 secs

     total energy              =  -16384.94801435 Ry
     Harris-Foulkes estimate   =  -16384.94801098 Ry
     estimated scf accuracy    <       0.00000415 Ry

     iteration # 10     ecut=    71.00 Ry     beta= 0.10
     Davidson diagonalization with overlap
     ethr =  7.20E-10,  avg # of iterations =  1.0

     total cpu time spent up to now is     1004.4 secs

     End of self-consistent calculation

          k = 0.0558 0.0558 0.0558 ( 32528 PWs)   bands (ev):

   -64.5203 -64.4892 -64.4891 -64.4891 -64.4832 -64.4831 -64.4831 -64.4722
   -64.4721 -64.4720 -64.4695 -64.4692 -64.4690 -64.4690 -64.4688 -64.4688
   -64.4687 -64.4685 -64.4684 -64.4679 -64.4661 -64.4660 -64.4659 -64.4526
   -64.4521 -64.4521 -64.4519 -64.4518 -64.4517 -64.4516 -64.4515 -64.4511
   -30.4148 -30.4148 -30.4148 -30.4136 -30.3936 -30.3936 -30.3936 -30.3117
   -30.3116 -30.3116 -30.3069 -30.3069 -30.3069 -30.3069 -30.3069 -30.3068
   -30.2987 -30.2986 -30.2986 -30.2929 -30.2929 -30.2929 -30.2929 -30.2929
   -30.2928 -30.2732 -30.2732 -30.2732 -30.2732 -30.2732 -30.2731 -30.2300
   -30.2300 -30.2300 -30.2040 -30.2040 -30.2040 -30.1974 -30.1974 -30.1974
   -30.1875 -30.1875 -30.1875 -30.1875 -30.1875 -30.1875 -30.1716 -30.1716
   -30.1716 -30.1710 -30.1707 -30.1707 -30.1707 -30.1706 -30.1706 -30.1700
   -30.1700 -30.1698 -30.1683 -30.1683 -30.1682 -30.1015 -30.1015 -30.1014
   -30.1013 -30.1013 -30.1012 -30.0883 -30.0883 -30.0883 -30.0882 -30.0882
   -30.0882 -30.0845 -30.0844 -30.0844 -30.0801 -30.0798 -30.0797 -30.0789
   -30.0789 -30.0789 -30.0788 -30.0788 -30.0787 -30.0784 -30.0784 -30.0781
   -30.0773 -30.0773 -30.0714 -30.0714 -30.0714 -30.0231 -30.0205 -30.0205
    12.5760  14.3221  14.3221  14.3221  14.4010  14.4150  14.4150  14.4150
    14.6039  14.6039  14.6039  14.6236  14.6238  14.6238  14.8162  14.8163
    14.8164  15.3560  15.3560  15.3561  15.3561  15.3561  15.3563  15.5154
    15.5155  15.5155  15.6784  15.6785  15.6785  15.7063  15.7064  15.7064
    15.7608  15.7608  15.7608  15.7609  15.7609  15.7609  15.7610  15.7611
    15.7611  16.1070  16.1070  16.1070  16.1071  16.1071  16.1071  16.2168
    16.2169  16.2169  16.2391  16.2392  16.2392  16.2392  16.2392  16.2393
    16.2968  16.2969  16.2969  16.4710  16.4710  16.4710  16.4711  16.4711
    16.4711  16.5769  16.5769  16.5770  16.5808  16.5808  16.5808  16.5808
    16.5808  16.5810  16.6908  16.6910  16.6910  16.7596  16.7596  16.7596
    16.7811  16.7811  16.7919  16.7919  16.7919  16.8116  16.8317  16.8317
    17.6463  17.6464  17.6464  17.7081  17.7081  17.7082  17.7825  17.7825
    17.7825  17.7826  17.7826  17.7826  17.7887  17.7887  17.7888  17.8378
    17.8380  17.8380  17.9456  17.9456  17.9457  18.0664  18.0666  18.0666
    18.1955  18.1955  18.1956  18.2544  18.2544  18.2545  18.3276  18.3278
    18.3278  18.3278  18.3278  18.3278  18.3478  18.3479  18.3479  18.4000
    18.4000  18.4061  18.4061  18.4061  18.4061  18.4062  18.4063  18.5181
    18.5181  18.5182  18.9167  18.9167  18.9168  19.0211  19.0211  19.0211
    19.4094  19.4094  19.4094  19.5420  19.5420  19.5420  19.5694  19.5694
    19.5902  19.5902  19.5902  19.8259  19.8259  19.8259  19.8823  19.8824
    19.8824  19.8824  19.8824  19.8824  19.8856  19.8856  19.8857  20.5082
    20.8236  20.8236  20.8236  21.4008  21.4009  21.4009  21.9174  21.9175
    21.9175  21.9175  21.9175  21.9175  22.4526  22.4527  22.4527  22.9947
    22.9947  22.9947  26.8677  26.8677  26.8678  27.0242  27.9810  27.9810
    27.9810  27.9811  27.9811  27.9811  28.6800  28.6801  28.6801  28.6802
    28.6802  28.6802  30.1296  30.1296  30.1296  30.1296  30.1297  30.1297
    30.3229  30.3229  30.3229  31.2503  31.2775  31.2775  31.2775  31.2776
    31.2776  31.2777

          k = 0.0558 0.0558 0.1675 ( 32500 PWs)   bands (ev):

   -64.5193 -64.4950 -64.4886 -64.4885 -64.4827 -64.4826 -64.4772 -64.4753
   -64.4752 -64.4720 -64.4715 -64.4714 -64.4697 -64.4695 -64.4689 -64.4685
   -64.4682 -64.4680 -64.4660 -64.4656 -64.4655 -64.4634 -64.4633 -64.4530
   -64.4526 -64.4524 -64.4523 -64.4522 -64.4522 -64.4520 -64.4516 -64.4511
   -30.4121 -30.4106 -30.4106 -30.4075 -30.3901 -30.3901 -30.3880 -30.3237
   -30.3183 -30.3183 -30.3136 -30.3135 -30.3125 -30.3124 -30.3118 -30.3118
   -30.3097 -30.2997 -30.2997 -30.2966 -30.2965 -30.2916 -30.2915 -30.2878
   -30.2878 -30.2761 -30.2760 -30.2695 -30.2695 -30.2616 -30.2540 -30.2540
   -30.2350 -30.2350 -30.2201 -30.2201 -30.2040 -30.2040 -30.2032 -30.2032
   -30.1910 -30.1762 -30.1761 -30.1740 -30.1739 -30.1714 -30.1714 -30.1704
   -30.1703 -30.1679 -30.1677 -30.1677 -30.1661 -30.1654 -30.1650 -30.1650
   -30.1643 -30.1643 -30.1612 -30.1559 -30.1559 -30.1145 -30.1140 -30.1043
   -30.1042 -30.0982 -30.0981 -30.0922 -30.0922 -30.0911 -30.0911 -30.0888
   -30.0888 -30.0863 -30.0846 -30.0845 -30.0841 -30.0837 -30.0837 -30.0796
   -30.0795 -30.0795 -30.0790 -30.0787 -30.0781 -30.0762 -30.0760 -30.0760
   -30.0756 -30.0752 -30.0716 -30.0666 -30.0665 -30.0302 -30.0228 -30.0220
    12.6504  14.3247  14.3574  14.3694  14.3694  14.4296  14.4574  14.4574
    14.4710  14.6322  14.6471  14.6471  14.6757  14.6758  14.8691  14.8692
    14.8813  15.2684  15.2684  15.3330  15.3917  15.3918  15.3986  15.3987
    15.4403  15.5216  15.5216  15.5423  15.5424  15.5608  15.5735  15.5736
    15.7206  15.7207  15.7289  15.7290  15.7463  15.7464  15.7814  15.7814
    15.8328  15.8329  15.9005  16.0934  16.0934  16.1100  16.1101  16.1573
    16.1574  16.1667  16.1668  16.2262  16.2263  16.3159  16.3160  16.3308
    16.3785  16.3785  16.4282  16.4310  16.4311  16.4395  16.4395  16.4758
    16.4759  16.5208  16.5209  16.5487  16.5488  16.7177  16.7348  16.7349
    16.7365  16.7365  16.7566  16.7566  16.7741  16.7815  16.8031  16.8047
    16.8140  16.8288  16.8289  16.8369  16.8620  16.8646  16.8684  16.8684
    17.4509  17.4510  17.5644  17.5714  17.5904  17.5905  17.6461  17.6461
    17.6642  17.7127  17.7335  17.7335  17.8557  17.8668  17.8670  17.8803
    17.8804  17.9197  17.9197  17.9310  17.9311  18.1487  18.1488  18.1651
    18.1760  18.1761  18.2427  18.2428  18.3239  18.3240  18.3334  18.3335
    18.3363  18.3364  18.3580  18.4165  18.4166  18.4268  18.4268  18.4563
    18.5472  18.5472  18.5579  18.5580  18.5951  18.5952  18.6516  18.6698
    18.6698  18.6985  18.8159  18.9633  18.9634  19.0834  19.0952  19.0953
    19.1263  19.1364  19.1364  19.3576  19.4782  19.4782  19.5004  19.5179
    19.5619  19.5622  19.5622  19.5862  19.5862  19.7540  19.8088  19.8088
    19.8096  19.8096  19.8221  19.8814  19.8819  19.8824  19.8829  20.5121
    20.9300  20.9301  21.0050  21.0051  21.2381  21.3707  21.4207  21.4208
    21.8933  21.8933  22.4321  22.4916  22.4916  22.6324  23.0382  23.0382
    23.2947  23.2947  26.8654  27.0252  27.0252  27.2563  27.2563  27.2683
    27.2684  27.3201  27.8661  27.8661  28.1169  28.1170  28.8070  28.8071
    29.3257  29.3257  30.1785  30.1785  30.2859  30.3076  30.3076  30.4368
    30.4369  30.5120  30.5121  30.7216  30.7216  30.7762  30.8321  30.8321
    31.2712  31.2713

          k = 0.0558 0.0558 0.2792 ( 32508 PWs)   bands (ev):

   -64.5172 -64.5006 -64.4875 -64.4874 -64.4818 -64.4817 -64.4784 -64.4783
   -64.4741 -64.4740 -64.4719 -64.4716 -64.4702 -64.4695 -64.4689 -64.4685
   -64.4680 -64.4678 -64.4661 -64.4625 -64.4625 -64.4608 -64.4607 -64.4550
   -64.4535 -64.4534 -64.4532 -64.4532 -64.4526 -64.4520 -64.4516 -64.4511
   -30.4049 -30.4020 -30.4020 -30.3972 -30.3835 -30.3835 -30.3774 -30.3418
   -30.3358 -30.3358 -30.3300 -30.3300 -30.3272 -30.3151 -30.3151 -30.3128
   -30.3128 -30.3022 -30.3022 -30.2924 -30.2923 -30.2914 -30.2904 -30.2903
   -30.2769 -30.2769 -30.2750 -30.2749 -30.2632 -30.2632 -30.2439 -30.2439
   -30.2356 -30.2356 -30.2353 -30.2353 -30.2182 -30.2182 -30.2154 -30.2154
   -30.1809 -30.1809 -30.1716 -30.1701 -30.1699 -30.1680 -30.1677 -30.1632
   -30.1617 -30.1586 -30.1586 -30.1559 -30.1559 -30.1549 -30.1549 -30.1537
   -30.1537 -30.1451 -30.1409 -30.1409 -30.1349 -30.1269 -30.1261 -30.1100
   -30.1099 -30.1023 -30.1023 -30.1007 -30.1007 -30.0973 -30.0966 -30.0966
   -30.0929 -30.0929 -30.0924 -30.0924 -30.0861 -30.0838 -30.0805 -30.0796
   -30.0791 -30.0789 -30.0789 -30.0787 -30.0781 -30.0757 -30.0756 -30.0752
   -30.0719 -30.0645 -30.0645 -30.0634 -30.0628 -30.0422 -30.0275 -30.0264
    12.7974  13.9724  14.4256  14.4615  14.4615  14.5008  14.5416  14.5416
    14.5681  14.6885  14.7335  14.7335  14.7763  14.7764  14.8445  14.9714
    14.9715  15.1179  15.1179  15.1637  15.1873  15.2654  15.2654  15.3174
    15.4357  15.4358  15.4584  15.4585  15.4818  15.4819  15.4934  15.4934
    15.5956  15.5956  15.6199  15.6200  15.7262  15.7263  15.7729  15.7730
    15.8963  15.8963  16.0393  16.0393  16.0738  16.0738  16.0915  16.0920
    16.0920  16.1125  16.1126  16.1383  16.1384  16.2540  16.2541  16.3286
    16.3287  16.3789  16.3863  16.3864  16.4565  16.4565  16.4831  16.4832
    16.4890  16.4891  16.5557  16.5698  16.5699  16.6588  16.6954  16.6967
    16.6967  16.7561  16.7561  16.7622  16.8623  16.8979  16.8979  16.9149
    16.9280  16.9301  17.0794  17.0794  17.0969  17.1480  17.2405  17.2406
    17.2976  17.2976  17.3171  17.3171  17.3884  17.4712  17.4759  17.4759
    17.4937  17.5014  17.8043  17.8229  17.8229  17.9236  17.9236  17.9915
    17.9917  18.0074  18.0074  18.0669  18.0670  18.1007  18.1008  18.1659
    18.1660  18.2774  18.3107  18.3108  18.3135  18.3136  18.3359  18.3359
    18.3424  18.3425  18.4493  18.5430  18.5987  18.5988  18.6139  18.6139
    18.6277  18.7052  18.7200  18.7212  18.7535  18.7535  18.7615  18.7615
    18.8105  18.8105  18.8384  18.8546  18.8546  18.9188  19.1111  19.1111
    19.1698  19.1715  19.1715  19.2302  19.3279  19.3280  19.3811  19.3811
    19.3869  19.4661  19.4735  19.4736  19.4864  19.6152  19.6716  19.6716
    19.6729  19.6729  19.7053  19.8810  19.8815  19.8822  19.8826  20.4947
    20.4948  20.7013  20.9524  20.9525  21.2417  21.2417  21.3086  21.6218
    21.8417  21.8417  22.0205  22.3846  23.1333  23.1334  23.6850  23.6851
    23.7950  23.7950  26.3793  26.3793  26.5226  26.5226  26.9430  26.9431
    27.0339  27.3383  27.3383  27.7436  28.3698  28.3699  29.0501  29.0503
    29.3889  29.8368  29.8368  29.9377  29.9377  30.1866  30.1867  30.2774
    30.2774  30.3329  30.3329  30.5000  30.6000  30.6001  30.7612  30.7613
    30.7698  30.7699

          k = 0.0558 0.0558 0.3908 ( 32505 PWs)   bands (ev):

   -64.5143 -64.5058 -64.4858 -64.4858 -64.4812 -64.4811 -64.4804 -64.4803
   -64.4764 -64.4764 -64.4717 -64.4706 -64.4695 -64.4689 -64.4686 -64.4680
   -64.4674 -64.4664 -64.4663 -64.4597 -64.4597 -64.4585 -64.4584 -64.4580
   -64.4551 -64.4550 -64.4546 -64.4545 -64.4526 -64.4520 -64.4517 -64.4511
   -30.3935 -30.3893 -30.3892 -30.3830 -30.3738 -30.3738 -30.3623 -30.3609
   -30.3550 -30.3550 -30.3468 -30.3467 -30.3467 -30.3187 -30.3151 -30.3150
   -30.3096 -30.3095 -30.3078 -30.3078 -30.2978 -30.2977 -30.2794 -30.2793
   -30.2712 -30.2712 -30.2605 -30.2605 -30.2552 -30.2551 -30.2548 -30.2547
   -30.2493 -30.2493 -30.2320 -30.2320 -30.2296 -30.2296 -30.2187 -30.2187
   -30.1908 -30.1908 -30.1697 -30.1694 -30.1684 -30.1680 -30.1567 -30.1552
   -30.1506 -30.1421 -30.1420 -30.1416 -30.1416 -30.1408 -30.1408 -30.1395
   -30.1394 -30.1383 -30.1373 -30.1275 -30.1272 -30.1272 -30.1183 -30.1183
   -30.1142 -30.1142 -30.1140 -30.1139 -30.1122 -30.1062 -30.1051 -30.1050
   -30.1046 -30.1046 -30.0967 -30.0870 -30.0870 -30.0833 -30.0814 -30.0797
   -30.0791 -30.0787 -30.0782 -30.0777 -30.0776 -30.0742 -30.0730 -30.0729
   -30.0725 -30.0651 -30.0650 -30.0591 -30.0522 -30.0515 -30.0340 -30.0329
    13.0130  13.6164  14.5209  14.5934  14.5934  14.6138  14.6668  14.6668
    14.7046  14.7501  14.7716  14.8623  14.8623  14.9179  14.9180  14.9378
    14.9379  14.9600  15.0116  15.0321  15.0321  15.0845  15.1155  15.1156
    15.2437  15.2437  15.2680  15.2681  15.4663  15.4664  15.5454  15.5455
    15.6015  15.6016  15.6743  15.6744  15.6932  15.6932  15.8361  15.8362
    15.8910  15.8911  15.9028  15.9028  16.0034  16.0035  16.0452  16.0452
    16.0628  16.0629  16.1050  16.1050  16.1520  16.1520  16.2735  16.2982
    16.2983  16.3313  16.3313  16.4413  16.4894  16.4895  16.4902  16.4902
    16.5197  16.5197  16.5819  16.5884  16.6249  16.6437  16.6437  16.6756
    16.6757  16.7268  16.8078  16.8078  16.9525  16.9983  16.9983  17.0239
    17.0265  17.0278  17.0552  17.0552  17.0643  17.0643  17.2204  17.2663
    17.2663  17.3097  17.3151  17.3200  17.5011  17.5051  17.5051  17.5198
    17.7535  17.7535  17.8910  17.8910  17.8977  17.9171  17.9171  18.0907
    18.0909  18.1273  18.1274  18.1368  18.1369  18.1541  18.1542  18.1648
    18.1906  18.1906  18.2790  18.2790  18.3089  18.3212  18.3213  18.3241
    18.3242  18.3324  18.3324  18.3550  18.3550  18.4335  18.4975  18.5591
    18.5591  18.6352  18.7096  18.7096  18.8081  18.8081  18.8447  18.8828
    18.9712  18.9712  18.9751  19.0327  19.0399  19.0400  19.0621  19.0621
    19.2190  19.2190  19.2345  19.3320  19.3386  19.3386  19.3679  19.3709
    19.3761  19.3761  19.4185  19.4873  19.4873  19.4884  19.4884  19.5622
    19.6793  19.6793  19.7926  19.8809  19.8815  19.8820  19.8825  20.0887
    20.0888  20.5059  20.5060  20.9040  21.2117  21.2853  21.4586  21.4586
    21.7568  21.7568  21.9302  22.2974  23.8482  23.8482  24.4005  24.4005
    24.4075  24.4075  25.4854  25.4855  25.7934  25.7934  26.0383  26.0384
    27.3832  27.8010  27.8010  28.2850  28.5862  28.7275  28.7276  29.1200
    29.1200  29.3916  29.3918  29.6603  29.6603  29.6769  30.0730  30.0730
    30.2323  30.2323  30.2761  30.2762  30.7124  30.7125  30.7412  30.7413
    30.9620  30.9621

          k = 0.0558 0.0558-0.5025 ( 32520 PWs)   bands (ev):

   -64.5108 -64.5100 -64.4841 -64.4840 -64.4833 -64.4832 -64.4790 -64.4789
   -64.4782 -64.4781 -64.4715 -64.4708 -64.4695 -64.4689 -64.4686 -64.4680
   -64.4672 -64.4664 -64.4622 -64.4614 -64.4576 -64.4575 -64.4568 -64.4568
   -64.4567 -64.4567 -64.4560 -64.4559 -64.4526 -64.4520 -64.4517 -64.4511
   -30.3787 -30.3784 -30.3739 -30.3736 -30.3731 -30.3728 -30.3661 -30.3658
   -30.3619 -30.3618 -30.3611 -30.3611 -30.3430 -30.3422 -30.3126 -30.3125
   -30.3122 -30.3122 -30.3044 -30.3043 -30.3042 -30.3041 -30.2676 -30.2676
   -30.2672 -30.2672 -30.2619 -30.2619 -30.2612 -30.2612 -30.2453 -30.2452
   -30.2449 -30.2449 -30.2447 -30.2447 -30.2439 -30.2439 -30.2039 -30.2039
   -30.2032 -30.2032 -30.1695 -30.1690 -30.1687 -30.1681 -30.1487 -30.1479
   -30.1475 -30.1467 -30.1304 -30.1301 -30.1293 -30.1293 -30.1285 -30.1285
   -30.1282 -30.1281 -30.1278 -30.1278 -30.1274 -30.1274 -30.1271 -30.1271
   -30.1216 -30.1214 -30.1209 -30.1206 -30.1153 -30.1153 -30.1145 -30.1145
   -30.1110 -30.1107 -30.0828 -30.0820 -30.0819 -30.0818 -30.0816 -30.0815
   -30.0810 -30.0803 -30.0797 -30.0791 -30.0788 -30.0782 -30.0737 -30.0729
   -30.0682 -30.0682 -30.0679 -30.0679 -30.0428 -30.0420 -30.0417 -30.0410
    13.2895  13.2904  14.6337  14.6345  14.7557  14.7563  14.7566  14.7571
    14.7675  14.7676  14.8307  14.8307  14.8315  14.8315  14.8780  14.8781
    14.8796  14.8804  15.0325  15.0325  15.0333  15.0333  15.0876  15.0877
    15.0884  15.0884  15.2876  15.2877  15.2883  15.2884  15.6317  15.6318
    15.6320  15.6321  15.7487  15.7488  15.7495  15.7496  15.7772  15.7773
    15.7778  15.7779  15.9146  15.9147  15.9152  15.9153  16.0747  16.0748
    16.0749  16.0750  16.0824  16.0824  16.0825  16.0826  16.2989  16.2990
    16.2990  16.2991  16.4388  16.4396  16.4920  16.4921  16.4927  16.4928
    16.5131  16.5136  16.5822  16.5826  16.5830  16.5834  16.6797  16.6803
    16.8463  16.8464  16.8464  16.8465  16.9081  16.9082  16.9083  16.9083
    17.0730  17.0732  17.1260  17.1262  17.1267  17.1270  17.1550  17.1558
    17.1562  17.1570  17.1605  17.1608  17.9061  17.9062  17.9064  17.9065
    17.9101  17.9101  17.9102  17.9105  17.9107  17.9107  17.9538  17.9541
    18.0313  18.0321  18.1349  18.1351  18.1356  18.1357  18.2191  18.2192
    18.2198  18.2199  18.2282  18.2283  18.2287  18.2287  18.2358  18.2360
    18.2365  18.2366  18.2754  18.2754  18.2760  18.2761  18.4551  18.4551
    18.4558  18.4559  18.5595  18.5604  19.0223  19.0226  19.0231  19.0234
    19.0506  19.0508  19.1672  19.1674  19.1679  19.1681  19.1725  19.1732
    19.2029  19.2032  19.2135  19.2137  19.2703  19.2703  19.2709  19.2709
    19.2786  19.2786  19.2791  19.2791  19.4365  19.4369  19.7123  19.7124
    19.7124  19.7125  19.8809  19.8815  19.8818  19.8824  20.0796  20.0797
    20.0797  20.0798  20.5193  20.5200  21.0766  21.0774  21.6306  21.6307
    21.6314  21.6314  22.1518  22.1525  24.6350  24.6350  24.6353  24.6354
    25.0823  25.0823  25.0829  25.0829  25.1863  25.1863  25.1866  25.1866
    27.9077  27.9078  28.4004  28.4005  28.4012  28.4013  28.9335  28.9336
    29.1653  29.1654  29.1661  29.1661  29.8082  29.8083  29.8090  29.8091
    30.1693  30.1697  30.1701  30.1704  30.9119  30.9119  30.9128  30.9128
    31.1919  31.1924

          k = 0.0558 0.1675 0.1675 ( 32497 PWs)   bands (ev):

   -64.5183 -64.4944 -64.4943 -64.4880 -64.4822 -64.4790 -64.4769 -64.4768
   -64.4751 -64.4750 -64.4715 -64.4714 -64.4707 -64.4692 -64.4679 -64.4679
   -64.4676 -64.4675 -64.4656 -64.4655 -64.4635 -64.4634 -64.4612 -64.4533
   -64.4531 -64.4528 -64.4527 -64.4525 -64.4524 -64.4522 -64.4521 -64.4514
   -30.4094 -30.4094 -30.4048 -30.3999 -30.3867 -30.3850 -30.3850 -30.3265
   -30.3265 -30.3240 -30.3239 -30.3136 -30.3136 -30.3122 -30.3102 -30.3102
   -30.3093 -30.3092 -30.3089 -30.3089 -30.3004 -30.3004 -30.2984 -30.2984
   -30.2735 -30.2666 -30.2666 -30.2651 -30.2651 -30.2596 -30.2596 -30.2510
   -30.2509 -30.2404 -30.2365 -30.2109 -30.2058 -30.2058 -30.1911 -30.1911
   -30.1866 -30.1866 -30.1802 -30.1733 -30.1733 -30.1716 -30.1716 -30.1659
   -30.1656 -30.1654 -30.1653 -30.1649 -30.1636 -30.1636 -30.1615 -30.1614
   -30.1597 -30.1596 -30.1466 -30.1466 -30.1407 -30.1173 -30.1173 -30.1115
   -30.1115 -30.1016 -30.1000 -30.0980 -30.0919 -30.0919 -30.0917 -30.0916
   -30.0886 -30.0885 -30.0876 -30.0876 -30.0875 -30.0869 -30.0829 -30.0819
   -30.0818 -30.0806 -30.0782 -30.0781 -30.0773 -30.0763 -30.0762 -30.0761
   -30.0713 -30.0713 -30.0670 -30.0670 -30.0597 -30.0387 -30.0250 -30.0218
    12.7239  14.3778  14.3778  14.4050  14.4050  14.4119  14.4430  14.4846
    14.5252  14.5252  14.6751  14.6751  14.6936  14.7167  14.9078  14.9345
    14.9346  15.2911  15.2912  15.3119  15.3120  15.3528  15.3528  15.3638
    15.3638  15.4025  15.4335  15.4336  15.4663  15.4663  15.5813  15.5926
    15.5927  15.6024  15.6024  15.6513  15.7618  15.7933  15.7934  15.7999
    15.8000  15.8350  15.8350  15.9184  15.9185  16.0681  16.0681  16.1545
    16.1545  16.1638  16.2585  16.2586  16.2741  16.2742  16.3351  16.3351
    16.3485  16.4123  16.4123  16.4225  16.4226  16.4767  16.4767  16.5764
    16.6237  16.6238  16.6718  16.6718  16.6791  16.6791  16.7278  16.7537
    16.7861  16.7862  16.7902  16.7928  16.7928  16.8121  16.8122  16.8301
    16.8605  16.8622  16.8622  16.8630  16.8771  16.8872  16.8872  16.8943
    17.3485  17.4085  17.4085  17.4606  17.5691  17.5691  17.6794  17.7013
    17.7013  17.7030  17.7031  17.7607  17.7608  17.7845  17.7846  17.8430
    17.8473  17.8475  17.9305  18.0062  18.0158  18.0159  18.0348  18.0348
    18.0606  18.3194  18.3194  18.3386  18.3387  18.3463  18.4062  18.4137
    18.4138  18.4310  18.4327  18.4328  18.4404  18.4405  18.5251  18.5252
    18.5545  18.5545  18.7386  18.7386  18.7805  18.7909  18.7923  18.7923
    18.8291  18.8291  18.8447  18.8448  18.8990  18.8991  18.9279  18.9795
    19.1057  19.2077  19.2671  19.2671  19.4030  19.4065  19.4065  19.4259
    19.5257  19.5558  19.5558  19.5752  19.5752  19.5866  19.7490  19.7490
    19.8080  19.8081  19.8106  19.8106  19.8208  19.8208  19.8442  20.2327
    20.4914  20.8971  20.8972  20.9080  21.3955  21.3955  21.5409  21.5409
    21.9756  21.9756  22.4772  22.4772  22.9313  22.9313  23.0242  23.0243
    23.5637  23.6274  26.6357  26.6358  26.8624  26.8624  27.3253  27.3560
    27.3560  27.3948  27.3948  27.7264  28.0002  28.0002  28.4376  28.4378
    29.4543  29.4543  29.7626  29.7626  30.1558  30.2875  30.3042  30.3042
    30.4001  30.4001  30.6241  30.6242  30.7648  30.7648  31.1217  31.1217
    31.4050  31.4061

          k = 0.0558 0.1675 0.2792 ( 32511 PWs)   bands (ev):

   -64.5162 -64.4999 -64.4931 -64.4869 -64.4825 -64.4813 -64.4780 -64.4761
   -64.4748 -64.4739 -64.4717 -64.4713 -64.4713 -64.4698 -64.4696 -64.4673
   -64.4667 -64.4657 -64.4642 -64.4638 -64.4627 -64.4610 -64.4591 -64.4550
   -64.4539 -64.4537 -64.4537 -64.4533 -64.4529 -64.4525 -64.4521 -64.4514
   -30.4037 -30.4023 -30.3948 -30.3881 -30.3802 -30.3790 -30.3751 -30.3448
   -30.3411 -30.3301 -30.3270 -30.3270 -30.3266 -30.3265 -30.3163 -30.3157
   -30.3153 -30.3094 -30.3086 -30.3065 -30.3045 -30.3034 -30.3000 -30.2934
   -30.2851 -30.2714 -30.2680 -30.2612 -30.2574 -30.2559 -30.2519 -30.2500
   -30.2451 -30.2427 -30.2328 -30.2229 -30.2198 -30.2056 -30.2011 -30.1889
   -30.1868 -30.1848 -30.1784 -30.1726 -30.1706 -30.1670 -30.1659 -30.1653
   -30.1632 -30.1626 -30.1611 -30.1563 -30.1527 -30.1509 -30.1504 -30.1474
   -30.1461 -30.1439 -30.1328 -30.1322 -30.1298 -30.1262 -30.1242 -30.1232
   -30.1071 -30.1060 -30.1060 -30.1044 -30.1018 -30.1016 -30.1010 -30.1001
   -30.0950 -30.0922 -30.0910 -30.0888 -30.0887 -30.0881 -30.0843 -30.0839
   -30.0834 -30.0813 -30.0810 -30.0802 -30.0766 -30.0761 -30.0743 -30.0678
   -30.0659 -30.0655 -30.0652 -30.0588 -30.0556 -30.0520 -30.0295 -30.0243
    12.8690  14.0288  14.4736  14.4810  14.4951  14.4976  14.4977  14.5528
    14.6190  14.6316  14.7304  14.7605  14.7856  14.7940  14.8970  14.9801
    15.0381  15.1159  15.1286  15.1597  15.1979  15.2110  15.2157  15.2535
    15.3317  15.3523  15.3751  15.3896  15.3974  15.4254  15.4981  15.5106
    15.5154  15.5379  15.5683  15.6225  15.6603  15.6865  15.7184  15.8164
    15.8277  15.8418  15.8858  15.9525  15.9943  16.0102  16.0182  16.1049
    16.1123  16.1225  16.1417  16.1553  16.2081  16.2717  16.2790  16.3242
    16.3320  16.3433  16.4290  16.4831  16.5261  16.5305  16.5810  16.5927
    16.6093  16.6128  16.6248  16.6520  16.6870  16.7045  16.7113  16.7437
    16.7691  16.7886  16.8481  16.8798  16.9034  16.9212  16.9275  16.9332
    16.9549  16.9710  16.9770  16.9872  17.0038  17.1084  17.1925  17.2235
    17.2479  17.2563  17.2801  17.3738  17.3936  17.4959  17.5057  17.5201
    17.5924  17.6100  17.6222  17.6987  17.7027  17.7798  17.7881  17.8934
    17.9091  17.9318  17.9370  17.9920  18.0364  18.1227  18.1741  18.1799
    18.1970  18.2785  18.2870  18.3027  18.3357  18.3844  18.4206  18.4330
    18.4548  18.4947  18.4980  18.5488  18.5550  18.5657  18.5675  18.5772
    18.5806  18.6175  18.6937  18.7363  18.7561  18.7903  18.8121  18.8852
    18.8942  18.9268  18.9317  18.9345  18.9403  18.9609  18.9660  19.0531
    19.0595  19.0868  19.1801  19.2665  19.2952  19.3210  19.4000  19.4162
    19.4891  19.5306  19.5320  19.5364  19.6094  19.6365  19.6371  19.6379
    19.6718  19.6750  19.7115  19.8077  19.8116  19.8182  19.8227  20.0941
    20.2782  20.4613  20.8309  20.9279  20.9442  21.3443  21.4803  21.8397
    22.0384  22.3238  22.4428  22.6042  22.9851  23.1323  23.4211  23.6803
    24.0271  24.2711  25.7974  25.9800  26.4474  26.6715  26.8630  26.9558
    27.0331  27.4739  27.6824  27.6903  27.7532  28.2150  28.2320  28.8709
    28.9701  29.2617  29.4047  29.5835  29.6906  29.8020  30.0176  30.2401
    30.4017  30.4970  30.5188  30.7406  30.7740  30.9903  31.0922  31.1054
    31.3312  31.4355

          k = 0.0558 0.1675 0.3908 ( 32505 PWs)   bands (ev):

   -64.5133 -64.5050 -64.4912 -64.4858 -64.4853 -64.4808 -64.4800 -64.4761
   -64.4750 -64.4743 -64.4726 -64.4717 -64.4711 -64.4700 -64.4669 -64.4662
   -64.4659 -64.4658 -64.4643 -64.4610 -64.4600 -64.4588 -64.4579 -64.4572
   -64.4556 -64.4554 -64.4550 -64.4540 -64.4533 -64.4526 -64.4521 -64.4514
   -30.3938 -30.3912 -30.3811 -30.3729 -30.3706 -30.3702 -30.3634 -30.3606
   -30.3595 -30.3459 -30.3454 -30.3436 -30.3353 -30.3261 -30.3240 -30.3193
   -30.3191 -30.3187 -30.3172 -30.3132 -30.3034 -30.2991 -30.2962 -30.2881
   -30.2793 -30.2753 -30.2700 -30.2653 -30.2621 -30.2537 -30.2446 -30.2399
   -30.2377 -30.2369 -30.2326 -30.2268 -30.2194 -30.2160 -30.2146 -30.2035
   -30.1996 -30.1883 -30.1660 -30.1653 -30.1624 -30.1623 -30.1620 -30.1603
   -30.1559 -30.1545 -30.1523 -30.1441 -30.1413 -30.1403 -30.1394 -30.1384
   -30.1358 -30.1345 -30.1318 -30.1290 -30.1209 -30.1201 -30.1164 -30.1161
   -30.1161 -30.1156 -30.1153 -30.1135 -30.1132 -30.1129 -30.1129 -30.1015
   -30.0994 -30.0991 -30.0917 -30.0912 -30.0899 -30.0897 -30.0886 -30.0875
   -30.0864 -30.0853 -30.0791 -30.0785 -30.0771 -30.0746 -30.0723 -30.0696
   -30.0690 -30.0660 -30.0599 -30.0545 -30.0544 -30.0473 -30.0362 -30.0297
    13.0817  13.6772  14.5697  14.5937  14.6157  14.6277  14.6302  14.6613
    14.7512  14.7743  14.8012  14.8122  14.8880  14.8988  14.9052  14.9209
    14.9446  14.9775  14.9948  15.0079  15.0484  15.0767  15.1215  15.1406
    15.1535  15.1849  15.2647  15.2934  15.3028  15.3825  15.4985  15.5180
    15.5213  15.5489  15.5776  15.6335  15.6455  15.7745  15.7810  15.8049
    15.8332  15.8492  15.9137  15.9267  15.9475  15.9502  15.9537  15.9642
    15.9988  16.0423  16.1019  16.1352  16.1450  16.2048  16.2819  16.3096
    16.3380  16.3874  16.4990  16.5051  16.5367  16.5631  16.5794  16.5801
    16.5829  16.5869  16.6346  16.6699  16.6852  16.6925  16.7014  16.7264
    16.7737  16.8095  16.8232  16.9584  16.9609  17.0202  17.0278  17.0348
    17.0404  17.0436  17.0843  17.0963  17.1164  17.1833  17.1894  17.1965
    17.2784  17.2904  17.3125  17.3825  17.4121  17.4381  17.4780  17.4992
    17.6650  17.6750  17.6984  17.7175  17.7217  17.7506  17.8484  17.9437
    17.9459  17.9643  18.0271  18.0768  18.1290  18.1378  18.1488  18.1540
    18.1734  18.1758  18.2295  18.2621  18.3036  18.3269  18.3319  18.3335
    18.3958  18.4037  18.4507  18.4849  18.5071  18.5611  18.5898  18.5998
    18.6331  18.6336  18.6389  18.7779  18.7962  18.8005  18.8286  18.8340
    18.9485  18.9888  19.0325  19.0649  19.1030  19.1265  19.1298  19.1343
    19.1404  19.1454  19.1703  19.2338  19.2374  19.3389  19.3423  19.3683
    19.3940  19.4402  19.4420  19.4889  19.4893  19.4894  19.4941  19.5835
    19.6544  19.7324  19.8080  19.8126  19.8138  19.8159  20.0557  20.0721
    20.1776  20.4381  20.4829  20.7307  20.9992  21.0487  21.2669  21.6034
    22.0864  22.3770  22.4436  22.8975  23.3101  23.8630  24.0107  24.4067
    24.6092  24.9272  24.9780  25.3134  25.5350  25.9554  26.0640  26.5933
    27.0621  27.3867  27.9705  28.0468  28.0942  28.2981  28.5213  28.5989
    28.7879  28.8291  29.0258  29.3305  29.4662  29.6943  30.0186  30.1351
    30.2687  30.4204  30.4497  30.5906  30.6976  30.8610  30.8795  30.9161
    31.0032  31.2668

          k = 0.0558 0.1675-0.5025 ( 32540 PWs)   bands (ev):

   -64.5099 -64.5091 -64.4891 -64.4883 -64.4836 -64.4829 -64.4786 -64.4778
   -64.4739 -64.4739 -64.4731 -64.4731 -64.4710 -64.4702 -64.4667 -64.4660
   -64.4654 -64.4646 -64.4621 -64.4613 -64.4584 -64.4579 -64.4577 -64.4571
   -64.4571 -64.4563 -64.4558 -64.4551 -64.4533 -64.4526 -64.4521 -64.4514
   -30.3802 -30.3799 -30.3770 -30.3766 -30.3646 -30.3643 -30.3593 -30.3587
   -30.3585 -30.3579 -30.3552 -30.3548 -30.3423 -30.3416 -30.3229 -30.3228
   -30.3201 -30.3197 -30.3194 -30.3194 -30.2985 -30.2984 -30.2882 -30.2877
   -30.2755 -30.2751 -30.2750 -30.2747 -30.2541 -30.2537 -30.2443 -30.2438
   -30.2327 -30.2322 -30.2270 -30.2262 -30.2216 -30.2214 -30.2126 -30.2121
   -30.2013 -30.2006 -30.1660 -30.1653 -30.1622 -30.1618 -30.1520 -30.1512
   -30.1464 -30.1456 -30.1432 -30.1424 -30.1407 -30.1404 -30.1330 -30.1328
   -30.1303 -30.1298 -30.1279 -30.1277 -30.1265 -30.1261 -30.1258 -30.1255
   -30.1235 -30.1227 -30.1130 -30.1127 -30.1093 -30.1085 -30.1020 -30.1016
   -30.1015 -30.1008 -30.0965 -30.0961 -30.0913 -30.0909 -30.0886 -30.0878
   -30.0870 -30.0862 -30.0830 -30.0826 -30.0784 -30.0777 -30.0709 -30.0701
   -30.0694 -30.0691 -30.0561 -30.0559 -30.0450 -30.0442 -30.0378 -30.0373
    13.3546  13.3555  14.6836  14.6843  14.7300  14.7301  14.7681  14.7687
    14.7940  14.7949  14.8076  14.8084  14.8092  14.8092  14.9185  14.9193
    14.9196  14.9196  14.9500  14.9501  15.0186  15.0192  15.0562  15.0569
    15.0949  15.0955  15.1852  15.1856  15.3619  15.3626  15.4379  15.4381
    15.6374  15.6375  15.6433  15.6439  15.6759  15.6767  15.7810  15.7818
    15.8639  15.8640  15.8899  15.8906  15.9418  15.9421  15.9663  15.9666
    16.0176  16.0177  16.0510  16.0516  16.0558  16.0562  16.4169  16.4174
    16.4423  16.4429  16.4432  16.4438  16.4600  16.4606  16.5256  16.5257
    16.6266  16.6272  16.6408  16.6412  16.7442  16.7447  16.7834  16.7841
    16.8446  16.8448  16.8906  16.8906  16.9024  16.9026  17.0208  17.0209
    17.0672  17.0674  17.1359  17.1362  17.1537  17.1544  17.1570  17.1578
    17.2191  17.2194  17.2406  17.2408  17.7055  17.7060  17.7156  17.7161
    17.7612  17.7614  17.7737  17.7739  17.8003  17.8006  17.8488  17.8490
    17.9013  17.9019  18.0515  18.0523  18.0578  18.0584  18.1280  18.1284
    18.1422  18.1428  18.1776  18.1780  18.1873  18.1879  18.2562  18.2569
    18.3721  18.3728  18.4112  18.4118  18.4845  18.4852  18.5540  18.5548
    18.6839  18.6847  18.7353  18.7361  18.8088  18.8093  18.9833  18.9840
    19.0253  19.0255  19.0424  19.0431  19.1812  19.1815  19.2064  19.2065
    19.2697  19.2703  19.2973  19.2978  19.3013  19.3014  19.3079  19.3081
    19.3164  19.3169  19.3192  19.3197  19.4079  19.4081  19.4623  19.4625
    19.6792  19.6793  19.8092  19.8099  19.8138  19.8145  20.0574  20.0575
    20.5292  20.5294  20.5973  20.5981  20.8647  20.8654  21.1648  21.1656
    22.2632  22.2639  22.7272  22.7279  24.0887  24.0891  24.6505  24.6510
    24.6669  24.6672  25.2036  25.2039  25.2612  25.2619  25.7526  25.7529
    27.4777  27.4778  27.9162  27.9163  28.3512  28.3520  28.5052  28.5060
    28.8985  28.8993  28.9492  28.9493  29.5105  29.5107  29.8859  29.8861
    30.4162  30.4170  30.5892  30.5899  30.6141  30.6146  30.7123  30.7132
    31.3599  31.3603

          k = 0.0558 0.2792 0.2792 ( 32527 PWs)   bands (ev):

   -64.5143 -64.4985 -64.4984 -64.4865 -64.4859 -64.4804 -64.4776 -64.4775
   -64.4736 -64.4735 -64.4732 -64.4708 -64.4707 -64.4706 -64.4660 -64.4660
   -64.4657 -64.4656 -64.4630 -64.4629 -64.4616 -64.4615 -64.4575 -64.4551
   -64.4550 -64.4547 -64.4546 -64.4540 -64.4539 -64.4528 -64.4526 -64.4517
   -30.3984 -30.3984 -30.3838 -30.3753 -30.3738 -30.3702 -30.3702 -30.3447
   -30.3446 -30.3432 -30.3431 -30.3301 -30.3301 -30.3215 -30.3214 -30.3191
   -30.3191 -30.3158 -30.3158 -30.3137 -30.3137 -30.3035 -30.3016 -30.3016
   -30.2970 -30.2970 -30.2667 -30.2607 -30.2533 -30.2533 -30.2456 -30.2456
   -30.2382 -30.2358 -30.2273 -30.2272 -30.1994 -30.1978 -30.1977 -30.1867
   -30.1867 -30.1847 -30.1847 -30.1738 -30.1737 -30.1607 -30.1607 -30.1590
   -30.1590 -30.1588 -30.1573 -30.1572 -30.1521 -30.1521 -30.1436 -30.1435
   -30.1359 -30.1358 -30.1342 -30.1341 -30.1206 -30.1205 -30.1202 -30.1201
   -30.1148 -30.1148 -30.1122 -30.1121 -30.1031 -30.1030 -30.1011 -30.1003
   -30.1002 -30.0991 -30.0990 -30.0977 -30.0886 -30.0886 -30.0871 -30.0859
   -30.0846 -30.0835 -30.0781 -30.0771 -30.0770 -30.0763 -30.0710 -30.0709
   -30.0669 -30.0664 -30.0664 -30.0531 -30.0531 -30.0494 -30.0341 -30.0245
    13.0103  14.1391  14.1392  14.5331  14.5630  14.5672  14.5673  14.6018
    14.7310  14.7310  14.8140  14.8140  14.8271  14.8864  14.9687  14.9989
    14.9990  14.9991  15.0491  15.0491  15.1521  15.1522  15.1657  15.1657
    15.2410  15.2411  15.2663  15.2663  15.4367  15.4418  15.4419  15.4488
    15.4489  15.5447  15.5447  15.5747  15.5747  15.6232  15.6233  15.7055
    15.7055  15.7847  15.9052  15.9052  15.9127  15.9127  15.9358  16.1282
    16.1283  16.1555  16.1556  16.1672  16.1673  16.1757  16.1839  16.4365
    16.4365  16.5090  16.5090  16.5999  16.5999  16.6011  16.6012  16.6472
    16.6512  16.6512  16.6777  16.6778  16.6955  16.7925  16.8197  16.8243
    16.8244  16.9190  16.9190  16.9345  16.9665  16.9907  17.0045  17.0265
    17.0266  17.0281  17.0754  17.0754  17.0923  17.0924  17.1033  17.1402
    17.2427  17.2427  17.2673  17.2673  17.4377  17.4378  17.4946  17.4947
    17.5769  17.5769  17.6323  17.6735  17.7255  17.7256  17.7571  17.7572
    17.7758  17.7759  17.8462  17.8517  17.9973  17.9974  18.1308  18.2154
    18.2154  18.2358  18.2358  18.2485  18.2661  18.3576  18.3576  18.4357
    18.4681  18.5322  18.5323  18.5898  18.5899  18.6371  18.6372  18.6794
    18.6795  18.7930  18.7930  18.7953  18.7954  18.8132  18.8160  18.8161
    18.8161  18.8693  18.8693  19.0310  19.0761  19.1022  19.1022  19.1075
    19.1076  19.1125  19.1125  19.2175  19.2211  19.2522  19.3839  19.3839
    19.4618  19.5417  19.5417  19.5583  19.5733  19.5733  19.6743  19.6744
    19.6780  19.6780  19.7020  19.7020  19.7391  19.7591  20.0481  20.0843
    20.0843  20.3952  20.3953  20.7648  20.8807  20.8808  22.0881  22.0881
    22.4345  22.4345  22.8048  22.8048  23.1201  23.1201  23.6517  23.6518
    24.4413  24.9036  25.1978  25.1978  26.4606  26.4607  26.8606  26.8606
    26.9525  26.9525  27.4418  27.4418  28.0577  28.0579  28.2653  28.3857
    28.3857  28.7954  28.9036  28.9036  28.9784  30.1095  30.2690  30.2690
    30.4409  30.4409  30.8297  30.8684  31.1355  31.1356  31.2840  31.2840
    31.5283  31.5283

          k = 0.0558 0.2792 0.3908 ( 32550 PWs)   bands (ev):

   -64.5114 -64.5033 -64.4963 -64.4902 -64.4844 -64.4801 -64.4792 -64.4768
   -64.4756 -64.4745 -64.4731 -64.4715 -64.4699 -64.4673 -64.4658 -64.4650
   -64.4645 -64.4634 -64.4622 -64.4621 -64.4604 -64.4595 -64.4577 -64.4562
   -64.4561 -64.4560 -64.4559 -64.4549 -64.4541 -64.4535 -64.4526 -64.4518
   -30.3901 -30.3890 -30.3694 -30.3643 -30.3631 -30.3626 -30.3603 -30.3592
   -30.3573 -30.3427 -30.3417 -30.3417 -30.3377 -30.3341 -30.3294 -30.3291
   -30.3284 -30.3213 -30.3210 -30.3202 -30.3137 -30.3106 -30.3028 -30.3016
   -30.3001 -30.2858 -30.2762 -30.2741 -30.2647 -30.2517 -30.2385 -30.2344
   -30.2303 -30.2194 -30.2180 -30.2114 -30.2107 -30.2105 -30.2011 -30.1978
   -30.1835 -30.1774 -30.1745 -30.1696 -30.1668 -30.1662 -30.1602 -30.1583
   -30.1555 -30.1535 -30.1523 -30.1475 -30.1461 -30.1447 -30.1407 -30.1342
   -30.1337 -30.1330 -30.1323 -30.1320 -30.1290 -30.1233 -30.1201 -30.1194
   -30.1180 -30.1159 -30.1111 -30.1109 -30.1092 -30.1066 -30.1064 -30.1059
   -30.0994 -30.0984 -30.0975 -30.0941 -30.0925 -30.0923 -30.0917 -30.0915
   -30.0857 -30.0838 -30.0823 -30.0800 -30.0785 -30.0784 -30.0779 -30.0736
   -30.0683 -30.0679 -30.0595 -30.0486 -30.0462 -30.0424 -30.0407 -30.0277
    13.2174  13.7966  14.2980  14.6070  14.6649  14.6657  14.6884  14.7014
    14.7256  14.8650  14.8674  14.8725  14.8750  14.8933  14.9007  14.9388
    14.9675  14.9717  14.9859  15.0291  15.0299  15.0543  15.1159  15.1221
    15.1442  15.1918  15.2275  15.2399  15.3065  15.3313  15.3568  15.3699
    15.4096  15.5125  15.5176  15.5540  15.5957  15.6235  15.6250  15.6757
    15.6924  15.7429  15.7710  15.8107  15.8491  15.9603  16.0020  16.0211
    16.0426  16.0929  16.1558  16.1878  16.2135  16.2375  16.2937  16.4032
    16.4165  16.4185  16.5057  16.5628  16.5706  16.6271  16.6763  16.6779
    16.7141  16.7162  16.7229  16.7595  16.7913  16.8116  16.8358  16.9266
    16.9308  16.9701  16.9925  16.9944  17.0095  17.0347  17.0445  17.0756
    17.0796  17.0818  17.0947  17.1813  17.1821  17.2025  17.2076  17.2234
    17.2358  17.3148  17.3149  17.3162  17.3965  17.4158  17.4856  17.5017
    17.5108  17.5488  17.5723  17.5821  17.5943  17.6331  17.6546  17.7580
    17.8696  17.8747  17.8910  17.9048  17.9102  17.9224  17.9913  18.0109
    18.0379  18.0765  18.1366  18.1534  18.1688  18.2507  18.4163  18.4619
    18.4697  18.4842  18.4999  18.5065  18.6350  18.6388  18.6555  18.6696
    18.6705  18.7173  18.8258  18.8472  18.8478  18.8575  18.9164  18.9298
    18.9337  19.0079  19.0380  19.0718  19.0780  19.1398  19.1677  19.2387
    19.2536  19.2537  19.2655  19.2658  19.2765  19.2772  19.3072  19.3298
    19.4238  19.4796  19.4858  19.4870  19.4925  19.4942  19.4974  19.5067
    19.5581  19.6222  19.6806  19.6816  19.6930  19.7171  19.9916  20.0629
    20.2988  20.4419  20.5754  20.6686  20.7139  20.8166  21.5792  22.0837
    22.7532  22.7777  22.9569  23.0748  23.3695  23.5576  23.8746  24.3596
    24.3860  24.5858  24.9789  25.5797  25.5931  25.9698  26.2605  26.8742
    27.0643  27.1286  27.2849  27.4009  27.6519  27.6759  27.9405  28.1182
    28.3928  28.4403  28.6161  28.8667  29.4298  29.7336  30.3107  30.4233
    30.4952  30.5321  30.5953  30.6972  30.7716  30.8968  31.4229  31.4335
    31.5939  31.6575

          k = 0.0558 0.2792-0.5025 ( 32544 PWs)   bands (ev):

   -64.5081 -64.5074 -64.4939 -64.4931 -64.4828 -64.4820 -64.4780 -64.4772
   -64.4761 -64.4754 -64.4727 -64.4720 -64.4691 -64.4683 -64.4645 -64.4637
   -64.4637 -64.4629 -64.4618 -64.4610 -64.4593 -64.4585 -64.4585 -64.4579
   -64.4577 -64.4571 -64.4550 -64.4549 -64.4543 -64.4542 -64.4526 -64.4518
   -30.3781 -30.3779 -30.3763 -30.3760 -30.3542 -30.3534 -30.3526 -30.3525
   -30.3522 -30.3518 -30.3410 -30.3409 -30.3406 -30.3403 -30.3370 -30.3370
   -30.3363 -30.3361 -30.3266 -30.3261 -30.3066 -30.3061 -30.3052 -30.3045
   -30.2888 -30.2884 -30.2741 -30.2740 -30.2690 -30.2686 -30.2246 -30.2244
   -30.2229 -30.2226 -30.2157 -30.2153 -30.2099 -30.2091 -30.1975 -30.1973
   -30.1963 -30.1955 -30.1596 -30.1589 -30.1584 -30.1576 -30.1565 -30.1557
   -30.1535 -30.1533 -30.1523 -30.1521 -30.1467 -30.1465 -30.1446 -30.1438
   -30.1330 -30.1324 -30.1298 -30.1296 -30.1232 -30.1228 -30.1227 -30.1223
   -30.1141 -30.1133 -30.1113 -30.1108 -30.1077 -30.1075 -30.1057 -30.1054
   -30.0999 -30.0991 -30.0961 -30.0956 -30.0954 -30.0949 -30.0939 -30.0936
   -30.0884 -30.0876 -30.0852 -30.0848 -30.0805 -30.0798 -30.0720 -30.0717
   -30.0711 -30.0703 -30.0497 -30.0489 -30.0461 -30.0460 -30.0339 -30.0337
    13.4827  13.4837  14.4969  14.4978  14.7189  14.7190  14.7807  14.7815
    14.8017  14.8022  14.8120  14.8121  14.8675  14.8683  14.9262  14.9266
    14.9963  14.9971  15.0314  15.0315  15.0467  15.0468  15.0690  15.0692
    15.1033  15.1041  15.2076  15.2080  15.2505  15.2506  15.3206  15.3212
    15.4943  15.4951  15.5109  15.5114  15.5935  15.5936  15.6609  15.6611
    15.6662  15.6670  15.8487  15.8493  15.8876  15.8876  15.8996  15.9003
    16.1764  16.1764  16.1787  16.1791  16.2898  16.2900  16.3008  16.3014
    16.3229  16.3236  16.4412  16.4418  16.6538  16.6544  16.7457  16.7463
    16.7550  16.7551  16.7817  16.7823  16.8269  16.8271  16.8436  16.8436
    16.8906  16.8908  17.0442  17.0443  17.0911  17.0917  17.1042  17.1044
    17.1232  17.1232  17.1585  17.1591  17.1635  17.1641  17.1766  17.1769
    17.3367  17.3370  17.3605  17.3608  17.5166  17.5167  17.5255  17.5260
    17.5354  17.5359  17.5981  17.5982  17.6129  17.6131  17.6280  17.6283
    17.6903  17.6909  17.9540  17.9547  17.9561  17.9565  18.0107  18.0113
    18.0405  18.0410  18.0683  18.0690  18.0705  18.0708  18.3659  18.3666
    18.3705  18.3710  18.5653  18.5660  18.5923  18.5929  18.6060  18.6067
    18.7708  18.7715  18.9017  18.9025  18.9065  18.9073  19.0306  19.0313
    19.0547  19.0554  19.1005  19.1005  19.1503  19.1504  19.1505  19.1508
    19.2754  19.2761  19.3032  19.3032  19.3307  19.3311  19.3788  19.3791
    19.3809  19.3813  19.3968  19.3970  19.4021  19.4023  19.4179  19.4179
    19.6155  19.6157  19.6860  19.6868  19.6931  19.6936  20.0226  20.0228
    20.1791  20.1799  20.7496  20.7503  21.0746  21.0749  21.3506  21.3512
    22.9632  22.9639  23.3388  23.3395  23.5408  23.5413  23.9711  23.9716
    24.6999  24.7001  25.1766  25.1767  25.5950  25.5956  26.3446  26.3448
    27.1324  27.1325  27.4903  27.4905  27.5533  27.5540  27.8490  27.8498
    28.0248  28.0255  29.1859  29.1860  29.5509  29.5511  30.1318  30.1319
    30.4432  30.4441  30.5765  30.5774  30.9856  30.9864  31.1813  31.1813
    31.8378  31.8386

          k = 0.0558 0.3908 0.3908 ( 32538 PWs)   bands (ev):

   -64.5087 -64.5010 -64.5010 -64.4943 -64.4830 -64.4792 -64.4791 -64.4781
   -64.4762 -64.4750 -64.4749 -64.4728 -64.4652 -64.4651 -64.4634 -64.4634
   -64.4631 -64.4630 -64.4612 -64.4611 -64.4604 -64.4603 -64.4577 -64.4575
   -64.4572 -64.4571 -64.4566 -64.4565 -64.4549 -64.4532 -64.4530 -64.4521
   -30.3827 -30.3827 -30.3584 -30.3584 -30.3575 -30.3574 -30.3550 -30.3548
   -30.3524 -30.3524 -30.3427 -30.3413 -30.3413 -30.3381 -30.3381 -30.3292
   -30.3291 -30.3224 -30.3223 -30.3214 -30.3213 -30.3201 -30.3201 -30.3070
   -30.3046 -30.3046 -30.2889 -30.2739 -30.2688 -30.2514 -30.2514 -30.2243
   -30.2155 -30.2155 -30.2031 -30.2030 -30.1955 -30.1875 -30.1875 -30.1822
   -30.1822 -30.1813 -30.1813 -30.1764 -30.1764 -30.1567 -30.1566 -30.1521
   -30.1521 -30.1519 -30.1518 -30.1499 -30.1480 -30.1480 -30.1459 -30.1458
   -30.1423 -30.1423 -30.1295 -30.1294 -30.1268 -30.1268 -30.1259 -30.1214
   -30.1214 -30.1108 -30.1108 -30.1080 -30.1079 -30.1079 -30.1078 -30.1053
   -30.0990 -30.0985 -30.0985 -30.0973 -30.0972 -30.0945 -30.0915 -30.0870
   -30.0869 -30.0839 -30.0822 -30.0822 -30.0819 -30.0796 -30.0776 -30.0706
   -30.0706 -30.0667 -30.0667 -30.0475 -30.0408 -30.0392 -30.0392 -30.0285
    13.4158  13.9700  13.9700  14.4468  14.6540  14.7480  14.7482  14.8013
    14.8013  14.8463  14.8464  14.8510  14.9629  14.9629  14.9913  15.0054
    15.0054  15.0142  15.0142  15.0144  15.0145  15.0428  15.0428  15.1623
    15.1624  15.1792  15.1949  15.2331  15.2331  15.3443  15.3444  15.3477
    15.3478  15.3692  15.3692  15.4148  15.4148  15.5514  15.5515  15.5656
    15.5656  15.5967  15.5967  15.8342  15.8342  15.8878  16.0786  16.0787
    16.0833  16.0834  16.1852  16.2520  16.2927  16.2927  16.2999  16.2999
    16.3164  16.5120  16.6206  16.6207  16.6763  16.8008  16.8117  16.8118
    16.8509  16.8509  16.8580  16.8581  16.8584  16.8584  16.8979  16.8979
    16.9251  16.9381  17.0855  17.0971  17.1104  17.1104  17.1204  17.1465
    17.1672  17.1771  17.1771  17.1981  17.2002  17.2003  17.3172  17.3174
    17.3283  17.3283  17.3316  17.3317  17.3474  17.3474  17.4493  17.4494
    17.4563  17.4737  17.5466  17.5466  17.5488  17.6156  17.6574  17.6575
    17.6591  17.6700  17.6700  17.6913  17.6914  17.7166  17.7167  17.8817
    17.9925  17.9926  18.0108  18.0108  18.1234  18.1868  18.1868  18.2186
    18.3800  18.5305  18.6271  18.6272  18.6726  18.6726  18.7651  18.7652
    18.8385  18.8386  18.8916  18.8917  18.9499  18.9499  18.9508  19.0597
    19.0597  19.1563  19.1825  19.1838  19.1851  19.1852  19.1889  19.1889
    19.1943  19.1944  19.2612  19.3336  19.3647  19.3647  19.3696  19.3696
    19.3808  19.4714  19.4714  19.4986  19.4986  19.5015  19.5016  19.5057
    19.5299  19.5300  19.5308  19.5309  19.6309  19.7007  19.8176  19.9023
    19.9023  20.3977  20.3977  20.4825  21.1870  21.1870  22.2463  22.2463
    22.6303  22.6303  23.4009  23.4009  23.7831  23.7831  23.8421  23.8422
    24.2613  24.2613  25.4452  25.4452  25.4717  26.2555  26.6774  26.6775
    26.8808  26.8809  27.1193  27.1193  27.2810  27.2811  27.6882  27.6882
    27.7830  27.7854  27.7857  29.0841  29.5037  30.0866  30.4403  30.4427
    30.4428  30.5720  30.9715  30.9716  31.1287  31.1287  31.5638  31.5639
    31.9864  31.9865

          k = 0.0558 0.3908-0.5025 ( 32540 PWs)   bands (ev):

   -64.5056 -64.5048 -64.4984 -64.4976 -64.4816 -64.4808 -64.4782 -64.4774
   -64.4770 -64.4762 -64.4744 -64.4736 -64.4647 -64.4639 -64.4625 -64.4621
   -64.4617 -64.4613 -64.4613 -64.4605 -64.4600 -64.4594 -64.4592 -64.4591
   -64.4587 -64.4583 -64.4574 -64.4567 -64.4543 -64.4535 -64.4530 -64.4523
   -30.3724 -30.3722 -30.3718 -30.3714 -30.3514 -30.3512 -30.3511 -30.3511
   -30.3463 -30.3456 -30.3435 -30.3427 -30.3388 -30.3382 -30.3381 -30.3377
   -30.3317 -30.3312 -30.3243 -30.3239 -30.3226 -30.3220 -30.3188 -30.3180
   -30.3050 -30.3045 -30.2870 -30.2866 -30.2637 -30.2636 -30.2378 -30.2377
   -30.2013 -30.2011 -30.1979 -30.1977 -30.1939 -30.1931 -30.1889 -30.1882
   -30.1733 -30.1732 -30.1688 -30.1680 -30.1677 -30.1670 -30.1656 -30.1655
   -30.1626 -30.1625 -30.1505 -30.1499 -30.1454 -30.1453 -30.1420 -30.1413
   -30.1358 -30.1352 -30.1334 -30.1333 -30.1277 -30.1276 -30.1257 -30.1252
   -30.1182 -30.1180 -30.1177 -30.1176 -30.1042 -30.1041 -30.1038 -30.1035
   -30.1034 -30.1030 -30.0993 -30.0990 -30.0898 -30.0891 -30.0884 -30.0881
   -30.0868 -30.0865 -30.0854 -30.0847 -30.0763 -30.0757 -30.0755 -30.0754
   -30.0744 -30.0737 -30.0566 -30.0559 -30.0385 -30.0384 -30.0323 -30.0322
    13.6698  13.6708  14.1898  14.1907  14.7343  14.7344  14.8397  14.8398
    14.8411  14.8414  14.8647  14.8650  14.9199  14.9207  14.9690  14.9692
    14.9706  14.9714  15.0895  15.0897  15.1126  15.1135  15.1637  15.1638
    15.1677  15.1678  15.1735  15.1743  15.2177  15.2183  15.2893  15.2901
    15.3575  15.3578  15.3815  15.3820  15.4541  15.4549  15.4652  15.4654
    15.4771  15.4772  15.7161  15.7162  15.9400  15.9406  15.9463  15.9471
    16.1755  16.1761  16.1827  16.1834  16.2887  16.2890  16.4219  16.4222
    16.4307  16.4310  16.5784  16.5784  16.6645  16.6651  16.8079  16.8084
    16.8567  16.8567  16.8751  16.8752  16.9835  16.9836  17.0190  17.0192
    17.1058  17.1064  17.1616  17.1618  17.1686  17.1687  17.1691  17.1696
    17.1751  17.1753  17.1941  17.1944  17.2624  17.2626  17.2834  17.2834
    17.3096  17.3097  17.3728  17.3731  17.3757  17.3761  17.3865  17.3869
    17.3935  17.3940  17.4242  17.4244  17.5132  17.5135  17.5155  17.5160
    17.5437  17.5439  17.7409  17.7412  17.8510  17.8514  17.8656  17.8660
    17.9006  17.9008  17.9283  17.9288  17.9416  17.9423  18.0486  18.0493
    18.5112  18.5119  18.6281  18.6287  18.7835  18.7841  18.7966  18.7973
    18.8102  18.8109  18.9323  18.9326  19.0321  19.0328  19.0692  19.0699
    19.0809  19.0811  19.1076  19.1083  19.2178  19.2179  19.2884  19.2890
    19.2935  19.2941  19.3569  19.3572  19.3841  19.3844  19.4022  19.4024
    19.4328  19.4330  19.4357  19.4361  19.4509  19.4511  19.4554  19.4556
    19.5124  19.5132  19.5318  19.5319  19.5692  19.5695  19.8093  19.8100
    20.0110  20.0112  20.3881  20.3887  21.7151  21.7154  21.8841  21.8847
    22.9888  22.9893  23.2030  23.2034  23.7014  23.7020  23.9355  23.9360
    24.6555  24.6556  24.9489  24.9491  26.0481  26.0488  26.9227  26.9228
    26.9376  26.9376  27.0441  27.0445  27.1485  27.1486  27.2518  27.2523
    27.3321  27.3326  28.4173  28.4175  30.2066  30.2067  30.4238  30.4248
    30.4901  30.4910  30.7988  30.7989  31.5345  31.5353  31.6369  31.6370
    31.6786  31.6787

          k = 0.0558-0.5025-0.5025 ( 32528 PWs)   bands (ev):

   -64.5024 -64.5022 -64.5016 -64.5014 -64.4802 -64.4799 -64.4794 -64.4791
   -64.4759 -64.4757 -64.4752 -64.4749 -64.4611 -64.4610 -64.4607 -64.4607
   -64.4606 -64.4606 -64.4604 -64.4604 -64.4603 -64.4602 -64.4599 -64.4599
   -64.4599 -64.4598 -64.4596 -64.4596 -64.4537 -64.4535 -64.4530 -64.4527
   -30.3633 -30.3633 -30.3632 -30.3632 -30.3631 -30.3630 -30.3630 -30.3630
   -30.3360 -30.3359 -30.3357 -30.3357 -30.3353 -30.3353 -30.3351 -30.3351
   -30.3323 -30.3320 -30.3315 -30.3312 -30.3219 -30.3218 -30.3215 -30.3214
   -30.3059 -30.3058 -30.3055 -30.3054 -30.2510 -30.2510 -30.2510 -30.2510
   -30.1810 -30.1810 -30.1810 -30.1809 -30.1809 -30.1809 -30.1809 -30.1809
   -30.1798 -30.1798 -30.1796 -30.1795 -30.1791 -30.1790 -30.1788 -30.1788
   -30.1498 -30.1498 -30.1498 -30.1497 -30.1393 -30.1391 -30.1391 -30.1390
   -30.1389 -30.1388 -30.1385 -30.1384 -30.1384 -30.1382 -30.1382 -30.1380
   -30.1118 -30.1118 -30.1117 -30.1116 -30.1113 -30.1112 -30.1111 -30.1110
   -30.0958 -30.0957 -30.0955 -30.0953 -30.0908 -30.0908 -30.0908 -30.0907
   -30.0816 -30.0816 -30.0816 -30.0816 -30.0796 -30.0794 -30.0792 -30.0791
   -30.0657 -30.0655 -30.0650 -30.0647 -30.0338 -30.0338 -30.0338 -30.0338
    13.9087  13.9093  13.9096  13.9102  14.7755  14.7757  14.7757  14.7759
    14.8921  14.8922  14.8922  14.8922  14.9604  14.9605  14.9606  14.9607
    15.0927  15.0927  15.0932  15.0932  15.0935  15.0935  15.0939  15.0940
    15.2663  15.2664  15.2668  15.2669  15.2670  15.2672  15.2675  15.2676
    15.3117  15.3117  15.3118  15.3118  15.3118  15.3119  15.3119  15.3120
    15.5321  15.5322  15.5323  15.5323  16.0516  16.0517  16.0520  16.0521
    16.0523  16.0524  16.0527  16.0528  16.3718  16.3720  16.3720  16.3722
    16.6191  16.6194  16.6197  16.6200  16.8158  16.8161  16.8164  16.8167
    16.9395  16.9397  16.9399  16.9400  16.9525  16.9527  16.9528  16.9529
    17.1805  17.1807  17.1809  17.1811  17.2080  17.2080  17.2081  17.2082
    17.2082  17.2082  17.2083  17.2084  17.2636  17.2637  17.2637  17.2640
    17.2706  17.2707  17.2710  17.2710  17.3805  17.3806  17.3809  17.3809
    17.5031  17.5032  17.5033  17.5034  17.5035  17.5036  17.5037  17.5038
    17.6700  17.6703  17.6703  17.6706  17.6843  17.6844  17.6845  17.6845
    17.6847  17.6848  17.6849  17.6849  17.9921  17.9923  17.9928  17.9930
    18.6610  18.6612  18.6617  18.6619  18.7545  18.7547  18.7550  18.7552
    18.9548  18.9550  18.9550  18.9551  18.9554  18.9556  18.9556  18.9557
    19.2860  19.2861  19.2864  19.2865  19.3127  19.3127  19.3128  19.3129
    19.3132  19.3134  19.3134  19.3135  19.4298  19.4299  19.4302  19.4303
    19.4627  19.4627  19.4627  19.4627  19.4629  19.4629  19.4629  19.4630
    19.4630  19.4633  19.4633  19.4634  19.5243  19.5245  19.5247  19.5249
    20.1173  20.1175  20.1178  20.1180  22.4343  22.4345  22.4346  22.4346
    22.4348  22.4349  22.4350  22.4352  24.4116  24.4117  24.4117  24.4119
    24.4119  24.4121  24.4121  24.4122  26.5835  26.5839  26.5842  26.5846
    26.9526  26.9526  26.9526  26.9527  26.9528  26.9528  26.9529  26.9529
    27.6881  27.6884  27.6885  27.6886  30.4414  30.4417  30.4424  30.4426
    30.9163  30.9164  30.9165  30.9165  31.5123  31.5124  31.5124  31.5125
    32.0856  32.0859

          k = 0.1675 0.1675 0.1675 ( 32528 PWs)   bands (ev):

   -64.5173 -64.4938 -64.4937 -64.4937 -64.4788 -64.4787 -64.4787 -64.4765
   -64.4764 -64.4764 -64.4723 -64.4685 -64.4680 -64.4679 -64.4678 -64.4677
   -64.4677 -64.4675 -64.4674 -64.4669 -64.4615 -64.4614 -64.4614 -64.4536
   -64.4531 -64.4531 -64.4529 -64.4528 -64.4527 -64.4526 -64.4526 -64.4521
   -30.4052 -30.4052 -30.4052 -30.3906 -30.3821 -30.3821 -30.3821 -30.3268
   -30.3268 -30.3268 -30.3192 -30.3192 -30.3192 -30.3191 -30.3191 -30.3191
   -30.3135 -30.3135 -30.3135 -30.3134 -30.3134 -30.3134 -30.2842 -30.2842
   -30.2842 -30.2690 -30.2690 -30.2690 -30.2535 -30.2535 -30.2535 -30.2534
   -30.2534 -30.2534 -30.2198 -30.2198 -30.2198 -30.1815 -30.1815 -30.1815
   -30.1776 -30.1776 -30.1775 -30.1765 -30.1765 -30.1765 -30.1765 -30.1764
   -30.1764 -30.1630 -30.1630 -30.1630 -30.1596 -30.1596 -30.1596 -30.1595
   -30.1595 -30.1595 -30.1323 -30.1323 -30.1323 -30.1163 -30.1163 -30.1163
   -30.1123 -30.1123 -30.1123 -30.0974 -30.0974 -30.0973 -30.0940 -30.0940
   -30.0939 -30.0877 -30.0876 -30.0876 -30.0876 -30.0876 -30.0875 -30.0839
   -30.0839 -30.0838 -30.0751 -30.0751 -30.0751 -30.0740 -30.0740 -30.0727
   -30.0727 -30.0726 -30.0603 -30.0602 -30.0602 -30.0476 -30.0242 -30.0242
    12.7962  14.4227  14.4229  14.4229  14.4405  14.4472  14.4473  14.4473
    14.5640  14.5640  14.5640  14.7214  14.7214  14.7214  14.9716  14.9717
    14.9718  15.2241  15.2242  15.2242  15.3318  15.3318  15.3319  15.3319
    15.3319  15.3320  15.4078  15.4079  15.4079  15.5558  15.5559  15.5559
    15.5625  15.5625  15.5625  15.5626  15.5626  15.5626  15.8059  15.8059
    15.8059  15.8059  15.8059  15.8060  15.9448  15.9449  15.9449  16.2423
    16.2425  16.2425  16.3360  16.3361  16.3361  16.3361  16.3361  16.3362
    16.4031  16.4032  16.4032  16.4930  16.4931  16.4931  16.4931  16.4931
    16.4932  16.6466  16.6466  16.6466  16.7376  16.8180  16.8180  16.8181
    16.8181  16.8181  16.8181  16.8300  16.8300  16.8300  16.8313  16.8313
    16.8924  16.8925  16.8925  16.9054  16.9054  16.9292  16.9292  16.9292
    17.3298  17.3299  17.3299  17.5037  17.5037  17.5038  17.6402  17.6403
    17.6403  17.6908  17.6909  17.6909  17.8171  17.8171  17.8172  17.8658
    17.8658  17.8658  17.8659  17.8659  17.8660  18.1612  18.1613  18.1613
    18.2083  18.2083  18.2084  18.2876  18.2876  18.2878  18.3668  18.3668
    18.4161  18.4163  18.4163  18.4163  18.4163  18.4163  18.6335  18.6335
    18.6335  18.7363  18.7363  18.7364  18.7364  18.7364  18.7365  18.8569
    18.8569  18.8571  18.8918  18.8918  18.8919  19.2323  19.2323  19.2323
    19.2381  19.2381  19.2382  19.3217  19.3217  19.3217  19.3756  19.3756
    19.3756  19.4201  19.4201  19.6000  19.6000  19.6000  19.6295  19.7503
    19.7503  19.7504  19.7504  19.7504  19.7504  19.8129  19.8129  19.8129
    20.4550  20.4551  20.4551  21.5877  21.5878  21.5878  21.9629  21.9629
    21.9629  21.9629  21.9629  21.9630  23.1948  23.1948  23.1948  23.6160
    23.6160  23.6160  26.7483  26.7483  26.7483  26.7483  26.7483  26.7484
    27.0251  27.0251  27.0251  28.2118  28.5496  28.5496  28.5496  28.5498
    28.5498  28.5498  29.2390  29.2390  29.2390  30.7440  30.7440  30.7440
    30.8690  30.8690  30.8690  30.8691  30.8691  30.8691  31.0742  31.0742
    31.0743  31.0743

          k = 0.1675 0.1675 0.2792 ( 32508 PWs)   bands (ev):

   -64.5153 -64.4991 -64.4925 -64.4924 -64.4822 -64.4821 -64.4782 -64.4758
   -64.4757 -64.4738 -64.4710 -64.4698 -64.4697 -64.4685 -64.4679 -64.4675
   -64.4669 -64.4662 -64.4643 -64.4643 -64.4619 -64.4595 -64.4594 -64.4549
   -64.4541 -64.4540 -64.4536 -64.4535 -64.4534 -64.4530 -64.4527 -64.4521
   -30.4011 -30.3970 -30.3969 -30.3774 -30.3761 -30.3761 -30.3727 -30.3458
   -30.3351 -30.3351 -30.3286 -30.3286 -30.3252 -30.3252 -30.3249 -30.3249
   -30.3191 -30.3191 -30.3137 -30.3137 -30.3123 -30.3122 -30.3014 -30.2958
   -30.2760 -30.2760 -30.2677 -30.2677 -30.2560 -30.2559 -30.2435 -30.2435
   -30.2377 -30.2377 -30.2327 -30.2327 -30.1969 -30.1954 -30.1954 -30.1912
   -30.1911 -30.1859 -30.1859 -30.1724 -30.1623 -30.1623 -30.1611 -30.1610
   -30.1604 -30.1604 -30.1593 -30.1591 -30.1585 -30.1530 -30.1518 -30.1518
   -30.1497 -30.1497 -30.1303 -30.1241 -30.1204 -30.1204 -30.1192 -30.1187
   -30.1187 -30.1090 -30.1086 -30.1085 -30.1053 -30.1053 -30.1006 -30.1006
   -30.1003 -30.1003 -30.0963 -30.0890 -30.0889 -30.0877 -30.0875 -30.0868
   -30.0858 -30.0856 -30.0791 -30.0791 -30.0761 -30.0709 -30.0675 -30.0674
   -30.0633 -30.0616 -30.0614 -30.0594 -30.0564 -30.0564 -30.0285 -30.0257
    12.9391  14.0796  14.4780  14.5092  14.5093  14.5154  14.5301  14.5301
    14.6412  14.6412  14.6787  14.7767  14.8132  14.8132  14.9336  15.0158
    15.0415  15.0416  15.0813  15.0814  15.1657  15.1658  15.2449  15.3131
    15.3131  15.3655  15.3656  15.3877  15.4101  15.4102  15.4760  15.4761
    15.4972  15.4972  15.5138  15.5139  15.5556  15.5556  15.6344  15.6344
    15.8171  15.8172  15.8375  15.8376  15.9970  15.9970  16.1251  16.1600
    16.1601  16.1857  16.1857  16.2275  16.2557  16.2557  16.3489  16.3490
    16.3793  16.3793  16.4733  16.4734  16.4767  16.4767  16.5518  16.6035
    16.6035  16.6703  16.6807  16.7416  16.7416  16.8274  16.8275  16.8275
    16.8275  16.8352  16.8352  16.8510  16.8666  16.9335  16.9335  16.9529
    16.9619  17.0067  17.0067  17.0179  17.0268  17.1156  17.2117  17.2117
    17.2137  17.2137  17.3250  17.3257  17.4339  17.4340  17.4565  17.5076
    17.5076  17.6009  17.6009  17.6509  17.6708  17.6708  17.9278  17.9280
    17.9608  17.9609  18.0029  18.0080  18.0347  18.0347  18.1598  18.1599
    18.2085  18.2086  18.2869  18.2871  18.2920  18.3309  18.3309  18.3315
    18.3657  18.3658  18.4074  18.4093  18.4093  18.4377  18.5174  18.5821
    18.5822  18.7415  18.7837  18.7838  18.9253  18.9254  18.9310  18.9478
    18.9478  18.9578  18.9578  18.9643  18.9643  19.0255  19.0255  19.0525
    19.1644  19.1697  19.1697  19.2745  19.2761  19.2832  19.2832  19.3558
    19.5658  19.5835  19.5835  19.6408  19.6408  19.6431  19.6431  19.6438
    19.6439  19.7388  19.7535  19.7535  19.7549  19.7782  19.7967  19.7967
    20.0573  20.0573  20.3824  21.4711  21.4712  21.6658  21.6658  21.9361
    21.9361  22.2350  22.5819  22.6084  22.6085  23.5733  23.6434  23.6434
    24.2633  24.2634  25.8850  25.8851  26.1077  26.1077  26.8574  26.9135
    26.9136  27.3468  27.3468  27.6701  27.6701  28.3685  28.7330  28.7330
    28.7651  28.7653  28.7731  29.0869  29.0869  29.9716  29.9716  30.3591
    30.3592  30.6817  30.6817  31.0229  31.0229  31.2502  31.2502  31.4640
    31.4641  31.5221

          k = 0.1675 0.1675 0.3908 ( 32529 PWs)   bands (ev):

   -64.5124 -64.5042 -64.4907 -64.4906 -64.4854 -64.4853 -64.4774 -64.4751
   -64.4747 -64.4747 -64.4716 -64.4715 -64.4685 -64.4679 -64.4675 -64.4669
   -64.4660 -64.4649 -64.4626 -64.4612 -64.4611 -64.4578 -64.4577 -64.4576
   -64.4559 -64.4559 -64.4546 -64.4545 -64.4536 -64.4530 -64.4527 -64.4521
   -30.3928 -30.3850 -30.3850 -30.3675 -30.3675 -30.3644 -30.3608 -30.3591
   -30.3529 -30.3529 -30.3433 -30.3433 -30.3275 -30.3274 -30.3242 -30.3241
   -30.3222 -30.3221 -30.3214 -30.3201 -30.3154 -30.3153 -30.3039 -30.3039
   -30.2849 -30.2848 -30.2559 -30.2559 -30.2498 -30.2498 -30.2437 -30.2437
   -30.2318 -30.2318 -30.2226 -30.2226 -30.2125 -30.2125 -30.2053 -30.2053
   -30.1963 -30.1963 -30.1725 -30.1648 -30.1602 -30.1600 -30.1591 -30.1589
   -30.1524 -30.1492 -30.1492 -30.1434 -30.1428 -30.1428 -30.1411 -30.1410
   -30.1382 -30.1381 -30.1349 -30.1279 -30.1279 -30.1276 -30.1260 -30.1152
   -30.1151 -30.1143 -30.1143 -30.1113 -30.1113 -30.1063 -30.1063 -30.1049
   -30.1028 -30.1027 -30.0946 -30.0923 -30.0922 -30.0897 -30.0879 -30.0875
   -30.0868 -30.0864 -30.0861 -30.0861 -30.0822 -30.0796 -30.0679 -30.0631
   -30.0615 -30.0615 -30.0555 -30.0555 -30.0525 -30.0476 -30.0348 -30.0304
    13.1485  13.7340  14.5556  14.6106  14.6297  14.6298  14.6502  14.6502
    14.7561  14.7561  14.8254  14.8277  14.8387  14.8587  14.9283  14.9284
    14.9480  14.9480  14.9796  14.9796  15.0939  15.0939  15.0961  15.1364
    15.1365  15.1918  15.3262  15.3262  15.3647  15.3648  15.4035  15.4036
    15.4753  15.4753  15.5166  15.5167  15.6326  15.6326  15.6650  15.6650
    15.8348  15.8349  15.8968  15.8968  15.9861  15.9862  16.0249  16.0250
    16.0722  16.0722  16.0904  16.0905  16.2634  16.2635  16.2743  16.2960
    16.4309  16.4309  16.4511  16.5029  16.5029  16.5492  16.5492  16.5817
    16.6508  16.6509  16.6621  16.6621  16.7903  16.8359  16.8360  16.8384
    16.8384  16.8510  16.9356  16.9609  16.9610  17.0386  17.0462  17.0993
    17.0994  17.1134  17.1134  17.1531  17.1532  17.1532  17.1555  17.1556
    17.1680  17.2601  17.2949  17.3581  17.4145  17.4733  17.5149  17.5149
    17.5329  17.5329  17.5755  17.5755  17.6401  17.6401  17.9837  17.9837
    17.9967  18.0258  18.0426  18.0428  18.0572  18.0573  18.1572  18.1573
    18.1859  18.1859  18.1905  18.1905  18.1907  18.2871  18.2872  18.3127
    18.3128  18.3400  18.3556  18.3759  18.3759  18.4670  18.5355  18.5355
    18.6363  18.6687  18.7415  18.7799  18.7800  18.8696  18.8696  18.9401
    19.0802  19.0802  19.0956  19.1035  19.1035  19.1315  19.1472  19.1472
    19.1501  19.1501  19.1722  19.1722  19.1791  19.1792  19.2187  19.4729
    19.4865  19.4987  19.4987  19.4993  19.4993  19.5011  19.5011  19.6758
    19.6963  19.6964  19.7588  19.7588  19.7801  19.7801  19.9477  20.0789
    20.0790  20.2732  20.4098  20.9948  20.9948  21.7528  21.7528  21.8583
    21.8929  21.8929  22.7956  23.3339  23.3340  23.4573  24.1998  24.1998
    24.9736  24.9736  24.9928  24.9929  25.4574  25.4574  26.5445  26.5446
    26.8730  27.4594  27.4594  27.6412  27.8185  27.8185  28.2511  28.2511
    29.0701  29.0702  29.1503  29.1503  29.4062  29.6072  29.6072  29.8820
    29.8821  30.4943  30.4943  30.8720  30.9984  30.9984  31.1824  31.1824
    31.3895  31.3896

          k = 0.1675 0.1675-0.5025 ( 32550 PWs)   bands (ev):

   -64.5090 -64.5082 -64.4886 -64.4886 -64.4879 -64.4878 -64.4767 -64.4760
   -64.4737 -64.4736 -64.4729 -64.4728 -64.4685 -64.4679 -64.4675 -64.4669
   -64.4641 -64.4633 -64.4619 -64.4611 -64.4587 -64.4586 -64.4579 -64.4579
   -64.4564 -64.4563 -64.4556 -64.4555 -64.4536 -64.4530 -64.4527 -64.4521
   -30.3804 -30.3801 -30.3706 -30.3702 -30.3698 -30.3694 -30.3569 -30.3568
   -30.3561 -30.3560 -30.3420 -30.3420 -30.3417 -30.3412 -30.3273 -30.3273
   -30.3270 -30.3270 -30.3186 -30.3186 -30.3184 -30.3183 -30.2948 -30.2947
   -30.2943 -30.2943 -30.2518 -30.2518 -30.2515 -30.2515 -30.2312 -30.2312
   -30.2309 -30.2309 -30.2192 -30.2192 -30.2186 -30.2186 -30.2089 -30.2089
   -30.2084 -30.2084 -30.1599 -30.1595 -30.1592 -30.1588 -30.1554 -30.1547
   -30.1492 -30.1490 -30.1449 -30.1441 -30.1381 -30.1380 -30.1373 -30.1372
   -30.1284 -30.1283 -30.1279 -30.1279 -30.1264 -30.1264 -30.1264 -30.1262
   -30.1261 -30.1261 -30.1257 -30.1255 -30.1014 -30.1011 -30.0974 -30.0973
   -30.0969 -30.0969 -30.0957 -30.0956 -30.0949 -30.0949 -30.0927 -30.0924
   -30.0920 -30.0920 -30.0878 -30.0873 -30.0870 -30.0865 -30.0657 -30.0649
   -30.0575 -30.0574 -30.0573 -30.0572 -30.0432 -30.0424 -30.0378 -30.0376
    13.4168  13.4178  14.6727  14.6728  14.7229  14.7237  14.7733  14.7734
    14.7740  14.7741  14.8021  14.8026  14.8028  14.8032  14.9071  14.9071
    14.9079  14.9080  14.9655  14.9664  14.9992  14.9993  15.1210  15.1211
    15.1216  15.1216  15.2472  15.2473  15.2475  15.2476  15.4397  15.4398
    15.4398  15.4399  15.6221  15.6221  15.6228  15.6229  15.8113  15.8114
    15.8115  15.8115  15.8753  15.8754  15.8759  15.8760  15.9852  15.9853
    15.9854  15.9855  16.1646  16.1647  16.1651  16.1651  16.3542  16.3547
    16.4503  16.4510  16.4891  16.4893  16.4898  16.4900  16.5654  16.5655
    16.5658  16.5659  16.8325  16.8330  16.8396  16.8397  16.8402  16.8402
    16.8927  16.8928  16.8928  16.8929  17.0135  17.0136  17.0136  17.0137
    17.0367  17.0368  17.1490  17.1496  17.1572  17.1580  17.2290  17.2292
    17.2294  17.2296  17.3039  17.3042  17.5544  17.5544  17.5549  17.5550
    17.6398  17.6399  17.6401  17.6401  17.7191  17.7193  17.8252  17.8255
    18.0796  18.0803  18.0856  18.0856  18.0859  18.0859  18.1057  18.1059
    18.1064  18.1065  18.1815  18.1816  18.1821  18.1822  18.2600  18.2601
    18.2606  18.2608  18.3022  18.3023  18.3028  18.3028  18.5436  18.5443
    18.6599  18.6606  18.8909  18.8910  18.9498  18.9498  18.9747  18.9747
    18.9754  18.9754  18.9767  18.9770  18.9774  18.9778  19.3314  19.3314
    19.3319  19.3319  19.3403  19.3403  19.3407  19.3407  19.3587  19.3588
    19.3591  19.3591  19.3677  19.3679  19.3732  19.3732  19.3733  19.3734
    19.5806  19.5806  19.7667  19.7672  19.7675  19.7681  20.1273  20.1281
    20.5305  20.5305  20.5307  20.5307  21.1148  21.1154  21.8309  21.8310
    21.8316  21.8317  23.2101  23.2107  24.1333  24.1333  24.1337  24.1337
    24.8142  24.8142  24.8147  24.8148  25.7454  25.7454  25.7456  25.7456
    27.1283  27.1283  27.8095  27.8095  27.8102  27.8102  28.4254  28.4255
    28.4262  28.4263  29.4473  29.4474  29.4481  29.4482  30.1001  30.1001
    30.1005  30.1006  30.1075  30.1076  31.0263  31.0265  31.0271  31.0273
    31.5583  31.5592

          k = 0.1675 0.2792 0.2792 ( 32510 PWs)   bands (ev):

   -64.5133 -64.4978 -64.4977 -64.4912 -64.4861 -64.4815 -64.4814 -64.4757
   -64.4751 -64.4705 -64.4704 -64.4697 -64.4696 -64.4681 -64.4660 -64.4660
   -64.4657 -64.4656 -64.4644 -64.4643 -64.4601 -64.4601 -64.4579 -64.4552
   -64.4550 -64.4547 -64.4546 -64.4542 -64.4541 -64.4535 -64.4533 -64.4526
   -30.3947 -30.3946 -30.3878 -30.3705 -30.3680 -30.3680 -30.3628 -30.3446
   -30.3445 -30.3398 -30.3397 -30.3307 -30.3307 -30.3269 -30.3268 -30.3261
   -30.3261 -30.3240 -30.3239 -30.3231 -30.3217 -30.3216 -30.3000 -30.3000
   -30.2849 -30.2849 -30.2841 -30.2486 -30.2449 -30.2448 -30.2434 -30.2401
   -30.2401 -30.2291 -30.2290 -30.2099 -30.2082 -30.2082 -30.1959 -30.1801
   -30.1801 -30.1771 -30.1771 -30.1755 -30.1755 -30.1683 -30.1683 -30.1568
   -30.1567 -30.1567 -30.1525 -30.1525 -30.1496 -30.1495 -30.1489 -30.1489
   -30.1438 -30.1438 -30.1348 -30.1347 -30.1211 -30.1211 -30.1181 -30.1164
   -30.1164 -30.1109 -30.1093 -30.1070 -30.1070 -30.1054 -30.1037 -30.1037
   -30.1029 -30.1028 -30.1018 -30.0997 -30.0997 -30.0906 -30.0906 -30.0893
   -30.0893 -30.0888 -30.0767 -30.0743 -30.0726 -30.0698 -30.0694 -30.0669
   -30.0668 -30.0580 -30.0580 -30.0548 -30.0548 -30.0504 -30.0318 -30.0267
    13.0775  14.1781  14.1782  14.4949  14.5628  14.5962  14.5972  14.5973
    14.6981  14.7599  14.7600  14.8684  14.8684  14.8876  14.9149  14.9161
    14.9161  15.0035  15.0035  15.0568  15.1813  15.1814  15.2356  15.2357
    15.2587  15.2587  15.3393  15.3393  15.3977  15.3978  15.4033  15.4034
    15.4097  15.4256  15.4256  15.5059  15.5059  15.5926  15.5927  15.6291
    15.6405  15.6405  15.8329  15.8329  16.0753  16.0753  16.0852  16.1419
    16.1538  16.1539  16.1632  16.1633  16.2069  16.2070  16.3420  16.4011
    16.4012  16.4914  16.4914  16.5282  16.5283  16.5812  16.6473  16.6480
    16.6481  16.6781  16.6781  16.7765  16.7766  16.7950  16.7950  16.8682
    16.9112  16.9215  16.9760  16.9761  16.9845  17.0047  17.0349  17.0676
    17.0676  17.0785  17.0964  17.0965  17.1159  17.1159  17.1446  17.1917
    17.1917  17.2436  17.2436  17.2894  17.3346  17.3346  17.4330  17.4330
    17.4486  17.5129  17.6987  17.6988  17.7391  17.7391  17.7642  17.7643
    17.8310  17.8311  18.0242  18.0441  18.0553  18.0629  18.0763  18.0763
    18.1088  18.1089  18.1461  18.1461  18.2781  18.3215  18.3215  18.3990
    18.3991  18.4008  18.4321  18.4322  18.4731  18.5119  18.5119  18.5756
[...]
    23.9575  23.9576  23.9577  23.9578  25.1299  25.1303  25.1306  25.1310
    27.6050  27.6051  27.6052  27.6053  27.6054  27.6056  27.6056  27.6058
    28.0623  28.0625  28.0626  28.0627  29.7834  29.7835  29.7836  29.7837
    30.3262  30.3263  30.3264  30.3265  30.3268  30.3269  30.3271  30.3271
    32.0290  32.0294

          k = 0.3908 0.3908 0.3908 ( 32528 PWs)   bands (ev):

   -64.5037 -64.4968 -64.4967 -64.4967 -64.4909 -64.4908 -64.4907 -64.4859
   -64.4645 -64.4645 -64.4644 -64.4640 -64.4635 -64.4634 -64.4633 -64.4632
   -64.4631 -64.4630 -64.4629 -64.4624 -64.4585 -64.4585 -64.4583 -64.4581
   -64.4576 -64.4575 -64.4574 -64.4573 -64.4572 -64.4571 -64.4570 -64.4566
   -30.3662 -30.3662 -30.3662 -30.3526 -30.3525 -30.3525 -30.3489 -30.3488
   -30.3488 -30.3462 -30.3461 -30.3461 -30.3461 -30.3460 -30.3460 -30.3450
   -30.3450 -30.3449 -30.3449 -30.3449 -30.3449 -30.3340 -30.3340 -30.3340
   -30.2878 -30.2437 -30.2437 -30.2437 -30.2060 -30.2060 -30.2060 -30.2060
   -30.2060 -30.2060 -30.2024 -30.2024 -30.2024 -30.1990 -30.1990 -30.1990
   -30.1937 -30.1937 -30.1937 -30.1641 -30.1641 -30.1641 -30.1641 -30.1641
   -30.1641 -30.1574 -30.1574 -30.1574 -30.1525 -30.1523 -30.1523 -30.1523
   -30.1391 -30.1391 -30.1391 -30.1317 -30.1316 -30.1316 -30.1316 -30.1316
   -30.1316 -30.1242 -30.1242 -30.1242 -30.1183 -30.1183 -30.1182 -30.1161
   -30.1160 -30.1160 -30.1160 -30.1160 -30.1159 -30.1078 -30.1078 -30.1077
   -30.0657 -30.0657 -30.0657 -30.0589 -30.0589 -30.0543 -30.0543 -30.0542
   -30.0483 -30.0483 -30.0483 -30.0466 -30.0465 -30.0465 -30.0393 -30.0393
    13.7421  14.1722  14.1723  14.1723  14.4275  14.4275  14.4276  14.4640
    14.8932  14.8932  14.8932  15.0258  15.0259  15.0259  15.0472  15.0472
    15.0472  15.1090  15.1090  15.1090  15.1091  15.1091  15.1092  15.1402
    15.1402  15.1402  15.1403  15.1403  15.1404  15.1737  15.1738  15.1738
    15.3640  15.3640  15.3640  15.6499  15.6500  15.6500  15.7174  15.7174
    15.7175  15.7175  15.7175  15.7176  15.9909  15.9910  15.9910  16.0040
    16.0041  16.0041  16.0041  16.0041  16.0042  16.2214  16.2214  16.2214
    16.5489  16.5491  16.5491  16.5877  16.7857  16.7858  16.7858  17.0282
    17.0282  17.0493  17.0493  17.0493  17.0494  17.0494  17.0494  17.1111
    17.1111  17.1193  17.1194  17.1194  17.1437  17.1437  17.1438  17.1446
    17.1446  17.1446  17.1878  17.1878  17.1878  17.2147  17.2148  17.2148
    17.2862  17.2862  17.2862  17.2893  17.2894  17.2894  17.2894  17.2894
    17.2895  17.3952  17.3953  17.3953  17.4422  17.5737  17.5737  17.5737
    17.8361  17.8361  17.8361  17.9352  17.9352  17.9354  17.9364  17.9365
    17.9365  17.9366  17.9366  17.9366  18.1472  18.1472  18.1474  18.2900
    18.2901  18.2901  18.2901  18.2901  18.2902  18.3496  18.3498  18.3498
    18.3778  18.3778  18.4175  18.4175  18.4176  18.5367  18.5367  18.5367
    18.6819  18.6819  18.6821  18.8421  18.8421  18.9752  18.9753  18.9753
    19.5363  19.5363  19.5363  19.5769  19.5769  19.5769  19.5769  19.5769
    19.5769  19.6136  19.6136  19.6136  19.6136  19.6136  19.6136  19.6452
    19.6452  19.6452  19.6528  19.6529  19.6529  19.7128  19.7128  19.7128
    21.7687  21.7688  21.7688  22.5373  22.5373  22.5373  22.5374  22.5374
    22.5375  22.9290  22.9290  22.9290  23.4314  23.4314  23.4314  24.3091
    24.3091  24.3091  24.3092  24.3092  24.3093  24.7723  24.7724  24.7724
    27.2299  27.2300  27.2300  27.9629  27.9629  27.9629  28.4703  28.4703
    28.4703  28.4705  28.4705  28.4705  29.3354  29.3354  29.3354  29.3356
    29.3356  29.3356  29.8073  29.8073  29.8073  30.7353  30.7353  30.7353
    32.0037  32.8859

          k = 0.3908 0.3908-0.5025 ( 32514 PWs)   bands (ev):

   -64.5009 -64.5001 -64.4945 -64.4944 -64.4937 -64.4936 -64.4890 -64.4882
   -64.4643 -64.4643 -64.4639 -64.4636 -64.4634 -64.4634 -64.4630 -64.4625
   -64.4611 -64.4609 -64.4604 -64.4604 -64.4603 -64.4601 -64.4596 -64.4596
   -64.4582 -64.4582 -64.4580 -64.4576 -64.4574 -64.4574 -64.4571 -64.4566
   -30.3615 -30.3615 -30.3572 -30.3568 -30.3564 -30.3560 -30.3490 -30.3489
   -30.3485 -30.3484 -30.3475 -30.3474 -30.3474 -30.3472 -30.3471 -30.3470
   -30.3467 -30.3463 -30.3431 -30.3426 -30.3403 -30.3403 -30.3398 -30.3398
   -30.2661 -30.2658 -30.2213 -30.2213 -30.2211 -30.2210 -30.2050 -30.2050
   -30.2048 -30.2048 -30.2004 -30.2002 -30.2000 -30.1998 -30.1852 -30.1852
   -30.1849 -30.1849 -30.1770 -30.1769 -30.1768 -30.1763 -30.1753 -30.1751
   -30.1603 -30.1603 -30.1598 -30.1598 -30.1576 -30.1575 -30.1574 -30.1573
   -30.1352 -30.1351 -30.1347 -30.1346 -30.1327 -30.1319 -30.1250 -30.1250
   -30.1247 -30.1247 -30.1245 -30.1245 -30.1243 -30.1242 -30.1203 -30.1203
   -30.1201 -30.1201 -30.1139 -30.1131 -30.1124 -30.1123 -30.1121 -30.1120
   -30.0607 -30.0604 -30.0586 -30.0585 -30.0581 -30.0580 -30.0536 -30.0528
   -30.0469 -30.0468 -30.0468 -30.0468 -30.0464 -30.0457 -30.0411 -30.0410
    13.9420  13.9429  14.2919  14.2920  14.2926  14.2927  14.4370  14.4375
    14.9634  14.9641  14.9851  14.9851  14.9852  14.9852  15.0718  15.0719
    15.0719  15.0720  15.0848  15.0850  15.0853  15.0856  15.1235  15.1240
    15.1307  15.1308  15.1308  15.1309  15.1358  15.1358  15.1365  15.1365
    15.4912  15.4921  15.5411  15.5412  15.5414  15.5414  15.8359  15.8359
    15.8362  15.8362  15.8419  15.8421  15.8427  15.8428  15.8637  15.8638
    15.8641  15.8641  16.0894  16.0900  16.1303  16.1305  16.1309  16.1311
    16.5852  16.5854  16.6797  16.6798  16.6799  16.6800  17.0304  17.0305
    17.0717  17.0719  17.1244  17.1244  17.1244  17.1245  17.1319  17.1320
    17.1391  17.1396  17.1552  17.1553  17.1554  17.1555  17.1579  17.1579
    17.1583  17.1583  17.1589  17.1594  17.1649  17.1649  17.1654  17.1654
    17.2131  17.2132  17.2132  17.2133  17.2412  17.2414  17.2563  17.2564
    17.2566  17.2567  17.5693  17.5693  17.5695  17.5695  17.6215  17.6222
    17.7310  17.7310  17.7313  17.7314  17.7497  17.7500  18.0235  18.0237
    18.0241  18.0243  18.0935  18.0936  18.0939  18.0940  18.1168  18.1168
    18.1171  18.1171  18.3295  18.3301  18.3433  18.3436  18.4021  18.4021
    18.4022  18.4025  18.4026  18.4027  18.4029  18.4033  18.5218  18.5223
    18.6312  18.6313  18.7764  18.7765  18.7768  18.7769  18.8873  18.8880
    19.5903  19.5903  19.5904  19.5904  19.6086  19.6088  19.6130  19.6130
    19.6132  19.6132  19.6391  19.6392  19.6396  19.6396  19.6415  19.6417
    19.6417  19.6419  19.6741  19.6744  19.6746  19.6749  19.6993  19.6994
    22.1312  22.1313  22.1317  22.1318  22.5853  22.5858  22.7214  22.7216
    22.7221  22.7223  23.4023  23.4024  23.4027  23.4028  23.8440  23.8442
    23.8572  23.8574  23.8578  23.8580  24.5674  24.5675  24.5681  24.5681
    27.5527  27.5534  27.7668  27.7668  27.7670  27.7670  28.5982  28.5983
    28.5988  28.5990  28.8706  28.8708  28.8714  28.8716  29.1074  29.1075
    29.1078  29.1079  30.0062  30.0063  30.0064  30.0064  30.2385  30.2394
    32.7046  32.7046

          k = 0.3908-0.5025-0.5025 ( 32508 PWs)   bands (ev):

   -64.4981 -64.4978 -64.4973 -64.4970 -64.4921 -64.4918 -64.4913 -64.4910
   -64.4641 -64.4639 -64.4633 -64.4631 -64.4611 -64.4610 -64.4607 -64.4607
   -64.4606 -64.4606 -64.4604 -64.4604 -64.4603 -64.4602 -64.4599 -64.4599
   -64.4599 -64.4598 -64.4596 -64.4596 -64.4580 -64.4578 -64.4572 -64.4570
   -30.3549 -30.3548 -30.3548 -30.3546 -30.3546 -30.3545 -30.3544 -30.3544
   -30.3489 -30.3487 -30.3484 -30.3482 -30.3481 -30.3479 -30.3476 -30.3474
   -30.3454 -30.3454 -30.3453 -30.3452 -30.3450 -30.3448 -30.3448 -30.3447
   -30.2437 -30.2436 -30.2434 -30.2433 -30.2034 -30.2033 -30.2032 -30.2031
   -30.1980 -30.1979 -30.1978 -30.1977 -30.1812 -30.1812 -30.1811 -30.1811
   -30.1810 -30.1810 -30.1809 -30.1809 -30.1809 -30.1809 -30.1808 -30.1808
   -30.1805 -30.1805 -30.1804 -30.1804 -30.1582 -30.1581 -30.1579 -30.1578
   -30.1294 -30.1293 -30.1293 -30.1293 -30.1287 -30.1286 -30.1284 -30.1283
   -30.1282 -30.1280 -30.1279 -30.1279 -30.1194 -30.1193 -30.1192 -30.1190
   -30.1189 -30.1188 -30.1186 -30.1186 -30.1164 -30.1164 -30.1164 -30.1164
   -30.0561 -30.0561 -30.0561 -30.0561 -30.0514 -30.0512 -30.0510 -30.0509
   -30.0508 -30.0507 -30.0504 -30.0502 -30.0431 -30.0431 -30.0431 -30.0431
    14.1060  14.1064  14.1068  14.1072  14.3574  14.3578  14.3580  14.3584
    15.0356  15.0356  15.0357  15.0357  15.0361  15.0362  15.0363  15.0363
    15.0438  15.0438  15.0438  15.0439  15.0690  15.0690  15.0691  15.0692
    15.1210  15.1210  15.1211  15.1213  15.1214  15.1216  15.1217  15.1217
    15.6711  15.6713  15.6713  15.6714  15.6718  15.6720  15.6720  15.6721
    15.7088  15.7089  15.7090  15.7091  15.9796  15.9796  15.9799  15.9801
    15.9801  15.9803  15.9806  15.9806  16.0014  16.0017  16.0019  16.0021
    16.6487  16.6489  16.6489  16.6489  16.9012  16.9013  16.9014  16.9015
    17.0962  17.0963  17.0964  17.0965  17.1081  17.1082  17.1084  17.1085
    17.1317  17.1319  17.1320  17.1322  17.1349  17.1349  17.1351  17.1352
    17.1763  17.1764  17.1764  17.1765  17.1986  17.1987  17.1987  17.1988
    17.1990  17.1990  17.1990  17.1992  17.3926  17.3926  17.3928  17.3929
    17.3929  17.3930  17.3931  17.3933  17.4246  17.4248  17.4248  17.4250
    17.8480  17.8482  17.8485  17.8486  17.9098  17.9099  17.9100  17.9100
    17.9102  17.9102  17.9103  17.9103  18.2145  18.2146  18.2147  18.2149
    18.2149  18.2151  18.2152  18.2152  18.2260  18.2261  18.2265  18.2266
    18.3703  18.3704  18.3709  18.3710  18.5725  18.5726  18.5728  18.5730
    18.6045  18.6046  18.6049  18.6050  18.7465  18.7466  18.7470  18.7471
    19.6341  19.6341  19.6342  19.6342  19.6343  19.6343  19.6344  19.6344
    19.6468  19.6469  19.6470  19.6472  19.6707  19.6708  19.6710  19.6711
    19.6743  19.6743  19.6743  19.6745  19.6745  19.6747  19.6747  19.6747
    22.4046  22.4049  22.4052  22.4055  22.9774  22.9774  22.9775  22.9777
    22.9778  22.9780  22.9781  22.9782  23.6266  23.6266  23.6267  23.6270
    23.6270  23.6273  23.6273  23.6273  24.2086  24.2090  24.2093  24.2096
    28.1495  28.1496  28.1497  28.1498  28.1500  28.1501  28.1502  28.1503
    28.3889  28.3891  28.3892  28.3893  29.2645  29.2647  29.2648  29.2648
    29.5240  29.5241  29.5242  29.5244  29.5246  29.5247  29.5248  29.5249
    33.0998  33.1003

          k =-0.5025-0.5025-0.5025 ( 32344 PWs)   bands (ev):

   -64.4955 -64.4952 -64.4952 -64.4950 -64.4947 -64.4944 -64.4944 -64.4942
   -64.4613 -64.4612 -64.4611 -64.4610 -64.4608 -64.4608 -64.4607 -64.4606
   -64.4605 -64.4605 -64.4604 -64.4604 -64.4603 -64.4602 -64.4600 -64.4600
   -64.4599 -64.4599 -64.4598 -64.4597 -64.4597 -64.4595 -64.4594 -64.4592
   -30.3505 -30.3505 -30.3504 -30.3504 -30.3502 -30.3501 -30.3501 -30.3500
   -30.3500 -30.3499 -30.3499 -30.3499 -30.3498 -30.3497 -30.3497 -30.3497
   -30.3496 -30.3496 -30.3495 -30.3495 -30.3493 -30.3492 -30.3492 -30.3492
   -30.2206 -30.2205 -30.2205 -30.2204 -30.2203 -30.2202 -30.2202 -30.2201
   -30.1812 -30.1811 -30.1811 -30.1810 -30.1810 -30.1810 -30.1809 -30.1809
   -30.1809 -30.1809 -30.1808 -30.1808 -30.1808 -30.1808 -30.1808 -30.1807
   -30.1807 -30.1807 -30.1806 -30.1806 -30.1806 -30.1805 -30.1805 -30.1804
   -30.1238 -30.1238 -30.1237 -30.1237 -30.1237 -30.1237 -30.1236 -30.1236
   -30.1236 -30.1235 -30.1234 -30.1234 -30.1233 -30.1233 -30.1231 -30.1231
   -30.1231 -30.1231 -30.1231 -30.1230 -30.1230 -30.1229 -30.1229 -30.1229
   -30.0495 -30.0495 -30.0494 -30.0494 -30.0493 -30.0492 -30.0492 -30.0491
   -30.0490 -30.0489 -30.0489 -30.0487 -30.0486 -30.0486 -30.0486 -30.0486
    14.2236  14.2241  14.2241  14.2243  14.2244  14.2248  14.2248  14.2251
    15.0666  15.0667  15.0667  15.0667  15.0667  15.0668  15.0668  15.0668
    15.0669  15.0669  15.0670  15.0670  15.0670  15.0672  15.0672  15.0672
    15.0673  15.0673  15.0674  15.0674  15.0674  15.0674  15.0675  15.0675
    15.8369  15.8370  15.8372  15.8373  15.8373  15.8374  15.8374  15.8374
    15.8374  15.8375  15.8376  15.8376  15.8377  15.8377  15.8377  15.8378
    15.8379  15.8381  15.8381  15.8381  15.8381  15.8382  15.8382  15.8383
    16.7932  16.7934  16.7934  16.7934  16.7934  16.7935  16.7935  16.7935
    17.1093  17.1094  17.1094  17.1094  17.1095  17.1095  17.1095  17.1096
    17.1097  17.1097  17.1098  17.1098  17.1099  17.1099  17.1099  17.1100
    17.2983  17.2984  17.2984  17.2985  17.2986  17.2986  17.2986  17.2987
    17.2987  17.2987  17.2987  17.2988  17.2988  17.2988  17.2988  17.2989
    17.2989  17.2990  17.2990  17.2990  17.2990  17.2991  17.2991  17.2993
    18.0349  18.0349  18.0350  18.0350  18.0351  18.0352  18.0352  18.0352
    18.0353  18.0353  18.0354  18.0354  18.0354  18.0354  18.0355  18.0355
    18.0356  18.0357  18.0357  18.0357  18.0357  18.0357  18.0358  18.0360
    18.5545  18.5547  18.5547  18.5548  18.5548  18.5549  18.5549  18.5550
    18.5551  18.5551  18.5552  18.5552  18.5553  18.5554  18.5555  18.5555
    19.6765  19.6766  19.6766  19.6767  19.6767  19.6768  19.6768  19.6768
    19.6769  19.6769  19.6769  19.6769  19.6770  19.6770  19.6770  19.6770
    19.6770  19.6771  19.6771  19.6772  19.6772  19.6773  19.6773  19.6774
    23.2894  23.2894  23.2895  23.2896  23.2897  23.2897  23.2899  23.2899
    23.2899  23.2899  23.2900  23.2900  23.2901  23.2901  23.2902  23.2902
    23.2903  23.2903  23.2903  23.2904  23.2905  23.2906  23.2906  23.2906
    28.7942  28.7943  28.7943  28.7944  28.7945  28.7945  28.7945  28.7945
    28.7946  28.7947  28.7947  28.7948  28.7950  28.7950  28.7951  28.7951
    28.7951  28.7951  28.7953  28.7953  28.7953  28.7954  28.7954  28.7954
    34.0543  34.0545

     the Fermi energy is    19.6941 ev

!    total energy              =  -16384.94802692 Ry
     Harris-Foulkes estimate   =  -16384.94801459 Ry
     estimated scf accuracy    <       0.00000086 Ry

     total all-electron energy =   -322945.801734 Ry

     The total energy is the sum of the following terms:

     one-electron contribution =   -2434.31321985 Ry
     hartree contribution      =    1642.55663003 Ry
     xc contribution           =    -986.88245614 Ry
     ewald contribution        =   -6438.89369923 Ry
     one-center paw contrib.   =   -8167.44329594 Ry
     smearing contrib. (-TS)   =       0.02801420 Ry

     convergence has been achieved in  10 iterations

     Forces acting on atoms (cartesian axes, Ry/au):

     atom    1 type  1   force =     0.00000000    0.00000000    0.00000000
     atom    2 type  1   force =     0.00005727    0.00005727   -0.00000000
     atom    3 type  1   force =     0.00005727   -0.00000000    0.00005727
     atom    4 type  1   force =    -0.00000000    0.00005727    0.00005727
     atom    5 type  1   force =     0.00000000    0.00000000    0.00000000
     atom    6 type  1   force =     0.00014211    0.00014211    0.00000000
     atom    7 type  1   force =     0.00005727   -0.00000000   -0.00005727
     atom    8 type  1   force =     0.00000000    0.00005727   -0.00005727
     atom    9 type  1   force =     0.00000000    0.00000000   -0.00000000
     atom   10 type  1   force =     0.00005727   -0.00005727   -0.00000000
     atom   11 type  1   force =     0.00014211    0.00000000    0.00014211
     atom   12 type  1   force =     0.00000000   -0.00005727    0.00005727
     atom   13 type  1   force =     0.00000000    0.00000000   -0.00000000
     atom   14 type  1   force =     0.00014211   -0.00014211   -0.00000000
     atom   15 type  1   force =     0.00014211    0.00000000   -0.00014211
     atom   16 type  1   force =    -0.00000000   -0.00005727   -0.00005727
     atom   17 type  1   force =     0.00000000    0.00000000   -0.00000000
     atom   18 type  1   force =    -0.00005727    0.00005727    0.00000000
     atom   19 type  1   force =    -0.00005727    0.00000000    0.00005727
     atom   20 type  1   force =     0.00000000    0.00014211    0.00014211
     atom   21 type  1   force =     0.00000000    0.00000000   -0.00000000
     atom   22 type  1   force =    -0.00014211    0.00014211    0.00000000
     atom   23 type  1   force =    -0.00005727    0.00000000   -0.00005727
     atom   24 type  1   force =     0.00000000    0.00014211   -0.00014211
     atom   25 type  1   force =     0.00000000    0.00000000    0.00000000
     atom   26 type  1   force =    -0.00005727   -0.00005727   -0.00000000
     atom   27 type  1   force =    -0.00014211    0.00000000    0.00014211
     atom   28 type  1   force =    -0.00000000   -0.00014211    0.00014211
     atom   29 type  1   force =     0.00000000    0.00000000    0.00000000
     atom   30 type  1   force =    -0.00014211   -0.00014211   -0.00000000
     atom   31 type  1   force =    -0.00014211   -0.00000000   -0.00014211
     atom   32 type  1   force =    -0.00000000   -0.00014211   -0.00014211

     Total force =     0.000751     Total SCF correction =     0.005644
     SCF correction compared to forces is large: reduce conv_thr to get better values


     Computing stress (Cartesian axis) and pressure

          total   stress  (Ry/bohr**3)                   (kbar)     P=   29.05
   0.00019750   0.00000000   0.00000000         29.05      0.00      0.00
   0.00000000   0.00019750   0.00000000          0.00     29.05      0.00
   0.00000000   0.00000000   0.00019750          0.00      0.00     29.05


     Writing output data file jpBpsMVKWMTfiJTx.save/
 
     init_run     :     19.34s CPU     21.03s WALL (       1 calls)
     electrons    :    935.74s CPU    982.70s WALL (       1 calls)
     forces       :      8.83s CPU      9.22s WALL (       1 calls)
     stress       :     86.95s CPU     87.37s WALL (       1 calls)

     Called by init_run:
     wfcinit      :     18.72s CPU     20.34s WALL (       1 calls)
     potinit      :      0.31s CPU      0.32s WALL (       1 calls)
     hinit0       :      0.12s CPU      0.13s WALL (       1 calls)

     Called by electrons:
     c_bands      :    856.40s CPU    894.72s WALL (      11 calls)
     sum_band     :     75.65s CPU     83.91s WALL (      11 calls)
     v_of_rho     :      0.32s CPU      0.35s WALL (      11 calls)
     newd         :      0.76s CPU      1.02s WALL (      11 calls)
     PAW_pot      :      2.82s CPU      2.87s WALL (      11 calls)
     mix_rho      :      0.08s CPU      0.09s WALL (      11 calls)

     Called by c_bands:
     init_us_2    :      4.74s CPU      4.77s WALL (     875 calls)
     cegterg      :    830.57s CPU    868.71s WALL (     385 calls)

     Called by sum_band:
     sum_band:bec :      0.60s CPU      0.61s WALL (     385 calls)
     addusdens    :      0.86s CPU      1.13s WALL (      11 calls)

     Called by *egterg:
     h_psi        :    310.56s CPU    344.55s WALL (    1258 calls)
     s_psi        :     37.67s CPU     37.81s WALL (    1258 calls)
     g_psi        :      1.15s CPU      1.15s WALL (     838 calls)
     cdiaghg      :    355.61s CPU    356.78s WALL (    1188 calls)

     Called by h_psi:
     h_psi:pot    :    307.24s CPU    341.09s WALL (    1258 calls)
     h_psi:calbec :     39.93s CPU     41.96s WALL (    1258 calls)
     vloc_psi     :    229.99s CPU    261.56s WALL (    1258 calls)
     add_vuspsi   :     37.31s CPU     37.57s WALL (    1258 calls)

     General routines
     calbec       :     65.46s CPU     68.72s WALL (    1818 calls)
     fft          :      0.30s CPU      0.33s WALL (     168 calls)
     ffts         :      0.02s CPU      0.03s WALL (      22 calls)
     fftw         :    265.22s CPU    301.68s WALL (  749576 calls)
     interpolate  :      0.04s CPU      0.04s WALL (      11 calls)
 
     Parallel routines
     fft_scatt_xy :     21.74s CPU     24.33s WALL (  749766 calls)
     fft_scatt_yz :    173.13s CPU    198.83s WALL (  749766 calls)
 
     PWSCF        : 17m34.49s CPU    19m 1.56s WALL

 
   This run was terminated on:   8: 7:20  11Nov2020            

=------------------------------------------------------------------------------=
   JOB DONE.
=------------------------------------------------------------------------------=
