--------------------------------------------------------------------------
WARNING: No preset parameters were found for the device that Open MPI
detected:

  Local host:            bear-pg0206u14b
  Device name:           mlx5_0
  Device vendor ID:      0x02c9
  Device vendor part ID: 4123

Default device parameters will be used, which may result in lower
performance.  You can edit any of the files specified by the
btl_openib_device_param_files MCA parameter to set values for your
device.

NOTE: You can turn off this warning by setting the MCA parameter
      btl_openib_warn_no_device_params_found to 0.
--------------------------------------------------------------------------
--------------------------------------------------------------------------
WARNING: There was an error initializing an OpenFabrics device.

  Local host:   bear-pg0206u14b
  Local device: mlx5_0
--------------------------------------------------------------------------

     Program PWSCF v.6.3 starts on 11Nov2020 at  9: 2:15 

     This program is part of the open-source Quantum ESPRESSO suite
     for quantum simulation of materials; please cite
         "P. Giannozzi et al., J. Phys.:Condens. Matter 21 395502 (2009);
         "P. Giannozzi et al., J. Phys.:Condens. Matter 29 465901 (2017);
          URL http://www.quantum-espresso.org", 
     in publications or presentations arising from this work. More details at
     http://www.quantum-espresso.org/quote

     Parallel version (MPI & OpenMP), running on      20 processor cores
     Number of MPI processes:                20
     Threads/MPI process:                     1

     MPI processes distributed on     1 nodes
     R & G space division:  proc/nbgrp/npool/nimage =      20
     Reading input from wd/eos/eos_005.in
Warning: card &IONS ignored
Warning: card ION_DYNAMICS = 'BFGS', ignored
Warning: card / ignored
Warning: card &CELL ignored
Warning: card CELL_DYNAMICS = 'BFGS', ignored
Warning: card CELL_FACTOR = 2.0, ignored
Warning: card PRESS = 0.0, ignored
Warning: card / ignored

     Current dimensions of program PWSCF are:
     Max number of different atomic species (ntypx) = 10
     Max number of k-points (npk) =  40000
     Max angular momentum in pseudopotentials (lmaxx) =  3
               file Pd.pbe-spn-kjpaw_psl.1.0.0.UPF: wavefunction(s)  4S 5S 4D renormalized

     Subspace diagonalization in iterative solution of the eigenvalue problem:
     a serial algorithm will be used

 
     Parallelization info
     --------------------
     sticks:   dense  smooth     PW     G-vecs:    dense   smooth      PW
     Min         378     249     67                24732    13277    1875
     Max         379     250     68                24735    13280    1880
     Sum        7573    4997   1353               494679   265571   37561
 


     bravais-lattice index     =            0
     lattice parameter (alat)  =      14.8394  a.u.
     unit-cell volume          =    3284.1307 (a.u.)^3
     number of atoms/cell      =           32
     number of atomic types    =            1
     number of electrons       =       576.00
     number of Kohn-Sham states=          346
     kinetic-energy cutoff     =      71.0000  Ry
     charge density cutoff     =     430.0000  Ry
     convergence threshold     =      1.0E-06
     mixing beta               =       0.1000
     number of iterations used =           10  plain     mixing
     Exchange-correlation      = SLA PW PBX PBC ( 1  4  3  4 0 0)

     celldm(1)=  14.839420  celldm(2)=   0.000000  celldm(3)=   0.000000
     celldm(4)=   0.000000  celldm(5)=   0.000000  celldm(6)=   0.000000

     crystal axes: (cart. coord. in units of alat)
               a(1) = (   1.001667   0.000000   0.000000 )  
               a(2) = (   0.000000   1.001667   0.000000 )  
               a(3) = (   0.000000   0.000000   1.001667 )  

     reciprocal axes: (cart. coord. in units 2 pi/alat)
               b(1) = (  0.998336  0.000000  0.000000 )  
               b(2) = (  0.000000  0.998336  0.000000 )  
               b(3) = (  0.000000  0.000000  0.998336 )  


     PseudoPot. # 1 for Pd read from file:
     /rds/homes/b/bxp912/pp/Pd.pbe-spn-kjpaw_psl.1.0.0.UPF
     MD5 check sum: 790f2ebce206edfd9790dcb9844eca51
     Pseudo is Projector augmented-wave + core cor, Zval = 18.0
     Generated using "atomic" code by A. Dal Corso v.6.3
     Shape of augmentation charge: PSQ
     Using radial grid of 1235 points,  6 beta functions with: 
                l(1) =   0
                l(2) =   0
                l(3) =   1
                l(4) =   1
                l(5) =   2
                l(6) =   2
     Q(r) pseudized with 0 coefficients 


     atomic species   valence    mass     pseudopotential
        Pd            18.00   106.42000     Pd( 1.00)

     48 Sym. Ops., with inversion, found



   Cartesian axes

     site n.     atom                  positions (alat units)
         1           Pd  tau(   1) = (   0.0000000   0.0000000   0.0000000  )
         2           Pd  tau(   2) = (   0.2504211   0.2504211   0.0000000  )
         3           Pd  tau(   3) = (   0.2504211   0.0000000   0.2504206  )
         4           Pd  tau(   4) = (   0.0000000   0.2504211   0.2504206  )
         5           Pd  tau(   5) = (   0.0000000   0.0000000   0.5008323  )
         6           Pd  tau(   6) = (   0.2504283   0.2504283   0.5008323  )
         7           Pd  tau(   7) = (   0.2504211   0.0000000   0.7512450  )
         8           Pd  tau(   8) = (   0.0000000   0.2504211   0.7512450  )
         9           Pd  tau(   9) = (   0.0000000   0.5008331   0.0000000  )
        10           Pd  tau(  10) = (   0.2504211   0.7512452   0.0000000  )
        11           Pd  tau(  11) = (   0.2504283   0.5008331   0.2504276  )
        12           Pd  tau(  12) = (   0.0000000   0.7512452   0.2504206  )
        13           Pd  tau(  13) = (   0.0000000   0.5008331   0.5008323  )
        14           Pd  tau(  14) = (   0.2504283   0.7512381   0.5008323  )
        15           Pd  tau(  15) = (   0.2504283   0.5008331   0.7512381  )
        16           Pd  tau(  16) = (   0.0000000   0.7512452   0.7512450  )
        17           Pd  tau(  17) = (   0.5008331   0.0000000   0.0000000  )
        18           Pd  tau(  18) = (   0.7512452   0.2504211   0.0000000  )
        19           Pd  tau(  19) = (   0.7512452   0.0000000   0.2504206  )
        20           Pd  tau(  20) = (   0.5008331   0.2504283   0.2504276  )
        21           Pd  tau(  21) = (   0.5008331   0.0000000   0.5008323  )
        22           Pd  tau(  22) = (   0.7512381   0.2504283   0.5008323  )
        23           Pd  tau(  23) = (   0.7512452   0.0000000   0.7512450  )
        24           Pd  tau(  24) = (   0.5008331   0.2504283   0.7512381  )
        25           Pd  tau(  25) = (   0.5008331   0.5008331   0.0000000  )
        26           Pd  tau(  26) = (   0.7512452   0.7512452   0.0000000  )
        27           Pd  tau(  27) = (   0.7512381   0.5008331   0.2504276  )
        28           Pd  tau(  28) = (   0.5008331   0.7512381   0.2504276  )
        29           Pd  tau(  29) = (   0.5008331   0.5008331   0.5008323  )
        30           Pd  tau(  30) = (   0.7512381   0.7512381   0.5008323  )
        31           Pd  tau(  31) = (   0.7512381   0.5008331   0.7512381  )
        32           Pd  tau(  32) = (   0.5008331   0.7512381   0.7512381  )

     number of k points=    35  Marzari-Vanderbilt smearing, width (Ry)=  0.0400
                       cart. coord. in units 2pi/alat
        k(    1) = (   0.0554631   0.0554631   0.0554631), wk =   0.0219479
        k(    2) = (   0.0554631   0.0554631   0.1663894), wk =   0.0658436
        k(    3) = (   0.0554631   0.0554631   0.2773156), wk =   0.0658436
        k(    4) = (   0.0554631   0.0554631   0.3882418), wk =   0.0658436
        k(    5) = (   0.0554631   0.0554631  -0.4991681), wk =   0.0329218
        k(    6) = (   0.0554631   0.1663894   0.1663894), wk =   0.0658436
        k(    7) = (   0.0554631   0.1663894   0.2773156), wk =   0.1316872
        k(    8) = (   0.0554631   0.1663894   0.3882418), wk =   0.1316872
        k(    9) = (   0.0554631   0.1663894  -0.4991681), wk =   0.0658436
        k(   10) = (   0.0554631   0.2773156   0.2773156), wk =   0.0658436
        k(   11) = (   0.0554631   0.2773156   0.3882418), wk =   0.1316872
        k(   12) = (   0.0554631   0.2773156  -0.4991681), wk =   0.0658436
        k(   13) = (   0.0554631   0.3882418   0.3882418), wk =   0.0658436
        k(   14) = (   0.0554631   0.3882418  -0.4991681), wk =   0.0658436
        k(   15) = (   0.0554631  -0.4991681  -0.4991681), wk =   0.0164609
        k(   16) = (   0.1663894   0.1663894   0.1663894), wk =   0.0219479
        k(   17) = (   0.1663894   0.1663894   0.2773156), wk =   0.0658436
        k(   18) = (   0.1663894   0.1663894   0.3882418), wk =   0.0658436
        k(   19) = (   0.1663894   0.1663894  -0.4991681), wk =   0.0329218
        k(   20) = (   0.1663894   0.2773156   0.2773156), wk =   0.0658436
        k(   21) = (   0.1663894   0.2773156   0.3882418), wk =   0.1316872
        k(   22) = (   0.1663894   0.2773156  -0.4991681), wk =   0.0658436
        k(   23) = (   0.1663894   0.3882418   0.3882418), wk =   0.0658436
        k(   24) = (   0.1663894   0.3882418  -0.4991681), wk =   0.0658436
        k(   25) = (   0.1663894  -0.4991681  -0.4991681), wk =   0.0164609
        k(   26) = (   0.2773156   0.2773156   0.2773156), wk =   0.0219479
        k(   27) = (   0.2773156   0.2773156   0.3882418), wk =   0.0658436
        k(   28) = (   0.2773156   0.2773156  -0.4991681), wk =   0.0329218
        k(   29) = (   0.2773156   0.3882418   0.3882418), wk =   0.0658436
        k(   30) = (   0.2773156   0.3882418  -0.4991681), wk =   0.0658436
        k(   31) = (   0.2773156  -0.4991681  -0.4991681), wk =   0.0164609
        k(   32) = (   0.3882418   0.3882418   0.3882418), wk =   0.0219479
        k(   33) = (   0.3882418   0.3882418  -0.4991681), wk =   0.0329218
        k(   34) = (   0.3882418  -0.4991681  -0.4991681), wk =   0.0164609
        k(   35) = (  -0.4991681  -0.4991681  -0.4991681), wk =   0.0027435

     Dense  grid:   494679 G-vectors     FFT dimensions: ( 100, 100, 100)

     Smooth grid:   265571 G-vectors     FFT dimensions: (  80,  80,  80)

     Estimated max dynamical RAM per process >     544.53 MB

     Estimated total dynamical RAM >      10.64 GB

     Check: negative/imaginary core charge=   -0.000002    0.000000

     Initial potential from superposition of free atoms

     starting charge  575.98776, renormalised to  576.00000
     Starting wfcs are  320 randomized atomic wfcs +   26 random wfcs
     Checking if some PAW data can be deallocated... 

     total cpu time spent up to now is       21.4 secs

     Self-consistent Calculation

     iteration #  1     ecut=    71.00 Ry     beta= 0.10
     Davidson diagonalization with overlap
     ethr =  1.00E-02,  avg # of iterations =  3.1

     Threshold (ethr) on eigenvalues was too large:
     Diagonalizing with lowered threshold

     Davidson diagonalization with overlap
     ethr =  8.58E-05,  avg # of iterations =  3.0

     total cpu time spent up to now is      223.9 secs

     total energy              =  -16385.02302192 Ry
     Harris-Foulkes estimate   =  -16385.09272100 Ry
     estimated scf accuracy    <       0.48846965 Ry

     iteration #  2     ecut=    71.00 Ry     beta= 0.10
     Davidson diagonalization with overlap
     ethr =  8.48E-05,  avg # of iterations =  1.0

     total cpu time spent up to now is      286.2 secs

     total energy              =  -16384.92768107 Ry
     Harris-Foulkes estimate   =  -16385.03101659 Ry
     estimated scf accuracy    <       0.26483276 Ry

     iteration #  3     ecut=    71.00 Ry     beta= 0.10
     Davidson diagonalization with overlap
     ethr =  4.60E-05,  avg # of iterations =  2.3

     total cpu time spent up to now is      374.9 secs

     total energy              =  -16384.96353914 Ry
     Harris-Foulkes estimate   =  -16384.96759256 Ry
     estimated scf accuracy    <       0.05804960 Ry

     iteration #  4     ecut=    71.00 Ry     beta= 0.10
     Davidson diagonalization with overlap
     ethr =  1.01E-05,  avg # of iterations =  1.9

     total cpu time spent up to now is      448.2 secs

     total energy              =  -16384.96308932 Ry
     Harris-Foulkes estimate   =  -16384.96554888 Ry
     estimated scf accuracy    <       0.02196709 Ry

     iteration #  5     ecut=    71.00 Ry     beta= 0.10
     Davidson diagonalization with overlap
     ethr =  3.81E-06,  avg # of iterations =  1.0

     total cpu time spent up to now is      511.2 secs

     total energy              =  -16384.95833306 Ry
     Harris-Foulkes estimate   =  -16384.96329416 Ry
     estimated scf accuracy    <       0.01427098 Ry

     iteration #  6     ecut=    71.00 Ry     beta= 0.10
     Davidson diagonalization with overlap
     ethr =  2.48E-06,  avg # of iterations =  2.0

     total cpu time spent up to now is      591.5 secs

     total energy              =  -16384.95940794 Ry
     Harris-Foulkes estimate   =  -16384.95947641 Ry
     estimated scf accuracy    <       0.00014315 Ry

     iteration #  7     ecut=    71.00 Ry     beta= 0.10
     Davidson diagonalization with overlap
     ethr =  2.49E-08,  avg # of iterations =  3.0

     total cpu time spent up to now is      714.8 secs

     total energy              =  -16384.95946657 Ry
     Harris-Foulkes estimate   =  -16384.95946894 Ry
     estimated scf accuracy    <       0.00005911 Ry

     iteration #  8     ecut=    71.00 Ry     beta= 0.10
     Davidson diagonalization with overlap
     ethr =  1.03E-08,  avg # of iterations =  1.0

     total cpu time spent up to now is      777.0 secs

     total energy              =  -16384.95946219 Ry
     Harris-Foulkes estimate   =  -16384.95946948 Ry
     estimated scf accuracy    <       0.00004027 Ry

     iteration #  9     ecut=    71.00 Ry     beta= 0.10
     Davidson diagonalization with overlap
     ethr =  6.99E-09,  avg # of iterations =  2.0

     total cpu time spent up to now is      864.2 secs

     total energy              =  -16384.95947032 Ry
     Harris-Foulkes estimate   =  -16384.95946699 Ry
     estimated scf accuracy    <       0.00000680 Ry

     iteration # 10     ecut=    71.00 Ry     beta= 0.10
     Davidson diagonalization with overlap
     ethr =  1.18E-09,  avg # of iterations =  1.3

     total cpu time spent up to now is      929.9 secs

     End of self-consistent calculation

          k = 0.0555 0.0555 0.0555 ( 33149 PWs)   bands (ev):

   -64.9844 -64.9560 -64.9559 -64.9559 -64.9506 -64.9505 -64.9505 -64.9405
   -64.9404 -64.9404 -64.9381 -64.9378 -64.9377 -64.9376 -64.9375 -64.9374
   -64.9373 -64.9372 -64.9371 -64.9366 -64.9350 -64.9349 -64.9348 -64.9228
   -64.9223 -64.9222 -64.9220 -64.9219 -64.9219 -64.9218 -64.9217 -64.9212
   -30.8658 -30.8658 -30.8658 -30.8638 -30.8455 -30.8455 -30.8455 -30.7691
   -30.7690 -30.7690 -30.7648 -30.7648 -30.7648 -30.7648 -30.7647 -30.7647
   -30.7571 -30.7571 -30.7571 -30.7519 -30.7519 -30.7519 -30.7519 -30.7519
   -30.7518 -30.7336 -30.7336 -30.7336 -30.7335 -30.7335 -30.7335 -30.6932
   -30.6932 -30.6932 -30.6693 -30.6693 -30.6693 -30.6633 -30.6633 -30.6633
   -30.6541 -30.6541 -30.6541 -30.6541 -30.6540 -30.6540 -30.6393 -30.6393
   -30.6393 -30.6387 -30.6384 -30.6384 -30.6384 -30.6383 -30.6383 -30.6379
   -30.6379 -30.6376 -30.6363 -30.6363 -30.6362 -30.5740 -30.5740 -30.5740
   -30.5738 -30.5738 -30.5737 -30.5618 -30.5618 -30.5618 -30.5617 -30.5617
   -30.5617 -30.5584 -30.5583 -30.5583 -30.5544 -30.5540 -30.5539 -30.5534
   -30.5534 -30.5533 -30.5533 -30.5532 -30.5531 -30.5529 -30.5528 -30.5526
   -30.5519 -30.5519 -30.5463 -30.5463 -30.5463 -30.5015 -30.4992 -30.4992
    12.2020  13.9619  13.9619  13.9619  14.0273  14.0409  14.0409  14.0409
    14.2253  14.2254  14.2255  14.2350  14.2350  14.2350  14.4210  14.4212
    14.4212  14.9684  14.9684  14.9685  14.9685  14.9685  14.9687  15.1206
    15.1207  15.1207  15.2668  15.2669  15.2669  15.3058  15.3059  15.3059
    15.3494  15.3495  15.3495  15.3495  15.3495  15.3496  15.3519  15.3520
    15.3520  15.6925  15.6925  15.6925  15.6926  15.6926  15.6926  15.7990
    15.7991  15.7991  15.8209  15.8209  15.8209  15.8210  15.8210  15.8210
    15.8775  15.8776  15.8776  16.0458  16.0458  16.0458  16.0459  16.0459
    16.0459  16.1512  16.1513  16.1513  16.1556  16.1557  16.1557  16.1557
    16.1557  16.1559  16.2626  16.2627  16.2627  16.3259  16.3259  16.3259
    16.3466  16.3466  16.3572  16.3572  16.3572  16.3746  16.3940  16.3940
    17.1855  17.1856  17.1856  17.2458  17.2458  17.2459  17.3179  17.3180
    17.3180  17.3181  17.3181  17.3181  17.3240  17.3240  17.3241  17.3718
    17.3720  17.3720  17.4739  17.4739  17.4740  17.5916  17.5918  17.5918
    17.7159  17.7159  17.7160  17.7730  17.7730  17.7732  17.8462  17.8463
    17.8463  17.8463  17.8464  17.8464  17.8650  17.8650  17.8651  17.9119
    17.9119  17.9198  17.9198  17.9198  17.9198  17.9199  17.9200  18.0281
    18.0281  18.0282  18.4122  18.4122  18.4123  18.5131  18.5132  18.5132
    18.8943  18.8943  18.8943  19.0163  19.0163  19.0163  19.0429  19.0429
    19.0629  19.0629  19.0629  19.2914  19.2915  19.2915  19.3449  19.3450
    19.3450  19.3450  19.3450  19.3450  19.3481  19.3481  19.3482  20.0252
    20.3287  20.3287  20.3287  20.8378  20.8379  20.8379  21.3461  21.3461
    21.3461  21.3461  21.3461  21.3462  21.8735  21.8736  21.8736  22.4662
    22.4662  22.4662  26.1850  26.1850  26.1850  26.3419  27.3452  27.3452
    27.3453  27.3453  27.3453  27.3454  28.0355  28.0355  28.0355  28.0356
    28.0356  28.0357  29.4371  29.4371  29.4371  29.4371  29.4371  29.4372
    29.5934  29.5934  29.5934  30.5593  30.5990  30.5990  30.5990  30.5991
    30.5991  30.5992

          k = 0.0555 0.0555 0.1664 ( 33144 PWs)   bands (ev):

   -64.9834 -64.9613 -64.9555 -64.9554 -64.9501 -64.9500 -64.9451 -64.9434
   -64.9433 -64.9404 -64.9399 -64.9398 -64.9383 -64.9381 -64.9376 -64.9372
   -64.9369 -64.9366 -64.9349 -64.9345 -64.9344 -64.9325 -64.9324 -64.9231
   -64.9228 -64.9225 -64.9224 -64.9223 -64.9223 -64.9221 -64.9218 -64.9212
   -30.8630 -30.8613 -30.8613 -30.8581 -30.8423 -30.8423 -30.8405 -30.7804
   -30.7752 -30.7752 -30.7710 -30.7709 -30.7699 -30.7699 -30.7696 -30.7696
   -30.7674 -30.7581 -30.7581 -30.7555 -30.7554 -30.7507 -30.7507 -30.7471
   -30.7471 -30.7364 -30.7363 -30.7302 -30.7302 -30.7225 -30.7159 -30.7159
   -30.6979 -30.6979 -30.6842 -30.6842 -30.6693 -30.6693 -30.6686 -30.6686
   -30.6574 -30.6436 -30.6435 -30.6416 -30.6416 -30.6390 -30.6390 -30.6383
   -30.6382 -30.6359 -30.6358 -30.6357 -30.6342 -30.6334 -30.6332 -30.6331
   -30.6326 -30.6326 -30.6297 -30.6247 -30.6247 -30.5860 -30.5856 -30.5766
   -30.5766 -30.5711 -30.5710 -30.5658 -30.5657 -30.5644 -30.5644 -30.5626
   -30.5625 -30.5602 -30.5585 -30.5584 -30.5582 -30.5577 -30.5577 -30.5540
   -30.5539 -30.5537 -30.5534 -30.5530 -30.5525 -30.5507 -30.5506 -30.5506
   -30.5499 -30.5496 -30.5465 -30.5419 -30.5419 -30.5077 -30.5012 -30.5006
    12.2751  13.9266  13.9960  14.0080  14.0080  14.0550  14.0823  14.0823
    14.0956  14.2626  14.2764  14.2765  14.2769  14.2769  14.4728  14.4729
    14.4915  14.8831  14.8831  14.9436  15.0030  15.0031  15.0098  15.0099
    15.0367  15.1175  15.1175  15.1466  15.1466  15.1570  15.1619  15.1620
    15.3083  15.3085  15.3275  15.3276  15.3398  15.3398  15.3766  15.3766
    15.4217  15.4218  15.4939  15.6791  15.6791  15.6954  15.6955  15.7407
    15.7408  15.7503  15.7504  15.8094  15.8094  15.8967  15.8968  15.9121
    15.9576  15.9576  16.0043  16.0093  16.0094  16.0150  16.0150  16.0505
    16.0506  16.0956  16.0956  16.1250  16.1250  16.2856  16.3038  16.3038
    16.3050  16.3051  16.3249  16.3249  16.3385  16.3471  16.3696  16.3709
    16.3803  16.3930  16.3930  16.4008  16.4235  16.4260  16.4316  16.4316
    16.9959  16.9960  17.1063  17.1124  17.1312  17.1313  17.1857  17.1857
    17.2032  17.2483  17.2702  17.2703  17.3875  17.3996  17.3997  17.4127
    17.4128  17.4509  17.4510  17.4598  17.4599  17.6708  17.6709  17.6903
    17.6971  17.6972  17.7631  17.7632  17.8425  17.8426  17.8517  17.8518
    17.8524  17.8524  17.8715  17.9279  17.9301  17.9419  17.9419  17.9684
    18.0593  18.0593  18.0668  18.0668  18.1026  18.1027  18.1572  18.1747
    18.1748  18.2075  18.3147  18.4574  18.4575  18.5839  18.5853  18.5854
    18.6149  18.6347  18.6347  18.8467  18.9551  18.9552  18.9765  18.9930
    19.0357  19.0361  19.0361  19.0622  19.0622  19.2222  19.2741  19.2741
    19.2749  19.2749  19.2870  19.3440  19.3445  19.3450  19.3455  20.0135
    20.3758  20.3759  20.4963  20.4963  20.7262  20.8094  20.8578  20.8579
    21.3238  21.3238  21.8550  21.9122  21.9122  22.1043  22.4517  22.4517
    22.7551  22.7551  26.1839  26.3439  26.3439  26.6309  26.6309  26.6359
    26.6360  26.6386  27.2276  27.2277  27.4769  27.4770  28.1593  28.1595
    28.6727  28.6727  29.4851  29.4851  29.5797  29.5798  29.6008  29.7448
    29.7448  29.8224  29.8224  30.0341  30.0341  30.0475  30.1433  30.1433
    30.5811  30.5812

          k = 0.0555 0.0555 0.2773 ( 33163 PWs)   bands (ev):

   -64.9816 -64.9664 -64.9545 -64.9544 -64.9493 -64.9492 -64.9462 -64.9461
   -64.9423 -64.9422 -64.9403 -64.9400 -64.9387 -64.9381 -64.9376 -64.9372
   -64.9366 -64.9365 -64.9350 -64.9317 -64.9317 -64.9302 -64.9301 -64.9249
   -64.9235 -64.9234 -64.9232 -64.9232 -64.9227 -64.9222 -64.9218 -64.9212
   -30.8560 -30.8531 -30.8530 -30.8485 -30.8362 -30.8362 -30.8309 -30.7972
   -30.7916 -30.7916 -30.7865 -30.7865 -30.7835 -30.7725 -30.7724 -30.7704
   -30.7704 -30.7608 -30.7607 -30.7515 -30.7514 -30.7502 -30.7495 -30.7495
   -30.7371 -30.7371 -30.7352 -30.7351 -30.7244 -30.7244 -30.7062 -30.7062
   -30.6988 -30.6988 -30.6984 -30.6984 -30.6825 -30.6825 -30.6799 -30.6799
   -30.6481 -30.6481 -30.6394 -30.6380 -30.6378 -30.6361 -30.6359 -30.6316
   -30.6302 -30.6273 -30.6273 -30.6247 -30.6246 -30.6239 -30.6239 -30.6227
   -30.6227 -30.6147 -30.6108 -30.6108 -30.6049 -30.5976 -30.5969 -30.5819
   -30.5819 -30.5751 -30.5750 -30.5735 -30.5734 -30.5703 -30.5695 -30.5695
   -30.5662 -30.5662 -30.5658 -30.5658 -30.5599 -30.5579 -30.5549 -30.5540
   -30.5534 -30.5532 -30.5531 -30.5531 -30.5525 -30.5503 -30.5502 -30.5498
   -30.5469 -30.5399 -30.5399 -30.5387 -30.5381 -30.5188 -30.5053 -30.5044
    12.4196  13.5773  14.0616  14.0977  14.0977  14.1240  14.1643  14.1643
    14.1903  14.3172  14.3604  14.3604  14.3752  14.3753  14.4610  14.5729
    14.5730  14.7366  14.7366  14.7792  14.7910  14.8685  14.8685  14.9199
    15.0249  15.0250  15.0679  15.0680  15.0906  15.0907  15.0973  15.0973
    15.1980  15.1981  15.2088  15.2089  15.3225  15.3225  15.3701  15.3701
    15.4859  15.4859  15.6261  15.6261  15.6597  15.6597  15.6780  15.6781
    15.6791  15.6977  15.6978  15.7256  15.7257  15.8368  15.8369  15.9077
    15.9078  15.9592  15.9630  15.9631  16.0340  16.0340  16.0575  16.0576
    16.0635  16.0636  16.1293  16.1448  16.1449  16.2290  16.2626  16.2656
    16.2656  16.3251  16.3252  16.3286  16.4254  16.4600  16.4600  16.4765
    16.4876  16.4897  16.6382  16.6382  16.6557  16.7050  16.7921  16.7922
    16.8481  16.8481  16.8660  16.8661  16.9357  17.0145  17.0207  17.0207
    17.0378  17.0435  17.3382  17.3566  17.3566  17.4527  17.4527  17.5201
    17.5203  17.5358  17.5359  17.5936  17.5936  17.6246  17.6248  17.6874
    17.6875  17.7940  17.8296  17.8297  17.8306  17.8307  17.8539  17.8540
    17.8598  17.8599  17.9597  18.0562  18.1079  18.1079  18.1234  18.1234
    18.1343  18.2191  18.2230  18.2234  18.2637  18.2637  18.2663  18.2663
    18.3108  18.3108  18.3378  18.3533  18.3534  18.4278  18.6013  18.6014
    18.6633  18.6633  18.6719  18.7153  18.8129  18.8129  18.8618  18.8618
    18.8671  18.9432  18.9508  18.9508  18.9629  19.0887  19.1420  19.1420
    19.1432  19.1432  19.1743  19.3436  19.3441  19.3448  19.3452  19.9499
    19.9499  20.1827  20.3987  20.3988  20.7171  20.7171  20.7510  21.0937
    21.2761  21.2761  21.4950  21.8118  22.5459  22.5459  23.0911  23.0912
    23.2399  23.2399  25.7551  25.7552  25.9089  25.9089  26.3136  26.3136
    26.3546  26.6588  26.6588  27.0628  27.7241  27.7242  28.3966  28.3967
    28.7088  29.1647  29.1647  29.2534  29.2534  29.5055  29.5055  29.5528
    29.5528  29.6496  29.6496  29.8115  29.9096  29.9096  30.0747  30.0747
    30.0841  30.0842

          k = 0.0555 0.0555 0.3882 ( 33155 PWs)   bands (ev):

   -64.9789 -64.9711 -64.9530 -64.9529 -64.9487 -64.9486 -64.9480 -64.9479
   -64.9444 -64.9443 -64.9401 -64.9390 -64.9381 -64.9376 -64.9372 -64.9366
   -64.9362 -64.9353 -64.9352 -64.9292 -64.9291 -64.9280 -64.9280 -64.9276
   -64.9250 -64.9249 -64.9245 -64.9244 -64.9227 -64.9222 -64.9218 -64.9212
   -30.8454 -30.8413 -30.8412 -30.8354 -30.8273 -30.8273 -30.8165 -30.8149
   -30.8094 -30.8094 -30.8021 -30.8021 -30.8017 -30.7756 -30.7724 -30.7724
   -30.7676 -30.7675 -30.7660 -30.7659 -30.7566 -30.7565 -30.7393 -30.7392
   -30.7319 -30.7319 -30.7217 -30.7216 -30.7167 -30.7167 -30.7165 -30.7165
   -30.7115 -30.7115 -30.6953 -30.6953 -30.6931 -30.6931 -30.6831 -30.6831
   -30.6574 -30.6574 -30.6378 -30.6375 -30.6365 -30.6361 -30.6255 -30.6242
   -30.6198 -30.6121 -30.6121 -30.6114 -30.6114 -30.6108 -30.6108 -30.6094
   -30.6094 -30.6082 -30.6072 -30.5982 -30.5980 -30.5980 -30.5897 -30.5897
   -30.5860 -30.5859 -30.5858 -30.5858 -30.5842 -30.5783 -30.5776 -30.5775
   -30.5770 -30.5769 -30.5698 -30.5608 -30.5607 -30.5574 -30.5558 -30.5540
   -30.5534 -30.5531 -30.5525 -30.5521 -30.5521 -30.5490 -30.5477 -30.5476
   -30.5472 -30.5403 -30.5403 -30.5344 -30.5282 -30.5275 -30.5112 -30.5103
    12.6315  13.2258  14.1534  14.2260  14.2260  14.2338  14.2861  14.2861
    14.3233  14.3725  14.3981  14.4853  14.4853  14.5144  14.5145  14.5613
    14.5613  14.5702  14.6314  14.6415  14.6415  14.6933  14.7141  14.7142
    14.8551  14.8551  14.8590  14.8591  15.0578  15.0579  15.1521  15.1522
    15.2069  15.2070  15.2741  15.2742  15.2928  15.2929  15.4311  15.4312
    15.4866  15.4867  15.4945  15.4945  15.5926  15.5927  15.6315  15.6315
    15.6488  15.6488  15.6901  15.6902  15.7367  15.7368  15.8549  15.8774
    15.8775  15.9092  15.9093  16.0195  16.0637  16.0638  16.0644  16.0645
    16.0953  16.0953  16.1531  16.1612  16.1966  16.2146  16.2146  16.2461
    16.2462  16.2948  16.3746  16.3746  16.5129  16.5574  16.5574  16.5822
    16.5832  16.5844  16.6130  16.6130  16.6212  16.6213  16.7728  16.8176
    16.8176  16.8578  16.8630  16.8695  17.0494  17.0526  17.0526  17.0670
    17.2905  17.2905  17.4218  17.4218  17.4283  17.4465  17.4465  17.6155
    17.6157  17.6519  17.6520  17.6602  17.6603  17.6760  17.6762  17.6856
    17.7132  17.7133  17.7988  17.7989  17.8348  17.8396  17.8397  17.8419
    17.8420  17.8580  17.8580  17.8714  17.8714  17.9576  18.0064  18.0698
    18.0698  18.1398  18.2173  18.2173  18.3098  18.3098  18.3441  18.3835
    18.4662  18.4663  18.4700  18.5256  18.5325  18.5326  18.5538  18.5539
    18.7057  18.7057  18.7202  18.8137  18.8207  18.8207  18.8488  18.8516
    18.8593  18.8594  18.8993  18.9643  18.9643  18.9653  18.9653  19.0361
    19.1556  19.1557  19.2879  19.3435  19.3441  19.3446  19.3451  19.5536
    19.5537  19.9622  19.9622  20.3709  20.6598  20.7654  20.9197  20.9197
    21.1975  21.1975  21.3872  21.7316  23.2523  23.2524  23.7988  23.7988
    23.8364  23.8364  24.8709  24.8709  25.1929  25.1929  25.4188  25.4188
    26.7062  27.1228  27.1228  27.6041  27.9094  28.0737  28.0737  28.4395
    28.4395  28.7302  28.7303  28.9877  28.9877  28.9920  29.3736  29.3736
    29.5128  29.5128  29.5974  29.5975  30.0494  30.0495  30.0524  30.0525
    30.2768  30.2769

          k = 0.0555 0.0555-0.4992 ( 33152 PWs)   bands (ev):

   -64.9757 -64.9750 -64.9514 -64.9513 -64.9507 -64.9506 -64.9468 -64.9467
   -64.9460 -64.9459 -64.9400 -64.9392 -64.9381 -64.9376 -64.9372 -64.9366
   -64.9360 -64.9353 -64.9315 -64.9307 -64.9273 -64.9272 -64.9265 -64.9265
   -64.9264 -64.9264 -64.9257 -64.9256 -64.9227 -64.9222 -64.9218 -64.9212
   -30.8316 -30.8312 -30.8269 -30.8266 -30.8261 -30.8258 -30.8197 -30.8193
   -30.8161 -30.8161 -30.8153 -30.8153 -30.7982 -30.7975 -30.7704 -30.7703
   -30.7701 -30.7700 -30.7628 -30.7627 -30.7626 -30.7625 -30.7283 -30.7283
   -30.7279 -30.7279 -30.7232 -30.7231 -30.7225 -30.7225 -30.7076 -30.7076
   -30.7072 -30.7072 -30.7072 -30.7071 -30.7064 -30.7064 -30.6695 -30.6695
   -30.6688 -30.6688 -30.6376 -30.6371 -30.6368 -30.6362 -30.6179 -30.6172
   -30.6168 -30.6160 -30.6011 -30.6008 -30.6000 -30.6000 -30.5992 -30.5992
   -30.5992 -30.5992 -30.5988 -30.5988 -30.5983 -30.5983 -30.5980 -30.5980
   -30.5928 -30.5926 -30.5921 -30.5918 -30.5869 -30.5869 -30.5862 -30.5861
   -30.5830 -30.5827 -30.5571 -30.5563 -30.5560 -30.5560 -30.5557 -30.5556
   -30.5548 -30.5542 -30.5540 -30.5534 -30.5531 -30.5525 -30.5485 -30.5477
   -30.5433 -30.5432 -30.5430 -30.5429 -30.5193 -30.5186 -30.5185 -30.5178
    12.9036  12.9046  14.2616  14.2624  14.3831  14.3832  14.3841  14.3847
    14.3849  14.3855  14.4455  14.4455  14.4463  14.4464  14.4922  14.4922
    14.5031  14.5039  14.6502  14.6502  14.6510  14.6510  14.6812  14.6813
    14.6820  14.6821  14.8826  14.8827  14.8833  14.8834  15.2350  15.2351
    15.2354  15.2354  15.3499  15.3500  15.3506  15.3507  15.3734  15.3734
    15.3740  15.3741  15.5069  15.5070  15.5075  15.5076  15.6600  15.6600
    15.6602  15.6602  15.6680  15.6681  15.6681  15.6682  15.8778  15.8779
    15.8779  15.8780  16.0148  16.0155  16.0662  16.0663  16.0668  16.0669
    16.0888  16.0893  16.1555  16.1559  16.1562  16.1567  16.2495  16.2500
    16.4105  16.4106  16.4107  16.4107  16.4711  16.4711  16.4712  16.4713
    16.6298  16.6300  16.6813  16.6815  16.6820  16.6823  16.7078  16.7085
    16.7089  16.7097  16.7147  16.7150  17.4398  17.4399  17.4404  17.4405
    17.4435  17.4435  17.4437  17.4438  17.4470  17.4473  17.4907  17.4909
    17.5570  17.5578  17.6577  17.6578  17.6583  17.6585  17.7408  17.7408
    17.7415  17.7415  17.7510  17.7510  17.7515  17.7515  17.7563  17.7565
    17.7570  17.7571  17.7952  17.7953  17.7959  17.7959  17.9688  17.9688
    17.9695  17.9695  18.0665  18.0673  18.5163  18.5166  18.5170  18.5174
    18.5428  18.5430  18.6555  18.6556  18.6562  18.6563  18.6625  18.6632
    18.6899  18.6902  18.6999  18.7002  18.7549  18.7549  18.7555  18.7555
    18.7628  18.7629  18.7634  18.7634  18.9147  18.9151  19.1867  19.1868
    19.1869  19.1869  19.3435  19.3441  19.3444  19.3450  19.5460  19.5461
    19.5461  19.5462  20.0068  20.0075  20.5327  20.5335  21.0802  21.0803
    21.0810  21.0810  21.5960  21.5967  24.0300  24.0300  24.0303  24.0304
    24.4961  24.4961  24.4966  24.4967  24.5760  24.5761  24.5764  24.5764
    27.2319  27.2321  27.7220  27.7221  27.7227  27.7229  28.2513  28.2514
    28.5022  28.5023  28.5030  28.5030  29.1380  29.1381  29.1388  29.1389
    29.4575  29.4578  29.4582  29.4586  30.2242  30.2243  30.2251  30.2252
    30.5065  30.5072

          k = 0.0555 0.1664 0.1664 ( 33149 PWs)   bands (ev):

   -64.9825 -64.9608 -64.9607 -64.9549 -64.9496 -64.9467 -64.9448 -64.9447
   -64.9432 -64.9431 -64.9399 -64.9398 -64.9392 -64.9378 -64.9367 -64.9366
   -64.9363 -64.9363 -64.9346 -64.9344 -64.9326 -64.9326 -64.9305 -64.9234
   -64.9231 -64.9229 -64.9227 -64.9226 -64.9225 -64.9223 -64.9222 -64.9215
   -30.8603 -30.8603 -30.8556 -30.8510 -30.8392 -30.8377 -30.8377 -30.7830
   -30.7830 -30.7806 -30.7805 -30.7713 -30.7713 -30.7699 -30.7679 -30.7679
   -30.7672 -30.7671 -30.7667 -30.7666 -30.7590 -30.7589 -30.7569 -30.7569
   -30.7339 -30.7276 -30.7276 -30.7258 -30.7258 -30.7211 -30.7210 -30.7130
   -30.7130 -30.7029 -30.6995 -30.6756 -30.6710 -30.6710 -30.6574 -30.6574
   -30.6532 -30.6531 -30.6475 -30.6409 -30.6409 -30.6394 -30.6394 -30.6341
   -30.6339 -30.6336 -30.6335 -30.6330 -30.6319 -30.6318 -30.6299 -30.6299
   -30.6283 -30.6282 -30.6161 -30.6161 -30.6106 -30.5888 -30.5887 -30.5834
   -30.5834 -30.5742 -30.5727 -30.5712 -30.5655 -30.5654 -30.5652 -30.5652
   -30.5623 -30.5622 -30.5614 -30.5614 -30.5610 -30.5604 -30.5570 -30.5560
   -30.5559 -30.5548 -30.5524 -30.5524 -30.5517 -30.5508 -30.5507 -30.5507
   -30.5461 -30.5461 -30.5422 -30.5422 -30.5355 -30.5156 -30.5030 -30.5003
    12.3473  13.9788  13.9789  14.0423  14.0423  14.0494  14.0676  14.1087
    14.1485  14.1485  14.3040  14.3040  14.3170  14.3218  14.5110  14.5436
    14.5436  14.9051  14.9052  14.9253  14.9254  14.9494  14.9494  14.9733
    14.9734  14.9919  15.0437  15.0437  15.0626  15.0626  15.1841  15.1893
    15.1893  15.1976  15.1977  15.2493  15.3592  15.3882  15.3882  15.3945
    15.3945  15.4230  15.4230  15.5112  15.5112  15.6544  15.6545  15.7370
    15.7370  15.7478  15.8426  15.8427  15.8578  15.8579  15.9182  15.9182
    15.9288  15.9884  15.9885  15.9976  15.9977  16.0513  16.0513  16.1485
    16.1968  16.1969  16.2415  16.2415  16.2486  16.2487  16.2955  16.3190
    16.3546  16.3547  16.3557  16.3592  16.3592  16.3767  16.3768  16.3942
    16.4255  16.4255  16.4261  16.4263  16.4381  16.4496  16.4496  16.4549
    16.8967  16.9547  16.9547  17.0052  17.1107  17.1108  17.2177  17.2389
    17.2389  17.2390  17.2391  17.2967  17.2968  17.3198  17.3199  17.3746
    17.3809  17.3810  17.4612  17.5330  17.5428  17.5429  17.5625  17.5625
    17.5853  17.8381  17.8381  17.8548  17.8549  17.8603  17.9181  17.9292
    17.9293  17.9456  17.9457  17.9461  17.9551  17.9552  18.0354  18.0354
    18.0635  18.0635  18.2415  18.2416  18.2817  18.2932  18.2932  18.2966
    18.3384  18.3384  18.3426  18.3427  18.4013  18.4014  18.4339  18.4729
    18.5949  18.7031  18.7538  18.7538  18.8867  18.8869  18.8869  18.9047
    19.0009  19.0321  19.0321  19.0485  19.0485  19.0596  19.2165  19.2165
    19.2734  19.2734  19.2758  19.2758  19.2857  19.2857  19.3082  19.7332
    19.9462  20.3446  20.3446  20.3948  20.8343  20.8343  21.0200  21.0200
    21.4042  21.4042  21.8997  21.8998  22.3918  22.3918  22.4398  22.4399
    23.0152  23.0344  26.0123  26.0123  26.1819  26.1819  26.6449  26.7240
    26.7240  26.7661  26.7661  27.0448  27.3550  27.3550  27.7930  27.7932
    28.7998  28.7998  29.0823  29.0823  29.4739  29.5618  29.6201  29.6201
    29.7042  29.7042  29.9340  29.9340  30.0378  30.0378  30.4260  30.4260
    30.7132  30.7179

          k = 0.0555 0.1664 0.2773 ( 33144 PWs)   bands (ev):

   -64.9807 -64.9658 -64.9595 -64.9539 -64.9499 -64.9488 -64.9459 -64.9441
   -64.9429 -64.9421 -64.9401 -64.9398 -64.9397 -64.9384 -64.9382 -64.9360
   -64.9356 -64.9346 -64.9333 -64.9329 -64.9319 -64.9304 -64.9286 -64.9248
   -64.9239 -64.9237 -64.9237 -64.9233 -64.9230 -64.9226 -64.9223 -64.9216
   -30.8550 -30.8537 -30.8463 -30.8401 -30.8332 -30.8321 -30.8285 -30.8001
   -30.7966 -30.7866 -30.7838 -30.7834 -30.7831 -30.7831 -30.7738 -30.7729
   -30.7726 -30.7674 -30.7667 -30.7646 -30.7627 -30.7615 -30.7584 -30.7521
   -30.7445 -30.7316 -30.7289 -30.7226 -30.7188 -30.7176 -30.7138 -30.7119
   -30.7075 -30.7054 -30.6962 -30.6867 -30.6840 -30.6709 -30.6667 -30.6555
   -30.6533 -30.6516 -30.6458 -30.6402 -30.6383 -30.6351 -30.6341 -30.6335
   -30.6316 -30.6311 -30.6296 -30.6250 -30.6219 -30.6202 -30.6196 -30.6169
   -30.6155 -30.6133 -30.6032 -30.6026 -30.6003 -30.5971 -30.5952 -30.5942
   -30.5795 -30.5785 -30.5784 -30.5768 -30.5744 -30.5742 -30.5737 -30.5729
   -30.5681 -30.5654 -30.5647 -30.5624 -30.5623 -30.5618 -30.5583 -30.5578
   -30.5573 -30.5554 -30.5551 -30.5543 -30.5511 -30.5507 -30.5489 -30.5429
   -30.5409 -30.5407 -30.5405 -30.5344 -30.5316 -30.5279 -30.5072 -30.5025
    12.4900  13.6329  14.0805  14.1084  14.1205  14.1304  14.1325  14.1749
    14.2400  14.2524  14.3578  14.3867  14.3935  14.4110  14.5122  14.5824
    14.6448  14.7199  14.7468  14.7771  14.8018  14.8122  14.8192  14.8503
    14.9443  14.9542  14.9771  14.9869  15.0083  15.0328  15.1064  15.1140
    15.1232  15.1405  15.1701  15.2200  15.2602  15.2807  15.3101  15.4107
    15.4227  15.4351  15.4757  15.5441  15.5817  15.5979  15.6057  15.6918
    15.7008  15.7117  15.7267  15.7425  15.7892  15.8541  15.8628  15.9067
    15.9092  15.9204  16.0071  16.0573  16.1012  16.1035  16.1555  16.1654
    16.1815  16.1835  16.1954  16.2215  16.2546  16.2732  16.2786  16.3111
    16.3378  16.3543  16.4118  16.4423  16.4668  16.4846  16.4886  16.4926
    16.5136  16.5309  16.5368  16.5490  16.5642  16.6661  16.7456  16.7761
    16.7994  16.8072  16.8311  16.9206  16.9407  17.0382  17.0489  17.0634
    17.1335  17.1507  17.1619  17.2348  17.2398  17.3147  17.3215  17.4253
    17.4394  17.4612  17.4675  17.5190  17.5637  17.6464  17.6983  17.7027
    17.7196  17.7951  17.8066  17.8218  17.8524  17.9008  17.9340  17.9441
    17.9689  18.0145  18.0177  18.0582  18.0646  18.0763  18.0766  18.0870
    18.0985  18.1260  18.1982  18.2377  18.2589  18.2914  18.3247  18.3858
    18.3951  18.4231  18.4282  18.4308  18.4355  18.4562  18.4611  18.5486
    18.5556  18.5776  18.6701  18.7530  18.7814  18.8038  18.8805  18.8960
    18.9672  19.0059  19.0069  19.0113  19.0955  19.1087  19.1095  19.1160
    19.1422  19.1453  19.1803  19.2730  19.2768  19.2831  19.2875  19.5582
    19.7633  19.9180  20.2816  20.3758  20.4209  20.7867  20.9180  21.3068
    21.5044  21.7866  21.8694  22.0243  22.4053  22.5467  22.8661  23.0886
    23.4652  23.6714  25.1808  25.3676  25.8236  26.0543  26.1846  26.3310
    26.3549  26.8433  27.0345  27.0519  27.0736  27.5499  27.5653  28.1957
    28.3213  28.5875  28.7258  28.9098  29.0310  29.1238  29.3549  29.5198
    29.7027  29.8018  29.8312  30.0173  30.0825  30.3059  30.4002  30.4173
    30.6437  30.7403

          k = 0.0555 0.1664 0.3882 ( 33185 PWs)   bands (ev):

   -64.9780 -64.9704 -64.9578 -64.9529 -64.9525 -64.9484 -64.9476 -64.9441
   -64.9431 -64.9425 -64.9409 -64.9401 -64.9396 -64.9386 -64.9357 -64.9351
   -64.9348 -64.9347 -64.9333 -64.9303 -64.9294 -64.9283 -64.9275 -64.9269
   -64.9254 -64.9253 -64.9249 -64.9239 -64.9233 -64.9227 -64.9223 -64.9216
   -30.8458 -30.8433 -30.8336 -30.8260 -30.8243 -30.8239 -30.8174 -30.8149
   -30.8137 -30.8010 -30.8008 -30.7992 -30.7911 -30.7828 -30.7811 -30.7764
   -30.7762 -30.7759 -30.7747 -30.7709 -30.7618 -30.7578 -30.7548 -30.7473
   -30.7391 -30.7356 -30.7304 -30.7264 -30.7231 -30.7156 -30.7071 -30.7025
   -30.7006 -30.6999 -30.6959 -30.6906 -30.6837 -30.6805 -30.6791 -30.6688
   -30.6654 -30.6550 -30.6343 -30.6336 -30.6310 -30.6307 -30.6305 -30.6288
   -30.6247 -30.6235 -30.6214 -30.6136 -30.6111 -30.6103 -30.6096 -30.6086
   -30.6060 -30.6048 -30.6022 -30.5997 -30.5923 -30.5914 -30.5880 -30.5880
   -30.5875 -30.5873 -30.5871 -30.5853 -30.5850 -30.5849 -30.5847 -30.5743
   -30.5723 -30.5720 -30.5651 -30.5644 -30.5636 -30.5633 -30.5622 -30.5612
   -30.5603 -30.5591 -30.5534 -30.5528 -30.5517 -30.5492 -30.5471 -30.5441
   -30.5440 -30.5412 -30.5354 -30.5305 -30.5304 -30.5238 -30.5133 -30.5075
    12.6992  13.2857  14.2009  14.2134  14.2252  14.2477  14.2616  14.2803
    14.3688  14.3915  14.4224  14.4374  14.4975  14.5102  14.5156  14.5422
    14.5677  14.5997  14.6006  14.6044  14.6670  14.6780  14.7295  14.7379
    14.7611  14.7884  14.8755  14.8920  14.9126  14.9931  15.1037  15.1223
    15.1284  15.1447  15.1831  15.2379  15.2444  15.3672  15.3764  15.3990
    15.4283  15.4425  15.5050  15.5181  15.5366  15.5450  15.5459  15.5531
    15.5889  15.6319  15.6884  15.7188  15.7306  15.7864  15.8630  15.8867
    15.9199  15.9677  16.0726  16.0811  16.1115  16.1350  16.1514  16.1529
    16.1534  16.1584  16.2048  16.2401  16.2551  16.2611  16.2704  16.2936
    16.3400  16.3762  16.3876  16.5186  16.5226  16.5785  16.5845  16.5932
    16.5980  16.5998  16.6408  16.6524  16.6724  16.7361  16.7429  16.7507
    16.8277  16.8420  16.8605  16.9308  16.9621  16.9857  17.0251  17.0449
    17.2047  17.2126  17.2346  17.2535  17.2597  17.2853  17.3807  17.4726
    17.4746  17.4931  17.5548  17.6029  17.6525  17.6679  17.6776  17.6785
    17.6939  17.7056  17.7508  17.7823  17.8219  17.8453  17.8514  17.8592
    17.9109  17.9178  17.9650  17.9944  18.0209  18.0715  18.0984  18.1108
    18.1412  18.1433  18.1434  18.2806  18.2991  18.3016  18.3297  18.3357
    18.4446  18.4837  18.5254  18.5591  18.5932  18.6163  18.6194  18.6241
    18.6295  18.6343  18.6587  18.7201  18.7237  18.8215  18.8267  18.8503
    18.8745  18.9186  18.9204  18.9658  18.9662  18.9664  18.9707  19.0569
    19.1323  19.2058  19.2733  19.2777  19.2789  19.2809  19.5220  19.5413
    19.6587  19.9104  19.9406  20.1865  20.4467  20.5140  20.7148  21.0711
    21.5406  21.8101  21.8958  22.3253  22.7213  23.2687  23.4400  23.8070
    24.0327  24.3196  24.3715  24.7136  24.9212  25.3508  25.4468  25.9704
    26.3866  26.7111  27.3181  27.4022  27.4217  27.6184  27.8649  27.9235
    28.1206  28.1457  28.3616  28.6592  28.8101  29.0105  29.3517  29.4288
    29.5802  29.7382  29.7523  29.8971  29.9809  30.1789  30.1902  30.2607
    30.3224  30.5838

          k = 0.0555 0.1664-0.4992 ( 33154 PWs)   bands (ev):

   -64.9749 -64.9741 -64.9560 -64.9552 -64.9510 -64.9502 -64.9464 -64.9456
   -64.9421 -64.9421 -64.9414 -64.9413 -64.9395 -64.9387 -64.9356 -64.9348
   -64.9344 -64.9336 -64.9313 -64.9306 -64.9280 -64.9275 -64.9273 -64.9268
   -64.9268 -64.9260 -64.9257 -64.9249 -64.9233 -64.9227 -64.9223 -64.9216
   -30.8332 -30.8329 -30.8298 -30.8295 -30.8183 -30.8180 -30.8138 -30.8133
   -30.8130 -30.8125 -30.8095 -30.8091 -30.7977 -30.7970 -30.7799 -30.7798
   -30.7772 -30.7768 -30.7767 -30.7767 -30.7573 -30.7571 -30.7473 -30.7469
   -30.7356 -30.7355 -30.7351 -30.7351 -30.7157 -30.7154 -30.7068 -30.7064
   -30.6961 -30.6955 -30.6907 -30.6899 -30.6857 -30.6854 -30.6773 -30.6769
   -30.6671 -30.6663 -30.6343 -30.6336 -30.6306 -30.6302 -30.6211 -30.6203
   -30.6159 -30.6152 -30.6128 -30.6121 -30.6106 -30.6103 -30.6034 -30.6031
   -30.6009 -30.6005 -30.5988 -30.5985 -30.5977 -30.5972 -30.5969 -30.5965
   -30.5946 -30.5938 -30.5849 -30.5845 -30.5814 -30.5806 -30.5746 -30.5743
   -30.5741 -30.5733 -30.5695 -30.5690 -30.5645 -30.5641 -30.5624 -30.5616
   -30.5606 -30.5599 -30.5571 -30.5567 -30.5528 -30.5521 -30.5457 -30.5450
   -30.5444 -30.5441 -30.5320 -30.5318 -30.5214 -30.5207 -30.5149 -30.5145
    12.9677  12.9687  14.3102  14.3110  14.3456  14.3457  14.3959  14.3966
    14.4027  14.4035  14.4211  14.4219  14.4240  14.4240  14.5329  14.5329
    14.5407  14.5416  14.5627  14.5628  14.6164  14.6170  14.6733  14.6741
    14.7110  14.7116  14.7852  14.7856  14.9616  14.9623  15.0461  15.0462
    15.2393  15.2395  15.2432  15.2438  15.2780  15.2788  15.3811  15.3818
    15.4547  15.4548  15.4822  15.4830  15.5318  15.5321  15.5563  15.5566
    15.6064  15.6064  15.6393  15.6398  15.6426  15.6430  15.9960  15.9965
    16.0171  16.0177  16.0182  16.0188  16.0377  16.0383  16.0985  16.0986
    16.1985  16.1991  16.2107  16.2111  16.3117  16.3123  16.3489  16.3496
    16.4087  16.4088  16.4524  16.4525  16.4654  16.4656  16.5802  16.5803
    16.6240  16.6242  16.6908  16.6910  16.7066  16.7073  16.7097  16.7105
    16.7716  16.7719  16.7924  16.7926  17.2416  17.2421  17.2516  17.2521
    17.3022  17.3023  17.3137  17.3139  17.3395  17.3398  17.3884  17.3887
    17.4316  17.4323  17.5765  17.5772  17.5836  17.5842  17.6538  17.6542
    17.6662  17.6668  17.7020  17.7024  17.7099  17.7105  17.7765  17.7772
    17.8875  17.8882  17.9268  17.9274  17.9970  17.9977  18.0613  18.0621
    18.1901  18.1909  18.2398  18.2406  18.3123  18.3129  18.4787  18.4793
    18.5188  18.5189  18.5359  18.5365  18.6695  18.6698  18.6937  18.6938
    18.7544  18.7550  18.7808  18.7813  18.7849  18.7850  18.7910  18.7912
    18.7994  18.7999  18.8021  18.8026  18.8901  18.8903  18.9402  18.9404
    19.1549  19.1550  19.2745  19.2752  19.2789  19.2796  19.5252  19.5254
    19.9874  19.9876  20.0602  20.0609  20.3390  20.3396  20.6203  20.6211
    21.7056  21.7064  22.1660  22.1667  23.4906  23.4910  24.0631  24.0634
    24.0647  24.0652  24.5954  24.5957  24.6704  24.6710  25.1384  25.1387
    26.8047  26.8048  27.2418  27.2420  27.6916  27.6923  27.8511  27.8518
    28.2347  28.2355  28.2681  28.2683  28.8251  28.8252  29.2088  29.2091
    29.7414  29.7422  29.9082  29.9088  29.9096  29.9101  30.0210  30.0219
    30.8787  30.8799

          k = 0.0555 0.2773 0.2773 ( 33153 PWs)   bands (ev):

   -64.9789 -64.9645 -64.9644 -64.9536 -64.9530 -64.9481 -64.9454 -64.9454
   -64.9418 -64.9417 -64.9414 -64.9392 -64.9392 -64.9391 -64.9349 -64.9349
   -64.9346 -64.9345 -64.9322 -64.9321 -64.9309 -64.9308 -64.9271 -64.9250
   -64.9248 -64.9246 -64.9245 -64.9239 -64.9239 -64.9229 -64.9227 -64.9218
   -30.8499 -30.8499 -30.8361 -30.8282 -30.8272 -30.8239 -30.8239 -30.8002
   -30.8001 -30.7986 -30.7985 -30.7865 -30.7865 -30.7787 -30.7786 -30.7763
   -30.7763 -30.7730 -30.7730 -30.7711 -30.7711 -30.7619 -30.7598 -30.7598
   -30.7555 -30.7555 -30.7276 -30.7218 -30.7153 -30.7153 -30.7081 -30.7081
   -30.7009 -30.6987 -30.6910 -30.6909 -30.6651 -30.6637 -30.6637 -30.6534
   -30.6534 -30.6514 -30.6514 -30.6414 -30.6414 -30.6292 -30.6292 -30.6275
   -30.6273 -30.6273 -30.6261 -30.6259 -30.6215 -30.6215 -30.6134 -30.6133
   -30.6060 -30.6060 -30.6045 -30.6044 -30.5920 -30.5920 -30.5913 -30.5913
   -30.5865 -30.5865 -30.5841 -30.5841 -30.5757 -30.5757 -30.5738 -30.5732
   -30.5730 -30.5719 -30.5719 -30.5705 -30.5621 -30.5621 -30.5608 -30.5596
   -30.5584 -30.5576 -30.5525 -30.5515 -30.5515 -30.5509 -30.5457 -30.5456
   -30.5417 -30.5416 -30.5416 -30.5291 -30.5291 -30.5260 -30.5114 -30.5027
    12.6289  13.7417  13.7418  14.1543  14.1965  14.1996  14.1996  14.2222
    14.3495  14.3495  14.4277  14.4388  14.4388  14.5088  14.5617  14.6024
    14.6119  14.6119  14.6531  14.6531  14.7693  14.7693  14.7697  14.7697
    14.8559  14.8560  14.8783  14.8784  15.0429  15.0430  15.0432  15.0491
    15.0491  15.1471  15.1472  15.1805  15.1805  15.2234  15.2235  15.3015
    15.3015  15.3801  15.4973  15.4973  15.5030  15.5030  15.5268  15.7144
    15.7145  15.7434  15.7435  15.7551  15.7552  15.7599  15.7687  16.0116
    16.0116  16.0848  16.0848  16.1709  16.1709  16.1745  16.1746  16.2163
    16.2194  16.2195  16.2459  16.2460  16.2647  16.3581  16.3841  16.3913
    16.3914  16.4814  16.4814  16.4952  16.5250  16.5498  16.5618  16.5861
    16.5861  16.5875  16.6321  16.6321  16.6486  16.6487  16.6594  16.6946
    16.7947  16.7948  16.8178  16.8178  16.9832  16.9832  17.0370  17.0371
    17.1181  17.1182  17.1711  17.2106  17.2625  17.2626  17.2932  17.2933
    17.3114  17.3115  17.3786  17.3833  17.5247  17.5248  17.6551  17.7430
    17.7430  17.7569  17.7569  17.7663  17.7932  17.8749  17.8749  17.9470
    17.9910  18.0434  18.0435  18.0983  18.0984  18.1450  18.1451  18.1845
    18.1845  18.2942  18.2942  18.2951  18.2952  18.3172  18.3173  18.3178
    18.3207  18.3710  18.3710  18.5238  18.5665  18.5928  18.5928  18.5997
    18.5997  18.6026  18.6026  18.7040  18.7065  18.7462  18.8653  18.8653
    18.9392  19.0163  19.0163  19.0323  19.0473  19.0473  19.1445  19.1446
    19.1481  19.1482  19.1712  19.1713  19.2121  19.2261  19.5338  19.5581
    19.5581  19.8549  19.8549  20.2398  20.3318  20.3319  21.5170  21.5170
    21.8917  21.8917  22.2523  22.2523  22.5384  22.5384  23.0648  23.0648
    23.8684  24.2986  24.5909  24.5909  25.8436  25.8436  26.1843  26.1843
    26.3288  26.3289  26.7910  26.7910  27.4209  27.4211  27.5852  27.7161
    27.7162  28.1117  28.2308  28.2309  28.3138  29.4079  29.6049  29.6049
    29.7409  29.7410  30.1717  30.1785  30.4449  30.4450  30.5983  30.5984
    30.8066  30.8066

          k = 0.0555 0.2773 0.3882 ( 33180 PWs)   bands (ev):

   -64.9763 -64.9689 -64.9625 -64.9570 -64.9517 -64.9477 -64.9469 -64.9448
   -64.9437 -64.9426 -64.9414 -64.9399 -64.9384 -64.9361 -64.9347 -64.9340
   -64.9335 -64.9325 -64.9315 -64.9314 -64.9298 -64.9289 -64.9273 -64.9260
   -64.9259 -64.9258 -64.9257 -64.9249 -64.9240 -64.9235 -64.9227 -64.9219
   -30.8422 -30.8413 -30.8227 -30.8184 -30.8172 -30.8168 -30.8146 -30.8133
   -30.8118 -30.7983 -30.7975 -30.7974 -30.7937 -30.7900 -30.7859 -30.7856
   -30.7850 -30.7782 -30.7779 -30.7772 -30.7713 -30.7681 -30.7609 -30.7599
   -30.7586 -30.7451 -30.7364 -30.7343 -30.7257 -30.7135 -30.7016 -30.6978
   -30.6940 -30.6836 -30.6822 -30.6762 -30.6756 -30.6755 -30.6668 -30.6635
   -30.6504 -30.6445 -30.6422 -30.6373 -30.6349 -30.6344 -30.6288 -30.6271
   -30.6244 -30.6225 -30.6215 -30.6169 -30.6155 -30.6142 -30.6107 -30.6047
   -30.6042 -30.6036 -30.6025 -30.6024 -30.5997 -30.5944 -30.5917 -30.5908
   -30.5895 -30.5876 -30.5832 -30.5830 -30.5811 -30.5789 -30.5786 -30.5781
   -30.5721 -30.5714 -30.5704 -30.5673 -30.5658 -30.5655 -30.5651 -30.5648
   -30.5590 -30.5578 -30.5564 -30.5542 -30.5528 -30.5525 -30.5523 -30.5484
   -30.5433 -30.5428 -30.5349 -30.5248 -30.5229 -30.5191 -30.5176 -30.5056
    12.8327  13.4034  13.8986  14.2255  14.2937  14.2963  14.3062  14.3211
    14.3303  14.4743  14.4774  14.4802  14.4900  14.5159  14.5195  14.5598
    14.5813  14.5894  14.5898  14.6333  14.6481  14.6740  14.7203  14.7383
    14.7538  14.8074  14.8334  14.8459  14.9161  14.9416  14.9678  14.9785
    15.0164  15.1136  15.1178  15.1522  15.1968  15.2239  15.2275  15.2772
    15.2906  15.3399  15.3680  15.4047  15.4424  15.5500  15.5953  15.6130
    15.6314  15.6785  15.7411  15.7718  15.7997  15.8230  15.8746  15.9829
    15.9954  15.9957  16.0783  16.1348  16.1409  16.1995  16.2450  16.2480
    16.2819  16.2839  16.2893  16.3265  16.3571  16.3780  16.4002  16.4873
    16.4928  16.5301  16.5515  16.5540  16.5679  16.5935  16.6006  16.6308
    16.6359  16.6390  16.6523  16.7352  16.7356  16.7554  16.7603  16.7775
    16.7867  16.8628  16.8650  16.8679  16.9430  16.9623  17.0292  17.0441
    17.0549  17.0913  17.1127  17.1238  17.1339  17.1722  17.1946  17.2927
    17.4021  17.4063  17.4282  17.4363  17.4461  17.4580  17.5187  17.5379
    17.5725  17.6034  17.6608  17.6771  17.6896  17.7710  17.9330  17.9754
    17.9853  17.9940  18.0125  18.0186  18.1430  18.1481  18.1616  18.1743
    18.1760  18.2220  18.3263  18.3478  18.3478  18.3591  18.4146  18.4267
    18.4295  18.5032  18.5308  18.5643  18.5697  18.6305  18.6557  18.7253
    18.7388  18.7389  18.7501  18.7506  18.7626  18.7632  18.7914  18.8130
    18.9054  18.9568  18.9628  18.9640  18.9689  18.9709  18.9738  18.9829
    19.0326  19.1034  19.1506  19.1517  19.1626  19.1857  19.4606  19.5412
    19.7630  19.9026  20.0369  20.1354  20.1835  20.2726  21.0180  21.5362
    22.1975  22.1994  22.4028  22.4998  22.8016  22.9791  23.2839  23.7608
    23.7915  23.9904  24.3932  24.9699  24.9823  25.3613  25.6488  26.2005
    26.3911  26.5053  26.6301  26.7647  26.9837  27.0226  27.2769  27.4482
    27.7384  27.7742  27.9768  28.1853  28.7440  29.0713  29.6239  29.7197
    29.7970  29.8401  29.9254  30.0046  30.1021  30.2054  30.7254  30.7397
    30.9030  30.9748

          k = 0.0555 0.2773-0.4992 ( 33180 PWs)   bands (ev):

   -64.9733 -64.9725 -64.9604 -64.9596 -64.9502 -64.9495 -64.9458 -64.9451
   -64.9442 -64.9434 -64.9411 -64.9403 -64.9377 -64.9370 -64.9336 -64.9328
   -64.9328 -64.9320 -64.9311 -64.9303 -64.9288 -64.9281 -64.9280 -64.9276
   -64.9273 -64.9268 -64.9249 -64.9248 -64.9242 -64.9241 -64.9227 -64.9219
   -30.8313 -30.8310 -30.8294 -30.8291 -30.8089 -30.8082 -30.8075 -30.8073
   -30.8069 -30.8067 -30.7965 -30.7964 -30.7960 -30.7958 -30.7931 -30.7931
   -30.7924 -30.7922 -30.7832 -30.7827 -30.7645 -30.7639 -30.7634 -30.7628
   -30.7480 -30.7475 -30.7345 -30.7345 -30.7296 -30.7292 -30.6885 -30.6883
   -30.6869 -30.6867 -30.6804 -30.6801 -30.6747 -30.6740 -30.6633 -30.6631
   -30.6623 -30.6616 -30.6283 -30.6277 -30.6270 -30.6263 -30.6251 -30.6244
   -30.6226 -30.6224 -30.6214 -30.6212 -30.6161 -30.6159 -30.6143 -30.6135
   -30.6033 -30.6028 -30.6007 -30.6006 -30.5945 -30.5940 -30.5939 -30.5936
   -30.5859 -30.5851 -30.5833 -30.5828 -30.5797 -30.5795 -30.5781 -30.5778
   -30.5725 -30.5718 -30.5693 -30.5686 -30.5685 -30.5679 -30.5672 -30.5668
   -30.5619 -30.5611 -30.5591 -30.5587 -30.5547 -30.5540 -30.5468 -30.5465
   -30.5460 -30.5452 -30.5259 -30.5251 -30.5226 -30.5225 -30.5113 -30.5110
    13.0940  13.0949  14.0950  14.0958  14.3336  14.3337  14.4050  14.4057
    14.4262  14.4263  14.4285  14.4290  14.4921  14.4929  14.5290  14.5294
    14.6160  14.6168  14.6424  14.6424  14.6575  14.6576  14.6735  14.6738
    14.7192  14.7199  14.8205  14.8209  14.8639  14.8639  14.9262  14.9268
    15.1003  15.1011  15.1148  15.1153  15.1933  15.1935  15.2570  15.2572
    15.2657  15.2665  15.4466  15.4472  15.4806  15.4806  15.4942  15.4949
    15.7597  15.7598  15.7631  15.7635  15.8690  15.8692  15.8840  15.8846
    15.9054  15.9061  16.0172  16.0178  16.2250  16.2256  16.3113  16.3118
    16.3216  16.3217  16.3481  16.3486  16.3916  16.3919  16.4073  16.4074
    16.4538  16.4540  16.6010  16.6011  16.6476  16.6482  16.6597  16.6599
    16.6788  16.6789  16.7113  16.7119  16.7160  16.7166  16.7302  16.7305
    16.8857  16.8861  16.9087  16.9090  17.0632  17.0632  17.0672  17.0677
    17.0771  17.0776  17.1435  17.1436  17.1566  17.1567  17.1715  17.1717
    17.2273  17.2278  17.4829  17.4836  17.4869  17.4873  17.5388  17.5393
    17.5676  17.5681  17.5927  17.5934  17.5982  17.5985  17.8824  17.8831
    17.8884  17.8890  18.0724  18.0731  18.1018  18.1024  18.1141  18.1149
    18.2743  18.2750  18.4003  18.4010  18.4045  18.4052  18.5251  18.5258
    18.5479  18.5486  18.5922  18.5922  18.6398  18.6399  18.6400  18.6402
    18.7600  18.7606  18.7873  18.7874  18.8129  18.8133  18.8596  18.8599
    18.8617  18.8620  18.8767  18.8770  18.8821  18.8822  18.8977  18.8978
    19.0939  19.0940  19.1559  19.1566  19.1626  19.1631  19.4934  19.4935
    19.6494  19.6502  20.2119  20.2127  20.5244  20.5247  20.8100  20.8106
    22.3978  22.3985  22.7720  22.7726  22.9513  22.9518  23.3888  23.3894
    24.0996  24.0998  24.5744  24.5746  24.9961  24.9968  25.7272  25.7274
    26.4620  26.4621  26.8200  26.8202  26.8953  26.8959  27.2049  27.2056
    27.3655  27.3662  28.5412  28.5413  28.8673  28.8675  29.4435  29.4436
    29.7392  29.7401  29.8810  29.8819  30.3088  30.3097  30.4977  30.4977
    31.1490  31.1498

          k = 0.0555 0.3882 0.3882 ( 33210 PWs)   bands (ev):

   -64.9738 -64.9668 -64.9667 -64.9607 -64.9504 -64.9469 -64.9468 -64.9459
   -64.9442 -64.9431 -64.9430 -64.9410 -64.9342 -64.9341 -64.9326 -64.9325
   -64.9322 -64.9322 -64.9305 -64.9304 -64.9298 -64.9297 -64.9273 -64.9272
   -64.9269 -64.9268 -64.9263 -64.9262 -64.9248 -64.9233 -64.9230 -64.9222
   -30.8353 -30.8353 -30.8129 -30.8128 -30.8122 -30.8121 -30.8099 -30.8091
   -30.8073 -30.8073 -30.7980 -30.7969 -30.7969 -30.7941 -30.7941 -30.7858
   -30.7857 -30.7792 -30.7791 -30.7783 -30.7782 -30.7771 -30.7770 -30.7651
   -30.7627 -30.7627 -30.7482 -30.7342 -30.7294 -30.7135 -30.7135 -30.6882
   -30.6802 -30.6802 -30.6686 -30.6685 -30.6615 -30.6542 -30.6542 -30.6491
   -30.6490 -30.6484 -30.6484 -30.6437 -30.6437 -30.6254 -30.6253 -30.6212
   -30.6212 -30.6206 -30.6206 -30.6192 -30.6176 -30.6175 -30.6154 -30.6154
   -30.6123 -30.6123 -30.6003 -30.6002 -30.5978 -30.5977 -30.5968 -30.5927
   -30.5927 -30.5828 -30.5828 -30.5803 -30.5803 -30.5801 -30.5801 -30.5773
   -30.5718 -30.5714 -30.5714 -30.5702 -30.5702 -30.5677 -30.5649 -30.5608
   -30.5605 -30.5578 -30.5564 -30.5563 -30.5560 -30.5539 -30.5519 -30.5454
   -30.5454 -30.5417 -30.5416 -30.5238 -30.5181 -30.5161 -30.5161 -30.5063
    13.0281  13.5744  13.5745  14.0453  14.2703  14.3637  14.3764  14.4266
    14.4266  14.4551  14.4552  14.4558  14.5720  14.5720  14.5979  14.6173
    14.6173  14.6331  14.6331  14.6350  14.6350  14.6582  14.6583  14.7782
    14.7783  14.7930  14.8096  14.8457  14.8457  14.9482  14.9483  14.9512
    14.9513  14.9772  14.9772  15.0209  15.0209  15.1543  15.1543  15.1683
    15.1683  15.1956  15.1956  15.4317  15.4317  15.4811  15.6691  15.6692
    15.6739  15.6740  15.7686  15.8341  15.8762  15.8762  15.8806  15.8807
    15.8951  16.0858  16.1941  16.1941  16.2468  16.3666  16.3778  16.3779
    16.4149  16.4149  16.4204  16.4205  16.4212  16.4213  16.4589  16.4589
    16.4859  16.4993  16.6415  16.6517  16.6674  16.6675  16.6743  16.7010
    16.7207  16.7324  16.7324  16.7515  16.7525  16.7525  16.8667  16.8669
    16.8768  16.8768  16.8791  16.8792  16.8959  16.8959  16.9941  16.9942
    17.0002  17.0172  17.0897  17.0897  17.0946  17.1548  17.1966  17.1967
    17.2029  17.2122  17.2122  17.2292  17.2293  17.2538  17.2539  17.4129
    17.5199  17.5199  17.5389  17.5389  17.6459  17.7105  17.7105  17.7418
    17.8960  18.0389  18.1348  18.1348  18.1793  18.1794  18.2662  18.2663
    18.3395  18.3395  18.3901  18.3901  18.4471  18.4471  18.4471  18.5519
    18.5519  18.6456  18.6693  18.6738  18.6739  18.6773  18.6774  18.6790
    18.6827  18.6828  18.7459  18.8151  18.8459  18.8459  18.8507  18.8507
    18.8609  18.9489  18.9489  18.9749  18.9749  18.9781  18.9781  18.9815
    19.0052  19.0053  19.0064  19.0065  19.1026  19.1843  19.3011  19.3754
    19.3755  19.8626  19.8627  19.9546  20.6406  20.6406  21.6762  21.6762
    22.0682  22.0682  22.8381  22.8382  23.1951  23.1951  23.2583  23.2584
    23.6763  23.6763  24.8453  24.8453  24.8748  25.6403  26.0568  26.0569
    26.2101  26.2101  26.4618  26.4618  26.6168  26.6168  27.0237  27.0238
    27.1391  27.1553  27.1555  28.4432  28.8202  29.3983  29.7344  29.7399
    29.7400  29.8757  30.2819  30.2820  30.4571  30.4571  30.8698  30.8698
    31.3027  31.3028

          k = 0.0555 0.3882-0.4992 ( 33220 PWs)   bands (ev):

   -64.9710 -64.9702 -64.9644 -64.9636 -64.9491 -64.9484 -64.9461 -64.9453
   -64.9450 -64.9442 -64.9425 -64.9418 -64.9337 -64.9329 -64.9317 -64.9313
   -64.9309 -64.9307 -64.9306 -64.9299 -64.9295 -64.9289 -64.9287 -64.9286
   -64.9282 -64.9279 -64.9271 -64.9264 -64.9243 -64.9235 -64.9231 -64.9223
   -30.8258 -30.8255 -30.8252 -30.8249 -30.8062 -30.8062 -30.8061 -30.8059
   -30.8016 -30.8009 -30.7992 -30.7984 -30.7945 -30.7939 -30.7938 -30.7934
   -30.7881 -30.7875 -30.7810 -30.7806 -30.7793 -30.7787 -30.7762 -30.7754
   -30.7630 -30.7626 -30.7464 -30.7460 -30.7249 -30.7249 -30.7008 -30.7007
   -30.6669 -30.6668 -30.6638 -30.6636 -30.6600 -30.6592 -30.6554 -30.6547
   -30.6407 -30.6406 -30.6366 -30.6358 -30.6357 -30.6349 -30.6338 -30.6337
   -30.6310 -30.6309 -30.6197 -30.6191 -30.6150 -30.6149 -30.6119 -30.6112
   -30.6061 -30.6056 -30.6041 -30.6040 -30.5981 -30.5980 -30.5966 -30.5960
   -30.5898 -30.5896 -30.5893 -30.5891 -30.5767 -30.5766 -30.5763 -30.5760
   -30.5759 -30.5755 -30.5723 -30.5720 -30.5634 -30.5626 -30.5622 -30.5618
   -30.5607 -30.5604 -30.5594 -30.5587 -30.5507 -30.5503 -30.5500 -30.5499
   -30.5491 -30.5483 -30.5324 -30.5316 -30.5158 -30.5157 -30.5099 -30.5098
    13.2784  13.2793  13.7914  13.7923  14.3473  14.3475  14.4482  14.4485
    14.4525  14.4526  14.4896  14.4899  14.5407  14.5414  14.5771  14.5773
    14.5915  14.5923  14.7076  14.7077  14.7287  14.7296  14.7718  14.7719
    14.7758  14.7759  14.7875  14.7882  14.8289  14.8295  14.9005  14.9013
    14.9661  14.9663  14.9895  14.9901  15.0599  15.0607  15.0667  15.0668
    15.0777  15.0779  15.3142  15.3143  15.5351  15.5357  15.5409  15.5417
    15.7630  15.7636  15.7700  15.7707  15.8697  15.8701  15.9986  15.9989
    16.0081  16.0084  16.1498  16.1499  16.2359  16.2365  16.3738  16.3743
    16.4192  16.4192  16.4382  16.4383  16.5439  16.5440  16.5785  16.5787
    16.6611  16.6617  16.7155  16.7157  16.7217  16.7222  16.7232  16.7233
    16.7284  16.7286  16.7458  16.7461  16.8130  16.8132  16.8356  16.8356
    16.8591  16.8592  16.9219  16.9223  16.9225  16.9228  16.9329  16.9333
    16.9411  16.9416  16.9730  16.9732  17.0565  17.0569  17.0580  17.0584
    17.0866  17.0868  17.2780  17.2783  17.3840  17.3844  17.3981  17.3986
    17.4334  17.4336  17.4597  17.4602  17.4707  17.4714  17.5738  17.5745
    18.0227  18.0234  18.1335  18.1341  18.2865  18.2871  18.2983  18.2990
    18.3120  18.3127  18.4283  18.4286  18.5264  18.5270  18.5626  18.5634
    18.5732  18.5734  18.5985  18.5992  18.7053  18.7054  18.7725  18.7731
    18.7777  18.7784  18.8390  18.8392  18.8645  18.8648  18.8823  18.8825
    18.9116  18.9119  18.9145  18.9148  18.9290  18.9293  18.9334  18.9335
    18.9886  18.9894  19.0144  19.0145  19.0431  19.0434  19.2882  19.2889
    19.4858  19.4860  19.8579  19.8585  21.1563  21.1566  21.3295  21.3301
    22.4095  22.4100  22.6272  22.6277  23.1278  23.1285  23.3623  23.3628
    24.0630  24.0631  24.3576  24.3577  25.4392  25.4398  26.2549  26.2550
    26.3184  26.3185  26.3828  26.3831  26.4817  26.4818  26.6169  26.6174
    26.6723  26.6728  27.7838  27.7839  29.5203  29.5204  29.7178  29.7187
    29.7903  29.7912  30.1077  30.1078  30.8571  30.8579  30.9627  30.9628
    30.9860  30.9861

          k = 0.0555-0.4992-0.4992 ( 33160 PWs)   bands (ev):

   -64.9681 -64.9679 -64.9673 -64.9671 -64.9479 -64.9476 -64.9471 -64.9468
   -64.9440 -64.9437 -64.9432 -64.9430 -64.9305 -64.9304 -64.9301 -64.9301
   -64.9300 -64.9300 -64.9298 -64.9298 -64.9297 -64.9296 -64.9293 -64.9293
   -64.9293 -64.9292 -64.9290 -64.9290 -64.9238 -64.9235 -64.9230 -64.9227
   -30.8173 -30.8173 -30.8172 -30.8172 -30.8171 -30.8170 -30.8170 -30.8170
   -30.7918 -30.7918 -30.7916 -30.7916 -30.7912 -30.7912 -30.7910 -30.7910
   -30.7886 -30.7883 -30.7878 -30.7875 -30.7788 -30.7786 -30.7783 -30.7782
   -30.7641 -30.7640 -30.7637 -30.7636 -30.7132 -30.7132 -30.7132 -30.7131
   -30.6480 -30.6480 -30.6480 -30.6480 -30.6480 -30.6479 -30.6479 -30.6479
   -30.6470 -30.6469 -30.6467 -30.6467 -30.6462 -30.6462 -30.6459 -30.6459
   -30.6187 -30.6187 -30.6187 -30.6186 -30.6092 -30.6091 -30.6091 -30.6090
   -30.6089 -30.6088 -30.6086 -30.6084 -30.6084 -30.6082 -30.6082 -30.6080
   -30.5838 -30.5838 -30.5836 -30.5836 -30.5832 -30.5832 -30.5830 -30.5830
   -30.5690 -30.5689 -30.5687 -30.5685 -30.5643 -30.5643 -30.5643 -30.5643
   -30.5559 -30.5559 -30.5559 -30.5559 -30.5541 -30.5539 -30.5536 -30.5535
   -30.5407 -30.5405 -30.5400 -30.5397 -30.5115 -30.5115 -30.5115 -30.5114
    13.5139  13.5145  13.5149  13.5154  14.3860  14.3862  14.3862  14.3864
    14.5029  14.5030  14.5030  14.5031  14.5823  14.5825  14.5825  14.5826
    14.7091  14.7091  14.7095  14.7096  14.7098  14.7099  14.7103  14.7103
    14.8778  14.8778  14.8782  14.8783  14.8784  14.8786  14.8790  14.8790
    14.9164  14.9165  14.9165  14.9165  14.9166  14.9166  14.9166  14.9167
    15.1356  15.1357  15.1358  15.1359  15.6432  15.6432  15.6436  15.6436
    15.6438  15.6439  15.6443  15.6443  15.9502  15.9504  15.9505  15.9506
    16.1925  16.1929  16.1932  16.1935  16.3825  16.3828  16.3831  16.3834
    16.4995  16.4997  16.4998  16.5000  16.5118  16.5119  16.5120  16.5122
    16.7330  16.7333  16.7334  16.7337  16.7624  16.7624  16.7625  16.7625
    16.7625  16.7625  16.7627  16.7627  16.8132  16.8133  16.8133  16.8136
    16.8206  16.8207  16.8209  16.8210  16.9272  16.9273  16.9276  16.9276
    17.0470  17.0471  17.0472  17.0473  17.0474  17.0475  17.0476  17.0477
    17.2096  17.2099  17.2099  17.2102  17.2225  17.2225  17.2227  17.2227
    17.2229  17.2229  17.2230  17.2230  17.5193  17.5195  17.5200  17.5202
    18.1674  18.1676  18.1681  18.1683  18.2561  18.2562  18.2565  18.2567
    18.4519  18.4520  18.4520  18.4521  18.4524  18.4526  18.4526  18.4527
    18.7693  18.7694  18.7697  18.7698  18.7960  18.7961  18.7961  18.7963
    18.7966  18.7968  18.7968  18.7969  18.9081  18.9082  18.9085  18.9086
    18.9404  18.9404  18.9405  18.9405  18.9406  18.9407  18.9407  18.9407
    18.9407  18.9409  18.9409  18.9410  19.0119  19.0120  19.0123  19.0124
    19.5931  19.5933  19.5935  19.5937  21.8668  21.8669  21.8670  21.8671
    21.8673  21.8674  21.8675  21.8676  23.8299  23.8300  23.8300  23.8301
    23.8302  23.8304  23.8304  23.8304  25.9640  25.9644  25.9647  25.9651
    26.2883  26.2883  26.2883  26.2885  26.2885  26.2886  26.2886  26.2886
    27.0605  27.0607  27.0608  27.0609  29.7378  29.7381  29.7387  29.7390
    30.2270  30.2272  30.2272  30.2273  30.8185  30.8186  30.8186  30.8187
    31.4077  31.4079

          k = 0.1664 0.1664 0.1664 ( 33155 PWs)   bands (ev):

   -64.9816 -64.9602 -64.9601 -64.9601 -64.9465 -64.9465 -64.9464 -64.9445
   -64.9444 -64.9444 -64.9406 -64.9372 -64.9368 -64.9367 -64.9365 -64.9365
   -64.9364 -64.9362 -64.9362 -64.9357 -64.9308 -64.9307 -64.9307 -64.9237
   -64.9232 -64.9231 -64.9229 -64.9229 -64.9228 -64.9227 -64.9226 -64.9221
   -30.8563 -30.8562 -30.8562 -30.8423 -30.8349 -30.8349 -30.8349 -30.7836
   -30.7835 -30.7835 -30.7761 -30.7761 -30.7761 -30.7761 -30.7761 -30.7760
   -30.7711 -30.7711 -30.7711 -30.7710 -30.7710 -30.7710 -30.7437 -30.7437
   -30.7437 -30.7294 -30.7294 -30.7294 -30.7153 -30.7153 -30.7153 -30.7152
   -30.7152 -30.7152 -30.6841 -30.6841 -30.6841 -30.6484 -30.6484 -30.6483
   -30.6450 -30.6450 -30.6450 -30.6438 -30.6438 -30.6438 -30.6437 -30.6437
   -30.6437 -30.6313 -30.6313 -30.6313 -30.6281 -30.6281 -30.6281 -30.6281
   -30.6281 -30.6280 -30.6027 -30.6027 -30.6027 -30.5879 -30.5879 -30.5879
   -30.5842 -30.5842 -30.5841 -30.5707 -30.5707 -30.5706 -30.5673 -30.5672
   -30.5672 -30.5614 -30.5614 -30.5613 -30.5613 -30.5613 -30.5613 -30.5579
   -30.5579 -30.5578 -30.5496 -30.5496 -30.5496 -30.5486 -30.5486 -30.5473
   -30.5472 -30.5472 -30.5361 -30.5361 -30.5360 -30.5237 -30.5023 -30.5023
    12.4185  14.0234  14.0235  14.0235  14.0646  14.0834  14.0835  14.0835
    14.1863  14.1863  14.1864  14.3489  14.3489  14.3489  14.5802  14.5803
    14.5803  14.8209  14.8210  14.8210  14.9445  14.9445  14.9446  14.9446
    14.9446  14.9448  15.0157  15.0158  15.0158  15.1551  15.1552  15.1552
    15.1585  15.1585  15.1585  15.1585  15.1586  15.1586  15.4003  15.4003
    15.4003  15.4004  15.4004  15.4004  15.5367  15.5368  15.5368  15.8266
    15.8267  15.8267  15.9179  15.9179  15.9179  15.9180  15.9180  15.9181
    15.9787  15.9788  15.9788  16.0670  16.0670  16.0671  16.0671  16.0671
    16.0672  16.2173  16.2173  16.2173  16.3034  16.3825  16.3825  16.3825
    16.3826  16.3826  16.3826  16.3950  16.3951  16.3951  16.3953  16.3953
    16.4572  16.4574  16.4574  16.4657  16.4657  16.4903  16.4903  16.4903
    16.8787  16.8787  16.8787  17.0472  17.0472  17.0473  17.1781  17.1781
    17.1782  17.2288  17.2289  17.2289  17.3512  17.3512  17.3514  17.3985
    17.3985  17.3985  17.3986  17.3986  17.3986  17.6837  17.6839  17.6839
    17.7287  17.7287  17.7289  17.8052  17.8052  17.8053  17.8802  17.8802
    17.9315  17.9317  17.9317  17.9317  17.9317  17.9317  18.1489  18.1489
    18.1489  18.2396  18.2396  18.2396  18.2397  18.2397  18.2397  18.3544
    18.3544  18.3546  18.3893  18.3893  18.3893  18.7173  18.7173  18.7173
    18.7336  18.7337  18.7337  18.8084  18.8084  18.8084  18.8562  18.8563
    18.8563  18.8991  18.8991  19.0725  19.0725  19.0725  19.1497  19.2178
    19.2179  19.2179  19.2179  19.2179  19.2179  19.2780  19.2780  19.2780
    19.9114  19.9114  19.9114  21.0621  21.0621  21.0621  21.3932  21.3932
    21.3932  21.3933  21.3933  21.3933  22.6464  22.6464  22.6464  23.0251
    23.0252  23.0252  26.1228  26.1229  26.1229  26.1229  26.1229  26.1230
    26.3461  26.3461  26.3461  27.5287  27.9022  27.9022  27.9022  27.9023
    27.9023  27.9024  28.5637  28.5637  28.5637  30.0198  30.0198  30.0198
    30.1820  30.1820  30.1820  30.1820  30.1821  30.1821  30.3761  30.3761
    30.3761  30.3761

          k = 0.1664 0.1664 0.2773 ( 33164 PWs)   bands (ev):

   -64.9798 -64.9651 -64.9590 -64.9589 -64.9497 -64.9496 -64.9460 -64.9438
   -64.9437 -64.9420 -64.9395 -64.9384 -64.9383 -64.9372 -64.9366 -64.9363
   -64.9357 -64.9351 -64.9334 -64.9333 -64.9311 -64.9290 -64.9289 -64.9248
   -64.9240 -64.9240 -64.9237 -64.9235 -64.9234 -64.9231 -64.9227 -64.9221
   -30.8524 -30.8485 -30.8485 -30.8301 -30.8293 -30.8293 -30.8263 -30.8013
   -30.7909 -30.7909 -30.7852 -30.7852 -30.7822 -30.7821 -30.7815 -30.7814
   -30.7765 -30.7764 -30.7714 -30.7713 -30.7698 -30.7697 -30.7597 -30.7543
   -30.7360 -30.7360 -30.7284 -30.7284 -30.7177 -30.7176 -30.7061 -30.7061
   -30.7008 -30.7008 -30.6961 -30.6961 -30.6627 -30.6612 -30.6612 -30.6574
   -30.6574 -30.6527 -30.6527 -30.6402 -30.6307 -30.6306 -30.6296 -30.6295
   -30.6290 -30.6289 -30.6280 -30.6278 -30.6273 -30.6217 -30.6209 -30.6209
   -30.6191 -30.6191 -30.6009 -30.5951 -30.5918 -30.5917 -30.5905 -30.5901
   -30.5900 -30.5811 -30.5808 -30.5807 -30.5780 -30.5779 -30.5734 -30.5734
   -30.5730 -30.5730 -30.5695 -30.5626 -30.5625 -30.5614 -30.5612 -30.5608
   -30.5596 -30.5595 -30.5533 -30.5532 -30.5504 -30.5457 -30.5424 -30.5424
   -30.5386 -30.5372 -30.5367 -30.5349 -30.5324 -30.5324 -30.5063 -30.5037
    12.5590  13.6832  14.1004  14.1091  14.1092  14.1491  14.1641  14.1641
    14.2616  14.2616  14.2984  14.4027  14.4379  14.4379  14.5482  14.6199
    14.6491  14.6492  14.6784  14.6785  14.7827  14.7827  14.8575  14.9158
    14.9158  14.9769  14.9770  14.9903  15.0203  15.0204  15.0745  15.0746
    15.1018  15.1019  15.1158  15.1159  15.1578  15.1578  15.2303  15.2303
    15.4114  15.4115  15.4311  15.4312  15.5869  15.5870  15.7114  15.7485
    15.7486  15.7712  15.7713  15.8129  15.8379  15.8379  15.9263  15.9264
    15.9602  15.9602  16.0466  16.0467  16.0515  16.0516  16.1260  16.1759
    16.1759  16.2385  16.2485  16.3080  16.3080  16.3916  16.3917  16.3921
    16.3921  16.3997  16.3997  16.4144  16.4296  16.4965  16.4966  16.5118
    16.5205  16.5654  16.5654  16.5790  16.5850  16.6728  16.7644  16.7645
    16.7666  16.7666  16.8736  16.8746  16.9792  16.9793  17.0001  17.0507
    17.0508  17.1401  17.1401  17.1902  17.2094  17.2094  17.4585  17.4586
    17.4901  17.4903  17.5323  17.5351  17.5621  17.5621  17.6819  17.6820
    17.7288  17.7289  17.8057  17.8058  17.8082  17.8554  17.8554  17.8558
    17.8826  17.8827  17.9195  17.9248  17.9248  17.9506  18.0276  18.0918
    18.0918  18.2428  18.2858  18.2859  18.4210  18.4210  18.4439  18.4439
    18.4456  18.4537  18.4537  18.4635  18.4635  18.5184  18.5184  18.5445
    18.6568  18.6594  18.6594  18.7587  18.7604  18.7676  18.7677  18.8366
    19.0395  19.0567  19.0567  19.1123  19.1123  19.1145  19.1145  19.1258
    19.1259  19.2208  19.2208  19.2219  19.2268  19.2623  19.2623  19.2636
    19.5227  19.5228  19.8417  20.9102  20.9103  21.1318  21.1318  21.3700
    21.3700  21.6970  22.0300  22.0301  22.0361  22.9876  23.0819  23.0819
    23.6662  23.6663  25.2675  25.2675  25.4925  25.4925  26.1802  26.2885
    26.2886  26.6697  26.6697  27.0270  27.0270  27.6977  28.0640  28.0640
    28.0885  28.1126  28.1128  28.4368  28.4368  29.2896  29.2896  29.6781
    29.6782  29.9662  29.9663  30.3216  30.3216  30.5525  30.5526  30.7746
    30.7746  30.8004

          k = 0.1664 0.1664 0.3882 ( 33192 PWs)   bands (ev):

   -64.9772 -64.9697 -64.9574 -64.9573 -64.9526 -64.9525 -64.9453 -64.9432
   -64.9429 -64.9428 -64.9400 -64.9399 -64.9372 -64.9366 -64.9363 -64.9357
   -64.9349 -64.9339 -64.9318 -64.9305 -64.9304 -64.9274 -64.9273 -64.9272
   -64.9257 -64.9256 -64.9245 -64.9244 -64.9237 -64.9231 -64.9227 -64.9221
   -30.8447 -30.8374 -30.8373 -30.8214 -30.8213 -30.8183 -30.8147 -30.8135
   -30.8075 -30.8075 -30.7988 -30.7988 -30.7840 -30.7840 -30.7810 -30.7810
   -30.7793 -30.7792 -30.7784 -30.7771 -30.7728 -30.7728 -30.7620 -30.7619
   -30.7443 -30.7443 -30.7176 -30.7175 -30.7118 -30.7118 -30.7062 -30.7062
   -30.6953 -30.6953 -30.6867 -30.6867 -30.6771 -30.6771 -30.6706 -30.6706
   -30.6623 -30.6623 -30.6402 -30.6331 -30.6289 -30.6286 -30.6280 -30.6277
   -30.6216 -30.6185 -30.6185 -30.6131 -30.6127 -30.6127 -30.6109 -30.6108
   -30.6083 -30.6083 -30.6052 -30.5986 -30.5986 -30.5985 -30.5966 -30.5869
   -30.5869 -30.5862 -30.5862 -30.5833 -30.5833 -30.5785 -30.5785 -30.5774
   -30.5755 -30.5754 -30.5680 -30.5656 -30.5655 -30.5636 -30.5616 -30.5612
   -30.5605 -30.5601 -30.5598 -30.5598 -30.5563 -30.5534 -30.5430 -30.5387
   -30.5370 -30.5370 -30.5315 -30.5314 -30.5285 -30.5240 -30.5121 -30.5081
    12.7649  13.3418  14.1752  14.2287  14.2288  14.2408  14.2810  14.2810
    14.3735  14.3735  14.4380  14.4417  14.4592  14.4824  14.5257  14.5258
    14.5686  14.5686  14.6015  14.6015  14.7023  14.7023  14.7130  14.7426
    14.7427  14.7990  14.9355  14.9355  14.9661  14.9662  15.0130  15.0131
    15.0800  15.0801  15.1230  15.1231  15.2326  15.2326  15.2620  15.2621
    15.4290  15.4291  15.4890  15.4891  15.5793  15.5794  15.6131  15.6131
    15.6594  15.6595  15.6783  15.6783  15.8438  15.8438  15.8582  15.8768
    16.0100  16.0100  16.0290  16.0753  16.0753  16.1237  16.1238  16.1530
    16.2196  16.2196  16.2310  16.2311  16.3558  16.3999  16.4000  16.4025
    16.4026  16.4145  16.4965  16.5226  16.5226  16.5950  16.6023  16.6558
    16.6559  16.6688  16.6689  16.7074  16.7089  16.7089  16.7091  16.7092
    16.7217  16.8101  16.8434  16.9100  16.9637  17.0181  17.0588  17.0588
    17.0749  17.0749  17.1156  17.1157  17.1805  17.1805  17.5179  17.5179
    17.5239  17.5586  17.5690  17.5692  17.5838  17.5839  17.6793  17.6794
    17.7085  17.7085  17.7105  17.7119  17.7121  17.8065  17.8066  17.8305
    17.8307  17.8596  17.8845  17.8924  17.8924  17.9771  18.0488  18.0488
    18.1410  18.1739  18.2443  18.2826  18.2826  18.3692  18.3692  18.4403
    18.5730  18.5730  18.5862  18.5942  18.5943  18.6209  18.6363  18.6363
    18.6395  18.6395  18.6606  18.6607  18.6668  18.6669  18.7050  18.9496
    18.9631  18.9752  18.9752  18.9759  18.9759  18.9775  18.9775  19.1455
    19.1710  19.1710  19.2259  19.2260  19.2464  19.2464  19.4251  19.5495
    19.5496  19.7369  19.8855  20.4437  20.4438  21.2090  21.2090  21.3178
    21.3322  21.3322  22.2447  22.7462  22.7463  22.8806  23.6240  23.6240
    24.3699  24.3699  24.3851  24.3852  24.8542  24.8542  25.9279  25.9279
    26.1983  26.8104  26.8105  26.9718  27.1428  27.1428  27.5893  27.5894
    28.4109  28.4111  28.4722  28.4722  28.7197  28.9536  28.9536  29.2079
    29.2080  29.8044  29.8044  30.1799  30.2956  30.2956  30.5081  30.5081
    30.6937  30.6937

          k = 0.1664 0.1664-0.4992 ( 33160 PWs)   bands (ev):

   -64.9741 -64.9733 -64.9556 -64.9555 -64.9548 -64.9547 -64.9447 -64.9439
   -64.9419 -64.9419 -64.9412 -64.9411 -64.9372 -64.9366 -64.9363 -64.9357
   -64.9332 -64.9324 -64.9312 -64.9304 -64.9283 -64.9282 -64.9275 -64.9274
   -64.9262 -64.9261 -64.9254 -64.9253 -64.9237 -64.9231 -64.9227 -64.9222
   -30.8333 -30.8331 -30.8239 -30.8236 -30.8231 -30.8228 -30.8115 -30.8114
   -30.8107 -30.8106 -30.7974 -30.7973 -30.7969 -30.7967 -30.7840 -30.7839
   -30.7837 -30.7837 -30.7759 -30.7759 -30.7757 -30.7756 -30.7535 -30.7535
   -30.7530 -30.7530 -30.7138 -30.7138 -30.7135 -30.7135 -30.6946 -30.6946
   -30.6943 -30.6943 -30.6836 -30.6836 -30.6830 -30.6830 -30.6739 -30.6739
   -30.6734 -30.6734 -30.6286 -30.6282 -30.6279 -30.6275 -30.6244 -30.6237
   -30.6184 -30.6182 -30.6145 -30.6137 -30.6081 -30.6081 -30.6073 -30.6073
   -30.5993 -30.5992 -30.5988 -30.5987 -30.5973 -30.5973 -30.5973 -30.5971
   -30.5970 -30.5970 -30.5966 -30.5964 -30.5737 -30.5735 -30.5703 -30.5703
   -30.5699 -30.5698 -30.5687 -30.5687 -30.5679 -30.5679 -30.5663 -30.5657
   -30.5655 -30.5653 -30.5616 -30.5611 -30.5608 -30.5603 -30.5410 -30.5402
   -30.5332 -30.5332 -30.5330 -30.5330 -30.5199 -30.5191 -30.5149 -30.5146
    13.0291  13.0301  14.2882  14.2884  14.3486  14.3494  14.3714  14.3715
    14.3721  14.3722  14.4288  14.4293  14.4295  14.4299  14.5205  14.5205
    14.5213  14.5213  14.5862  14.5871  14.6111  14.6113  14.7364  14.7365
    14.7370  14.7371  14.8513  14.8514  14.8516  14.8517  15.0470  15.0471
    15.0471  15.0471  15.2233  15.2233  15.2240  15.2240  15.4057  15.4057
    15.4058  15.4059  15.4698  15.4699  15.4704  15.4705  15.5755  15.5756
    15.5757  15.5758  15.7485  15.7486  15.7490  15.7491  15.9355  15.9360
    16.0260  16.0267  16.0660  16.0662  16.0666  16.0669  16.1362  16.1363
    16.1366  16.1367  16.3967  16.3973  16.4036  16.4036  16.4041  16.4042
    16.4544  16.4544  16.4544  16.4545  16.5730  16.5731  16.5732  16.5732
    16.5945  16.5946  16.7021  16.7026  16.7099  16.7107  16.7812  16.7814
    16.7815  16.7818  16.8538  16.8541  17.0954  17.0954  17.0959  17.0960
    17.1830  17.1830  17.1833  17.1833  17.2602  17.2605  17.3662  17.3664
    17.6037  17.6044  17.6127  17.6127  17.6130  17.6130  17.6298  17.6299
    17.6304  17.6306  17.7041  17.7042  17.7047  17.7048  17.7793  17.7795
    17.7800  17.7801  17.8211  17.8212  17.8216  17.8217  18.0513  18.0520
    18.1695  18.1702  18.3886  18.3887  18.4455  18.4456  18.4710  18.4710
    18.4717  18.4717  18.4724  18.4727  18.4731  18.4735  18.8139  18.8139
    18.8144  18.8145  18.8224  18.8225  18.8228  18.8229  18.8405  18.8405
    18.8409  18.8409  18.8486  18.8489  18.8565  18.8565  18.8566  18.8567
    19.0536  19.0536  19.2335  19.2340  19.2343  19.2349  19.5971  19.5978
    19.9900  19.9901  19.9902  19.9903  20.5817  20.5824  21.2779  21.2779
    21.2786  21.2786  22.6457  22.6463  23.5357  23.5358  23.5361  23.5362
    24.2242  24.2243  24.2248  24.2249  25.1347  25.1347  25.1349  25.1349
    26.4567  26.4568  27.1553  27.1553  27.1560  27.1560  27.7495  27.7496
    27.7502  27.7504  28.7807  28.7809  28.7815  28.7817  29.4185  29.4186
    29.4371  29.4371  29.4376  29.4376  30.3287  30.3289  30.3296  30.3297
    30.8646  30.8650

          k = 0.1664 0.2773 0.2773 ( 33207 PWs)   bands (ev):

   -64.9780 -64.9638 -64.9638 -64.9579 -64.9532 -64.9490 -64.9489 -64.9437
   -64.9432 -64.9390 -64.9389 -64.9383 -64.9381 -64.9368 -64.9349 -64.9349
   -64.9346 -64.9345 -64.9335 -64.9333 -64.9296 -64.9295 -64.9275 -64.9250
   -64.9249 -64.9246 -64.9245 -64.9242 -64.9241 -64.9235 -64.9233 -64.9226
   -30.8464 -30.8464 -30.8400 -30.8240 -30.8219 -30.8219 -30.8167 -30.8001
   -30.8000 -30.7953 -30.7953 -30.7872 -30.7872 -30.7834 -30.7833 -30.7829
   -30.7828 -30.7810 -30.7810 -30.7802 -30.7784 -30.7784 -30.7584 -30.7584
   -30.7443 -30.7442 -30.7437 -30.7107 -30.7075 -30.7074 -30.7062 -30.7030
   -30.7030 -30.6928 -30.6927 -30.6748 -30.6733 -30.6733 -30.6618 -30.6473
   -30.6473 -30.6443 -30.6443 -30.6430 -30.6429 -30.6359 -30.6359 -30.6256
   -30.6256 -30.6256 -30.6217 -30.6216 -30.6190 -30.6190 -30.6183 -30.6183
   -30.6136 -30.6136 -30.6052 -30.6051 -30.5925 -30.5924 -30.5896 -30.5880
   -30.5880 -30.5833 -30.5814 -30.5792 -30.5791 -30.5777 -30.5764 -30.5764
   -30.5754 -30.5754 -30.5746 -30.5726 -30.5725 -30.5642 -30.5641 -30.5630
   -30.5629 -30.5625 -30.5506 -30.5489 -30.5475 -30.5447 -30.5443 -30.5420
   -30.5419 -30.5339 -30.5338 -30.5307 -30.5307 -30.5269 -30.5093 -30.5046
    12.6952  13.7807  13.7808  14.1158  14.1633  14.2285  14.2289  14.2289
    14.3169  14.3777  14.3778  14.4852  14.4915  14.4915  14.5200  14.5200
    14.5365  14.6169  14.6170  14.6651  14.7974  14.7975  14.8501  14.8502
    14.8628  14.8628  14.9486  14.9487  15.0014  15.0015  15.0051  15.0051
    15.0160  15.0345  15.0345  15.1063  15.1063  15.1941  15.1941  15.2292
    15.2405  15.2405  15.4271  15.4271  15.6647  15.6647  15.6719  15.7284
    15.7413  15.7414  15.7481  15.7482  15.7937  15.7938  15.9200  15.9819
    15.9819  16.0679  16.0679  16.0999  16.0999  16.1546  16.2163  16.2163
    16.2165  16.2453  16.2453  16.3421  16.3421  16.3600  16.3600  16.4311
    16.4726  16.4832  16.5379  16.5379  16.5425  16.5620  16.5940  16.6258
    16.6258  16.6349  16.6526  16.6527  16.6713  16.6713  16.6996  16.7452
    16.7452  16.7949  16.7950  16.8389  16.8831  16.8831  16.9773  16.9774
    16.9934  17.0548  17.2366  17.2367  17.2753  17.2753  17.2999  17.3000
    17.3646  17.3647  17.5517  17.5697  17.5874  17.5881  17.6076  17.6076
    17.6327  17.6328  17.6697  17.6697  17.7949  17.8397  17.8397  17.9133
    17.9134  17.9135  17.9452  17.9453  17.9864  18.0237  18.0238  18.0854
[...]
    23.3733  23.3735  23.3735  23.3736  24.5256  24.5260  24.5263  24.5267
    26.9473  26.9475  26.9475  26.9477  26.9478  26.9479  26.9480  26.9481
    27.4217  27.4220  27.4221  27.4221  29.1083  29.1084  29.1085  29.1086
    29.6614  29.6614  29.6616  29.6617  29.6620  29.6620  29.6622  29.6623
    31.3236  31.3239

          k = 0.3882 0.3882 0.3882 ( 33200 PWs)   bands (ev):

   -64.9693 -64.9630 -64.9629 -64.9629 -64.9576 -64.9575 -64.9574 -64.9530
   -64.9336 -64.9335 -64.9334 -64.9331 -64.9326 -64.9326 -64.9324 -64.9324
   -64.9322 -64.9321 -64.9321 -64.9316 -64.9281 -64.9280 -64.9279 -64.9277
   -64.9272 -64.9272 -64.9270 -64.9269 -64.9268 -64.9267 -64.9267 -64.9262
   -30.8200 -30.8200 -30.8200 -30.8073 -30.8073 -30.8072 -30.8042 -30.8041
   -30.8041 -30.8014 -30.8014 -30.8013 -30.8013 -30.8013 -30.8012 -30.8005
   -30.8005 -30.8005 -30.8004 -30.8004 -30.8004 -30.7899 -30.7898 -30.7898
   -30.7474 -30.7063 -30.7063 -30.7063 -30.6712 -30.6712 -30.6712 -30.6712
   -30.6711 -30.6711 -30.6680 -30.6679 -30.6679 -30.6645 -30.6645 -30.6645
   -30.6597 -30.6597 -30.6597 -30.6324 -30.6324 -30.6324 -30.6323 -30.6323
   -30.6323 -30.6260 -30.6260 -30.6260 -30.6215 -30.6215 -30.6215 -30.6211
   -30.6092 -30.6092 -30.6091 -30.6023 -30.6022 -30.6022 -30.6022 -30.6022
   -30.6022 -30.5952 -30.5952 -30.5952 -30.5899 -30.5899 -30.5898 -30.5878
   -30.5877 -30.5877 -30.5877 -30.5877 -30.5876 -30.5800 -30.5800 -30.5800
   -30.5410 -30.5409 -30.5409 -30.5347 -30.5347 -30.5302 -30.5302 -30.5301
   -30.5250 -30.5250 -30.5250 -30.5230 -30.5230 -30.5229 -30.5163 -30.5163
    13.3512  13.7781  13.7782  13.7782  14.0349  14.0350  14.0350  14.0774
    14.5155  14.5155  14.5155  14.6416  14.6417  14.6417  14.6597  14.6597
    14.6597  14.7245  14.7245  14.7245  14.7246  14.7246  14.7247  14.7517
    14.7517  14.7517  14.7518  14.7518  14.7518  14.7858  14.7859  14.7859
    14.9731  14.9731  14.9731  15.2510  15.2511  15.2511  15.3168  15.3168
    15.3168  15.3169  15.3169  15.3170  15.5830  15.5831  15.5831  15.5962
    15.5962  15.5962  15.5963  15.5963  15.5964  15.8075  15.8075  15.8075
    16.1210  16.1211  16.1211  16.1589  16.3503  16.3504  16.3504  16.5857
    16.5857  16.6061  16.6061  16.6061  16.6062  16.6062  16.6062  16.6654
    16.6654  16.6745  16.6746  16.6746  16.6977  16.6978  16.6978  16.6984
    16.6984  16.6984  16.7399  16.7399  16.7399  16.7676  16.7677  16.7677
    16.8373  16.8373  16.8373  16.8397  16.8397  16.8397  16.8398  16.8398
    16.8398  16.9419  16.9420  16.9420  16.9913  17.1150  17.1150  17.1150
    17.3706  17.3706  17.3706  17.4652  17.4652  17.4654  17.4662  17.4663
    17.4663  17.4664  17.4664  17.4664  17.6699  17.6699  17.6701  17.8087
    17.8087  17.8087  17.8088  17.8088  17.8088  17.8654  17.8656  17.8656
    17.8919  17.8919  17.9308  17.9308  17.9309  18.0469  18.0469  18.0469
    18.1859  18.1859  18.1860  18.3410  18.3410  18.4703  18.4704  18.4704
    19.0112  19.0112  19.0112  19.0505  19.0505  19.0505  19.0505  19.0505
    19.0505  19.0858  19.0859  19.0859  19.0859  19.0859  19.0859  19.1160
    19.1160  19.1160  19.1233  19.1233  19.1233  19.1812  19.1812  19.1812
    21.2137  21.2138  21.2138  21.9682  21.9683  21.9683  21.9683  21.9683
    21.9684  22.3609  22.3609  22.3609  22.8520  22.8520  22.8520  23.7144
    23.7144  23.7144  23.7145  23.7145  23.7146  24.1794  24.1795  24.1795
    26.5773  26.5774  26.5774  27.2990  27.2990  27.2990  27.8205  27.8205
    27.8205  27.8207  27.8207  27.8207  28.6682  28.6682  28.6682  28.6684
    28.6684  28.6684  29.1533  29.1533  29.1533  30.0624  30.0624  30.0625
    31.3079  32.1732

          k = 0.3882 0.3882-0.4992 ( 33158 PWs)   bands (ev):

   -64.9667 -64.9660 -64.9609 -64.9608 -64.9601 -64.9600 -64.9559 -64.9551
   -64.9334 -64.9334 -64.9330 -64.9327 -64.9325 -64.9325 -64.9322 -64.9316
   -64.9304 -64.9303 -64.9298 -64.9298 -64.9297 -64.9295 -64.9290 -64.9290
   -64.9279 -64.9278 -64.9276 -64.9272 -64.9271 -64.9270 -64.9268 -64.9262
   -30.8157 -30.8157 -30.8116 -30.8112 -30.8109 -30.8105 -30.8042 -30.8041
   -30.8037 -30.8036 -30.8029 -30.8025 -30.8025 -30.8024 -30.8023 -30.8022
   -30.8021 -30.8017 -30.7986 -30.7981 -30.7959 -30.7958 -30.7953 -30.7953
   -30.7271 -30.7267 -30.6854 -30.6854 -30.6851 -30.6851 -30.6704 -30.6704
   -30.6702 -30.6702 -30.6660 -30.6658 -30.6657 -30.6655 -30.6519 -30.6519
   -30.6516 -30.6516 -30.6442 -30.6442 -30.6439 -30.6434 -30.6423 -30.6422
   -30.6288 -30.6287 -30.6283 -30.6283 -30.6263 -30.6262 -30.6261 -30.6260
   -30.6056 -30.6055 -30.6051 -30.6050 -30.6032 -30.6024 -30.5960 -30.5960
   -30.5958 -30.5958 -30.5957 -30.5957 -30.5953 -30.5952 -30.5917 -30.5916
   -30.5915 -30.5914 -30.5857 -30.5849 -30.5843 -30.5842 -30.5840 -30.5840
   -30.5363 -30.5360 -30.5342 -30.5342 -30.5337 -30.5337 -30.5297 -30.5289
   -30.5235 -30.5234 -30.5234 -30.5234 -30.5229 -30.5222 -30.5180 -30.5179
    13.5496  13.5504  13.8986  13.8987  13.8993  13.8994  14.0478  14.0483
    14.5825  14.5833  14.6045  14.6045  14.6046  14.6046  14.6858  14.6859
    14.6859  14.6860  14.6970  14.6972  14.6975  14.6977  14.7353  14.7358
    14.7448  14.7449  14.7450  14.7451  14.7491  14.7492  14.7498  14.7498
    15.0970  15.0978  15.1454  15.1454  15.1456  15.1456  15.4322  15.4323
    15.4325  15.4326  15.4383  15.4385  15.4391  15.4392  15.4592  15.4593
    15.4595  15.4596  15.6792  15.6798  15.7190  15.7192  15.7197  15.7198
    16.1564  16.1566  16.2476  16.2477  16.2478  16.2479  16.5877  16.5878
    16.6279  16.6280  16.6790  16.6791  16.6791  16.6792  16.6857  16.6859
    16.6926  16.6931  16.7094  16.7095  16.7096  16.7097  16.7111  16.7111
    16.7115  16.7115  16.7140  16.7145  16.7186  16.7186  16.7191  16.7191
    16.7651  16.7652  16.7652  16.7652  16.7934  16.7936  16.8077  16.8078
    16.8080  16.8081  17.1115  17.1115  17.1117  17.1117  17.1621  17.1627
    17.2673  17.2673  17.2676  17.2677  17.2856  17.2858  17.5504  17.5505
    17.5509  17.5511  17.6184  17.6185  17.6188  17.6189  17.6410  17.6410
    17.6413  17.6413  17.8455  17.8461  17.8598  17.8600  17.9160  17.9161
    17.9165  17.9167  17.9169  17.9172  17.9176  17.9180  18.0311  18.0316
    18.1374  18.1375  18.2776  18.2777  18.2779  18.2780  18.3850  18.3857
    19.0632  19.0633  19.0634  19.0634  19.0808  19.0811  19.0852  19.0852
    19.0855  19.0855  19.1103  19.1103  19.1107  19.1107  19.1125  19.1127
    19.1128  19.1130  19.1440  19.1443  19.1445  19.1448  19.1681  19.1683
    21.5694  21.5694  21.5699  21.5699  22.0176  22.0181  22.1527  22.1529
    22.1534  22.1536  22.8204  22.8205  22.8208  22.8209  23.2627  23.2629
    23.2697  23.2699  23.2704  23.2706  23.9718  23.9719  23.9725  23.9725
    26.8953  26.8959  27.1181  27.1181  27.1182  27.1182  27.9337  27.9339
    27.9344  27.9345  28.2123  28.2125  28.2131  28.2133  28.4563  28.4564
    28.4567  28.4569  29.3367  29.3367  29.3368  29.3368  29.5754  29.5762
    32.0078  32.0081

          k = 0.3882-0.4992-0.4992 ( 33188 PWs)   bands (ev):

   -64.9642 -64.9639 -64.9634 -64.9631 -64.9587 -64.9584 -64.9579 -64.9576
   -64.9332 -64.9330 -64.9325 -64.9322 -64.9305 -64.9304 -64.9301 -64.9301
   -64.9300 -64.9300 -64.9298 -64.9298 -64.9297 -64.9296 -64.9293 -64.9293
   -64.9293 -64.9292 -64.9290 -64.9290 -64.9276 -64.9274 -64.9269 -64.9266
   -30.8096 -30.8096 -30.8095 -30.8093 -30.8093 -30.8092 -30.8091 -30.8091
   -30.8039 -30.8037 -30.8035 -30.8034 -30.8033 -30.8032 -30.8029 -30.8027
   -30.8007 -30.8006 -30.8006 -30.8004 -30.8003 -30.8001 -30.8001 -30.8000
   -30.7062 -30.7061 -30.7059 -30.7058 -30.6689 -30.6688 -30.6687 -30.6686
   -30.6635 -30.6634 -30.6633 -30.6632 -30.6482 -30.6482 -30.6481 -30.6481
   -30.6480 -30.6480 -30.6479 -30.6479 -30.6479 -30.6479 -30.6478 -30.6477
   -30.6475 -30.6475 -30.6474 -30.6474 -30.6269 -30.6268 -30.6266 -30.6265
   -30.6002 -30.6002 -30.6001 -30.6001 -30.5995 -30.5995 -30.5993 -30.5991
   -30.5990 -30.5989 -30.5988 -30.5987 -30.5909 -30.5908 -30.5907 -30.5905
   -30.5904 -30.5902 -30.5901 -30.5900 -30.5881 -30.5880 -30.5880 -30.5880
   -30.5320 -30.5320 -30.5320 -30.5320 -30.5277 -30.5275 -30.5272 -30.5272
   -30.5270 -30.5270 -30.5267 -30.5265 -30.5200 -30.5200 -30.5200 -30.5200
    13.7130  13.7135  13.7138  13.7143  13.9663  13.9667  13.9669  13.9673
    14.6523  14.6523  14.6524  14.6524  14.6528  14.6529  14.6530  14.6530
    14.6610  14.6610  14.6611  14.6611  14.6824  14.6824  14.6825  14.6826
    14.7338  14.7339  14.7340  14.7341  14.7343  14.7344  14.7345  14.7346
    15.2720  15.2722  15.2722  15.2723  15.2727  15.2728  15.2729  15.2730
    15.3085  15.3086  15.3087  15.3088  15.5723  15.5724  15.5727  15.5728
    15.5729  15.5731  15.5733  15.5734  15.5935  15.5938  15.5940  15.5942
    16.2177  16.2179  16.2179  16.2179  16.4627  16.4628  16.4629  16.4630
    16.6518  16.6518  16.6520  16.6520  16.6629  16.6630  16.6632  16.6633
    16.6857  16.6859  16.6860  16.6862  16.6887  16.6887  16.6889  16.6890
    16.7294  16.7295  16.7295  16.7296  16.7516  16.7517  16.7517  16.7518
    16.7519  16.7520  16.7520  16.7522  16.9396  16.9397  16.9399  16.9400
    16.9400  16.9401  16.9402  16.9404  16.9710  16.9712  16.9712  16.9714
    17.3804  17.3806  17.3809  17.3810  17.4405  17.4406  17.4407  17.4407
    17.4409  17.4409  17.4410  17.4410  17.7353  17.7354  17.7354  17.7356
    17.7357  17.7359  17.7359  17.7360  17.7464  17.7466  17.7469  17.7471
    17.8850  17.8851  17.8856  17.8857  18.0808  18.0809  18.0812  18.0813
    18.1112  18.1113  18.1116  18.1118  18.2485  18.2486  18.2490  18.2491
    19.1054  19.1055  19.1055  19.1056  19.1057  19.1057  19.1057  19.1058
    19.1177  19.1178  19.1179  19.1181  19.1406  19.1407  19.1409  19.1410
    19.1441  19.1442  19.1442  19.1443  19.1444  19.1445  19.1445  19.1446
    21.8395  21.8398  21.8401  21.8404  22.4024  22.4025  22.4026  22.4028
    22.4029  22.4030  22.4031  22.4032  23.0442  23.0442  23.0442  23.0445
    23.0445  23.0448  23.0448  23.0449  23.6162  23.6166  23.6169  23.6172
    27.4932  27.4933  27.4934  27.4935  27.4937  27.4938  27.4939  27.4940
    27.7405  27.7407  27.7408  27.7409  28.5982  28.5984  28.5985  28.5985
    28.8639  28.8640  28.8641  28.8642  28.8645  28.8646  28.8647  28.8648
    32.3927  32.3934

          k =-0.4992-0.4992-0.4992 ( 33168 PWs)   bands (ev):

   -64.9618 -64.9615 -64.9615 -64.9613 -64.9611 -64.9607 -64.9607 -64.9605
   -64.9307 -64.9305 -64.9304 -64.9304 -64.9302 -64.9302 -64.9301 -64.9300
   -64.9299 -64.9299 -64.9298 -64.9298 -64.9297 -64.9296 -64.9294 -64.9294
   -64.9293 -64.9293 -64.9292 -64.9291 -64.9291 -64.9289 -64.9288 -64.9287
   -30.8055 -30.8055 -30.8055 -30.8054 -30.8052 -30.8051 -30.8051 -30.8050
   -30.8050 -30.8050 -30.8050 -30.8049 -30.8048 -30.8048 -30.8047 -30.8047
   -30.8047 -30.8046 -30.8045 -30.8045 -30.8043 -30.8042 -30.8042 -30.8042
   -30.6847 -30.6846 -30.6846 -30.6845 -30.6844 -30.6843 -30.6843 -30.6842
   -30.6483 -30.6483 -30.6482 -30.6482 -30.6482 -30.6481 -30.6481 -30.6481
   -30.6481 -30.6480 -30.6480 -30.6480 -30.6480 -30.6479 -30.6479 -30.6479
   -30.6479 -30.6478 -30.6478 -30.6478 -30.6478 -30.6477 -30.6477 -30.6476
   -30.5951 -30.5951 -30.5950 -30.5950 -30.5949 -30.5949 -30.5949 -30.5949
   -30.5948 -30.5948 -30.5947 -30.5946 -30.5946 -30.5945 -30.5944 -30.5944
   -30.5944 -30.5944 -30.5943 -30.5943 -30.5942 -30.5942 -30.5942 -30.5942
   -30.5259 -30.5259 -30.5258 -30.5258 -30.5258 -30.5256 -30.5256 -30.5255
   -30.5254 -30.5253 -30.5253 -30.5252 -30.5251 -30.5250 -30.5250 -30.5250
    13.8316  13.8321  13.8321  13.8323  13.8324  13.8328  13.8328  13.8331
    14.6818  14.6818  14.6819  14.6819  14.6819  14.6819  14.6819  14.6820
    14.6820  14.6820  14.6822  14.6822  14.6822  14.6824  14.6824  14.6824
    14.6825  14.6825  14.6825  14.6826  14.6826  14.6826  14.6826  14.6826
    15.4334  15.4335  15.4337  15.4338  15.4338  15.4339  15.4339  15.4339
    15.4339  15.4340  15.4341  15.4341  15.4342  15.4342  15.4342  15.4343
    15.4344  15.4345  15.4346  15.4346  15.4346  15.4347  15.4347  15.4348
    16.3578  16.3580  16.3580  16.3580  16.3580  16.3581  16.3581  16.3581
    16.6639  16.6640  16.6640  16.6641  16.6641  16.6641  16.6642  16.6642
    16.6643  16.6644  16.6644  16.6644  16.6645  16.6645  16.6645  16.6646
    16.8482  16.8483  16.8483  16.8484  16.8484  16.8484  16.8485  16.8485
    16.8485  16.8485  16.8486  16.8486  16.8486  16.8487  16.8487  16.8487
    16.8488  16.8488  16.8488  16.8488  16.8489  16.8489  16.8489  16.8491
    17.5614  17.5614  17.5615  17.5615  17.5616  17.5617  17.5617  17.5617
    17.5618  17.5618  17.5619  17.5619  17.5619  17.5619  17.5620  17.5620
    17.5621  17.5622  17.5622  17.5622  17.5622  17.5622  17.5623  17.5625
    18.0630  18.0632  18.0632  18.0633  18.0633  18.0634  18.0634  18.0635
    18.0636  18.0636  18.0637  18.0637  18.0638  18.0639  18.0640  18.0640
    19.1463  19.1463  19.1463  19.1464  19.1464  19.1465  19.1465  19.1465
    19.1466  19.1466  19.1466  19.1466  19.1467  19.1467  19.1467  19.1468
    19.1468  19.1468  19.1468  19.1469  19.1470  19.1470  19.1470  19.1471
    22.7104  22.7104  22.7105  22.7105  22.7107  22.7107  22.7108  22.7109
    22.7109  22.7109  22.7109  22.7109  22.7111  22.7111  22.7111  22.7111
    22.7112  22.7113  22.7113  22.7114  22.7115  22.7116  22.7116  22.7116
    28.1371  28.1371  28.1371  28.1372  28.1373  28.1373  28.1373  28.1373
    28.1374  28.1375  28.1375  28.1376  28.1378  28.1378  28.1379  28.1379
    28.1379  28.1379  28.1381  28.1381  28.1381  28.1382  28.1382  28.1382
    33.3587  33.3587

     the Fermi energy is    19.1688 ev

!    total energy              =  -16384.95948377 Ry
     Harris-Foulkes estimate   =  -16384.95947081 Ry
     estimated scf accuracy    <       0.00000095 Ry

     total all-electron energy =   -322945.813191 Ry

     The total energy is the sum of the following terms:

     one-electron contribution =   -2501.10680910 Ry
     hartree contribution      =    1665.98047090 Ry
     xc contribution           =    -986.40793262 Ry
     ewald contribution        =   -6396.03916544 Ry
     one-center paw contrib.   =   -8167.42056327 Ry
     smearing contrib. (-TS)   =       0.03451575 Ry

     convergence has been achieved in  10 iterations

     Forces acting on atoms (cartesian axes, Ry/au):

     atom    1 type  1   force =     0.00000000    0.00000000   -0.00000000
     atom    2 type  1   force =     0.00005973    0.00005973    0.00000000
     atom    3 type  1   force =     0.00005973   -0.00000000    0.00005973
     atom    4 type  1   force =    -0.00000000    0.00005973    0.00005973
     atom    5 type  1   force =     0.00000000    0.00000000   -0.00000000
     atom    6 type  1   force =     0.00012217    0.00012217   -0.00000000
     atom    7 type  1   force =     0.00005973    0.00000000   -0.00005973
     atom    8 type  1   force =    -0.00000000    0.00005973   -0.00005973
     atom    9 type  1   force =     0.00000000    0.00000000   -0.00000000
     atom   10 type  1   force =     0.00005973   -0.00005973   -0.00000000
     atom   11 type  1   force =     0.00012217   -0.00000000    0.00012217
     atom   12 type  1   force =    -0.00000000   -0.00005973    0.00005973
     atom   13 type  1   force =     0.00000000    0.00000000    0.00000000
     atom   14 type  1   force =     0.00012217   -0.00012217    0.00000000
     atom   15 type  1   force =     0.00012217    0.00000000   -0.00012217
     atom   16 type  1   force =    -0.00000000   -0.00005973   -0.00005973
     atom   17 type  1   force =     0.00000000    0.00000000    0.00000000
     atom   18 type  1   force =    -0.00005973    0.00005973   -0.00000000
     atom   19 type  1   force =    -0.00005973    0.00000000    0.00005973
     atom   20 type  1   force =     0.00000000    0.00012217    0.00012217
     atom   21 type  1   force =     0.00000000    0.00000000    0.00000000
     atom   22 type  1   force =    -0.00012217    0.00012217   -0.00000000
     atom   23 type  1   force =    -0.00005973   -0.00000000   -0.00005973
     atom   24 type  1   force =    -0.00000000    0.00012217   -0.00012217
     atom   25 type  1   force =     0.00000000    0.00000000    0.00000000
     atom   26 type  1   force =    -0.00005973   -0.00005973    0.00000000
     atom   27 type  1   force =    -0.00012217   -0.00000000    0.00012217
     atom   28 type  1   force =     0.00000000   -0.00012217    0.00012217
     atom   29 type  1   force =     0.00000000    0.00000000    0.00000000
     atom   30 type  1   force =    -0.00012217   -0.00012217    0.00000000
     atom   31 type  1   force =    -0.00012217    0.00000000   -0.00012217
     atom   32 type  1   force =     0.00000000   -0.00012217   -0.00012217

     Total force =     0.000666     Total SCF correction =     0.005832
     SCF correction compared to forces is large: reduce conv_thr to get better values


     Computing stress (Cartesian axis) and pressure

          total   stress  (Ry/bohr**3)                   (kbar)     P=   -8.26
  -0.00005615   0.00000000   0.00000000         -8.26      0.00      0.00
   0.00000000  -0.00005615   0.00000000          0.00     -8.26      0.00
   0.00000000   0.00000000  -0.00005615          0.00      0.00     -8.26


     Writing output data file tkNrmztWHwhSOwRg.save/
 
     init_run     :     19.07s CPU     20.67s WALL (       1 calls)
     electrons    :    863.16s CPU    908.52s WALL (       1 calls)
     forces       :      8.61s CPU      8.92s WALL (       1 calls)
     stress       :     83.61s CPU     83.93s WALL (       1 calls)

     Called by init_run:
     wfcinit      :     18.40s CPU     19.96s WALL (       1 calls)
     potinit      :      0.33s CPU      0.34s WALL (       1 calls)
     hinit0       :      0.14s CPU      0.15s WALL (       1 calls)

     Called by electrons:
     c_bands      :    785.44s CPU    822.37s WALL (      11 calls)
     sum_band     :     74.08s CPU     82.15s WALL (      11 calls)
     v_of_rho     :      0.31s CPU      0.34s WALL (      11 calls)
     newd         :      0.76s CPU      0.99s WALL (      11 calls)
     PAW_pot      :      2.77s CPU      2.82s WALL (      11 calls)
     mix_rho      :      0.07s CPU      0.08s WALL (      11 calls)

     Called by c_bands:
     init_us_2    :      4.40s CPU      4.42s WALL (     875 calls)
     cegterg      :    760.66s CPU    797.43s WALL (     385 calls)

     Called by sum_band:
     sum_band:bec :      0.56s CPU      0.57s WALL (     385 calls)
     addusdens    :      0.83s CPU      1.10s WALL (      11 calls)

     Called by *egterg:
     h_psi        :    304.22s CPU    337.65s WALL (    1176 calls)
     s_psi        :     37.33s CPU     37.43s WALL (    1176 calls)
     g_psi        :      1.03s CPU      1.04s WALL (     756 calls)
     cdiaghg      :    300.48s CPU    301.29s WALL (    1106 calls)

     Called by h_psi:
     h_psi:pot    :    301.50s CPU    334.79s WALL (    1176 calls)
     h_psi:calbec :     38.77s CPU     40.62s WALL (    1176 calls)
     vloc_psi     :    225.39s CPU    256.69s WALL (    1176 calls)
     add_vuspsi   :     37.32s CPU     37.48s WALL (    1176 calls)

     General routines
     calbec       :     66.45s CPU     69.47s WALL (    1736 calls)
     fft          :      0.31s CPU      0.34s WALL (     168 calls)
     ffts         :      0.03s CPU      0.03s WALL (      22 calls)
     fftw         :    260.70s CPU    296.85s WALL (  746028 calls)
     interpolate  :      0.03s CPU      0.04s WALL (      11 calls)
 
     Parallel routines
     fft_scatt_xy :     21.47s CPU     24.01s WALL (  746218 calls)
     fft_scatt_yz :    170.90s CPU    196.51s WALL (  746218 calls)
 
     PWSCF        : 16m18.03s CPU    17m44.29s WALL

 
   This run was terminated on:   9:19:59  11Nov2020            

=------------------------------------------------------------------------------=
   JOB DONE.
=------------------------------------------------------------------------------=
