--------------------------------------------------------------------------
WARNING: No preset parameters were found for the device that Open MPI
detected:

  Local host:            bear-pg0206u14b
  Device name:           mlx5_0
  Device vendor ID:      0x02c9
  Device vendor part ID: 4123

Default device parameters will be used, which may result in lower
performance.  You can edit any of the files specified by the
btl_openib_device_param_files MCA parameter to set values for your
device.

NOTE: You can turn off this warning by setting the MCA parameter
      btl_openib_warn_no_device_params_found to 0.
--------------------------------------------------------------------------
--------------------------------------------------------------------------
WARNING: There was an error initializing an OpenFabrics device.

  Local host:   bear-pg0206u14b
  Local device: mlx5_0
--------------------------------------------------------------------------

     Program PWSCF v.6.3 starts on 11Nov2020 at  8:25:57 

     This program is part of the open-source Quantum ESPRESSO suite
     for quantum simulation of materials; please cite
         "P. Giannozzi et al., J. Phys.:Condens. Matter 21 395502 (2009);
         "P. Giannozzi et al., J. Phys.:Condens. Matter 29 465901 (2017);
          URL http://www.quantum-espresso.org", 
     in publications or presentations arising from this work. More details at
     http://www.quantum-espresso.org/quote

     Parallel version (MPI & OpenMP), running on      20 processor cores
     Number of MPI processes:                20
     Threads/MPI process:                     1

     MPI processes distributed on     1 nodes
     R & G space division:  proc/nbgrp/npool/nimage =      20
     Reading input from wd/eos/eos_003.in
Warning: card &IONS ignored
Warning: card ION_DYNAMICS = 'BFGS', ignored
Warning: card / ignored
Warning: card &CELL ignored
Warning: card CELL_DYNAMICS = 'BFGS', ignored
Warning: card CELL_FACTOR = 2.0, ignored
Warning: card PRESS = 0.0, ignored
Warning: card / ignored

     Current dimensions of program PWSCF are:
     Max number of different atomic species (ntypx) = 10
     Max number of k-points (npk) =  40000
     Max angular momentum in pseudopotentials (lmaxx) =  3
               file Pd.pbe-spn-kjpaw_psl.1.0.0.UPF: wavefunction(s)  4S 5S 4D renormalized

     Subspace diagonalization in iterative solution of the eigenvalue problem:
     a serial algorithm will be used

 
     Parallelization info
     --------------------
     sticks:   dense  smooth     PW     G-vecs:    dense   smooth      PW
     Min         375     247     67                24483    13133    1867
     Max         376     248     68                24488    13136    1872
     Sum        7513    4957   1353               489705   262707   37385
 


     bravais-lattice index     =            0
     lattice parameter (alat)  =      14.8394  a.u.
     unit-cell volume          =    3251.4530 (a.u.)^3
     number of atoms/cell      =           32
     number of atomic types    =            1
     number of electrons       =       576.00
     number of Kohn-Sham states=          346
     kinetic-energy cutoff     =      71.0000  Ry
     charge density cutoff     =     430.0000  Ry
     convergence threshold     =      1.0E-06
     mixing beta               =       0.1000
     number of iterations used =           10  plain     mixing
     Exchange-correlation      = SLA PW PBX PBC ( 1  4  3  4 0 0)

     celldm(1)=  14.839420  celldm(2)=   0.000000  celldm(3)=   0.000000
     celldm(4)=   0.000000  celldm(5)=   0.000000  celldm(6)=   0.000000

     crystal axes: (cart. coord. in units of alat)
               a(1) = (   0.998333   0.000000   0.000000 )  
               a(2) = (   0.000000   0.998333   0.000000 )  
               a(3) = (   0.000000   0.000000   0.998333 )  

     reciprocal axes: (cart. coord. in units 2 pi/alat)
               b(1) = (  1.001669  0.000000  0.000000 )  
               b(2) = (  0.000000  1.001669  0.000000 )  
               b(3) = (  0.000000  0.000000  1.001669 )  


     PseudoPot. # 1 for Pd read from file:
     /rds/homes/b/bxp912/pp/Pd.pbe-spn-kjpaw_psl.1.0.0.UPF
     MD5 check sum: 790f2ebce206edfd9790dcb9844eca51
     Pseudo is Projector augmented-wave + core cor, Zval = 18.0
     Generated using "atomic" code by A. Dal Corso v.6.3
     Shape of augmentation charge: PSQ
     Using radial grid of 1235 points,  6 beta functions with: 
                l(1) =   0
                l(2) =   0
                l(3) =   1
                l(4) =   1
                l(5) =   2
                l(6) =   2
     Q(r) pseudized with 0 coefficients 


     atomic species   valence    mass     pseudopotential
        Pd            18.00   106.42000     Pd( 1.00)

     48 Sym. Ops., with inversion, found



   Cartesian axes

     site n.     atom                  positions (alat units)
         1           Pd  tau(   1) = (   0.0000000   0.0000000   0.0000000  )
         2           Pd  tau(   2) = (   0.2495878   0.2495878   0.0000000  )
         3           Pd  tau(   3) = (   0.2495878   0.0000000   0.2495873  )
         4           Pd  tau(   4) = (   0.0000000   0.2495878   0.2495873  )
         5           Pd  tau(   5) = (   0.0000000   0.0000000   0.4991657  )
         6           Pd  tau(   6) = (   0.2495949   0.2495949   0.4991657  )
         7           Pd  tau(   7) = (   0.2495878   0.0000000   0.7487451  )
         8           Pd  tau(   8) = (   0.0000000   0.2495878   0.7487451  )
         9           Pd  tau(   9) = (   0.0000000   0.4991665   0.0000000  )
        10           Pd  tau(  10) = (   0.2495878   0.7487453   0.0000000  )
        11           Pd  tau(  11) = (   0.2495949   0.4991665   0.2495942  )
        12           Pd  tau(  12) = (   0.0000000   0.7487453   0.2495873  )
        13           Pd  tau(  13) = (   0.0000000   0.4991665   0.4991657  )
        14           Pd  tau(  14) = (   0.2495949   0.7487381   0.4991657  )
        15           Pd  tau(  15) = (   0.2495949   0.4991665   0.7487381  )
        16           Pd  tau(  16) = (   0.0000000   0.7487453   0.7487451  )
        17           Pd  tau(  17) = (   0.4991665   0.0000000   0.0000000  )
        18           Pd  tau(  18) = (   0.7487453   0.2495878   0.0000000  )
        19           Pd  tau(  19) = (   0.7487453   0.0000000   0.2495873  )
        20           Pd  tau(  20) = (   0.4991665   0.2495949   0.2495942  )
        21           Pd  tau(  21) = (   0.4991665   0.0000000   0.4991657  )
        22           Pd  tau(  22) = (   0.7487381   0.2495949   0.4991657  )
        23           Pd  tau(  23) = (   0.7487453   0.0000000   0.7487451  )
        24           Pd  tau(  24) = (   0.4991665   0.2495949   0.7487381  )
        25           Pd  tau(  25) = (   0.4991665   0.4991665   0.0000000  )
        26           Pd  tau(  26) = (   0.7487453   0.7487453   0.0000000  )
        27           Pd  tau(  27) = (   0.7487381   0.4991665   0.2495942  )
        28           Pd  tau(  28) = (   0.4991665   0.7487381   0.2495942  )
        29           Pd  tau(  29) = (   0.4991665   0.4991665   0.4991657  )
        30           Pd  tau(  30) = (   0.7487381   0.7487381   0.4991657  )
        31           Pd  tau(  31) = (   0.7487381   0.4991665   0.7487381  )
        32           Pd  tau(  32) = (   0.4991665   0.7487381   0.7487381  )

     number of k points=    35  Marzari-Vanderbilt smearing, width (Ry)=  0.0400
                       cart. coord. in units 2pi/alat
        k(    1) = (   0.0556483   0.0556483   0.0556483), wk =   0.0219479
        k(    2) = (   0.0556483   0.0556483   0.1669449), wk =   0.0658436
        k(    3) = (   0.0556483   0.0556483   0.2782415), wk =   0.0658436
        k(    4) = (   0.0556483   0.0556483   0.3895381), wk =   0.0658436
        k(    5) = (   0.0556483   0.0556483  -0.5008347), wk =   0.0329218
        k(    6) = (   0.0556483   0.1669449   0.1669449), wk =   0.0658436
        k(    7) = (   0.0556483   0.1669449   0.2782415), wk =   0.1316872
        k(    8) = (   0.0556483   0.1669449   0.3895381), wk =   0.1316872
        k(    9) = (   0.0556483   0.1669449  -0.5008347), wk =   0.0658436
        k(   10) = (   0.0556483   0.2782415   0.2782415), wk =   0.0658436
        k(   11) = (   0.0556483   0.2782415   0.3895381), wk =   0.1316872
        k(   12) = (   0.0556483   0.2782415  -0.5008347), wk =   0.0658436
        k(   13) = (   0.0556483   0.3895381   0.3895381), wk =   0.0658436
        k(   14) = (   0.0556483   0.3895381  -0.5008347), wk =   0.0658436
        k(   15) = (   0.0556483  -0.5008347  -0.5008347), wk =   0.0164609
        k(   16) = (   0.1669449   0.1669449   0.1669449), wk =   0.0219479
        k(   17) = (   0.1669449   0.1669449   0.2782415), wk =   0.0658436
        k(   18) = (   0.1669449   0.1669449   0.3895381), wk =   0.0658436
        k(   19) = (   0.1669449   0.1669449  -0.5008347), wk =   0.0329218
        k(   20) = (   0.1669449   0.2782415   0.2782415), wk =   0.0658436
        k(   21) = (   0.1669449   0.2782415   0.3895381), wk =   0.1316872
        k(   22) = (   0.1669449   0.2782415  -0.5008347), wk =   0.0658436
        k(   23) = (   0.1669449   0.3895381   0.3895381), wk =   0.0658436
        k(   24) = (   0.1669449   0.3895381  -0.5008347), wk =   0.0658436
        k(   25) = (   0.1669449  -0.5008347  -0.5008347), wk =   0.0164609
        k(   26) = (   0.2782415   0.2782415   0.2782415), wk =   0.0219479
        k(   27) = (   0.2782415   0.2782415   0.3895381), wk =   0.0658436
        k(   28) = (   0.2782415   0.2782415  -0.5008347), wk =   0.0329218
        k(   29) = (   0.2782415   0.3895381   0.3895381), wk =   0.0658436
        k(   30) = (   0.2782415   0.3895381  -0.5008347), wk =   0.0658436
        k(   31) = (   0.2782415  -0.5008347  -0.5008347), wk =   0.0164609
        k(   32) = (   0.3895381   0.3895381   0.3895381), wk =   0.0219479
        k(   33) = (   0.3895381   0.3895381  -0.5008347), wk =   0.0329218
        k(   34) = (   0.3895381  -0.5008347  -0.5008347), wk =   0.0164609
        k(   35) = (  -0.5008347  -0.5008347  -0.5008347), wk =   0.0027435

     Dense  grid:   489705 G-vectors     FFT dimensions: ( 100, 100, 100)

     Smooth grid:   262707 G-vectors     FFT dimensions: (  80,  80,  80)

     Estimated max dynamical RAM per process >     540.22 MB

     Estimated total dynamical RAM >      10.55 GB

     Check: negative/imaginary core charge=   -0.000002    0.000000

     Initial potential from superposition of free atoms

     starting charge  575.98776, renormalised to  576.00000
     Starting wfcs are  320 randomized atomic wfcs +   26 random wfcs
     Checking if some PAW data can be deallocated... 

     total cpu time spent up to now is       22.0 secs

     Self-consistent Calculation

     iteration #  1     ecut=    71.00 Ry     beta= 0.10
     Davidson diagonalization with overlap
     ethr =  1.00E-02,  avg # of iterations =  3.0

     Threshold (ethr) on eigenvalues was too large:
     Diagonalizing with lowered threshold

     Davidson diagonalization with overlap
     ethr =  8.02E-05,  avg # of iterations =  3.3

     total cpu time spent up to now is      234.9 secs

     total energy              =  -16385.01601478 Ry
     Harris-Foulkes estimate   =  -16385.08082216 Ry
     estimated scf accuracy    <       0.45687961 Ry

     iteration #  2     ecut=    71.00 Ry     beta= 0.10
     Davidson diagonalization with overlap
     ethr =  7.93E-05,  avg # of iterations =  1.0

     total cpu time spent up to now is      299.3 secs

     total energy              =  -16384.92627992 Ry
     Harris-Foulkes estimate   =  -16385.02337321 Ry
     estimated scf accuracy    <       0.24962071 Ry

     iteration #  3     ecut=    71.00 Ry     beta= 0.10
     Davidson diagonalization with overlap
     ethr =  4.33E-05,  avg # of iterations =  2.1

     total cpu time spent up to now is      387.6 secs

     total energy              =  -16384.95970751 Ry
     Harris-Foulkes estimate   =  -16384.96358319 Ry
     estimated scf accuracy    <       0.05516369 Ry

     iteration #  4     ecut=    71.00 Ry     beta= 0.10
     Davidson diagonalization with overlap
     ethr =  9.58E-06,  avg # of iterations =  2.3

     total cpu time spent up to now is      467.5 secs

     total energy              =  -16384.95921108 Ry
     Harris-Foulkes estimate   =  -16384.96161775 Ry
     estimated scf accuracy    <       0.02128206 Ry

     iteration #  5     ecut=    71.00 Ry     beta= 0.10
     Davidson diagonalization with overlap
     ethr =  3.69E-06,  avg # of iterations =  1.3

     total cpu time spent up to now is      535.7 secs

     total energy              =  -16384.95471522 Ry
     Harris-Foulkes estimate   =  -16384.95940766 Ry
     estimated scf accuracy    <       0.01366894 Ry

     iteration #  6     ecut=    71.00 Ry     beta= 0.10
     Davidson diagonalization with overlap
     ethr =  2.37E-06,  avg # of iterations =  2.0

     total cpu time spent up to now is      616.2 secs

     total energy              =  -16384.95572772 Ry
     Harris-Foulkes estimate   =  -16384.95578601 Ry
     estimated scf accuracy    <       0.00012631 Ry

     iteration #  7     ecut=    71.00 Ry     beta= 0.10
     Davidson diagonalization with overlap
     ethr =  2.19E-08,  avg # of iterations =  3.2

     total cpu time spent up to now is      750.7 secs

     total energy              =  -16384.95578647 Ry
     Harris-Foulkes estimate   =  -16384.95578930 Ry
     estimated scf accuracy    <       0.00005695 Ry

     iteration #  8     ecut=    71.00 Ry     beta= 0.10
     Davidson diagonalization with overlap
     ethr =  9.89E-09,  avg # of iterations =  1.0

     total cpu time spent up to now is      814.2 secs

     total energy              =  -16384.95578220 Ry
     Harris-Foulkes estimate   =  -16384.95578889 Ry
     estimated scf accuracy    <       0.00003788 Ry

     iteration #  9     ecut=    71.00 Ry     beta= 0.10
     Davidson diagonalization with overlap
     ethr =  6.58E-09,  avg # of iterations =  2.0

     total cpu time spent up to now is      904.2 secs

     total energy              =  -16384.95579028 Ry
     Harris-Foulkes estimate   =  -16384.95578708 Ry
     estimated scf accuracy    <       0.00000531 Ry

     iteration # 10     ecut=    71.00 Ry     beta= 0.10
     Davidson diagonalization with overlap
     ethr =  9.22E-10,  avg # of iterations =  1.0

     total cpu time spent up to now is      968.7 secs

     End of self-consistent calculation

          k = 0.0556 0.0556 0.0556 ( 32849 PWs)   bands (ev):

   -64.7539 -64.7242 -64.7241 -64.7241 -64.7185 -64.7184 -64.7184 -64.7080
   -64.7079 -64.7078 -64.7055 -64.7052 -64.7050 -64.7049 -64.7048 -64.7047
   -64.7047 -64.7045 -64.7044 -64.7039 -64.7021 -64.7021 -64.7020 -64.6893
   -64.6889 -64.6888 -64.6886 -64.6885 -64.6884 -64.6883 -64.6883 -64.6878
   -30.6418 -30.6418 -30.6418 -30.6402 -30.6210 -30.6210 -30.6210 -30.5418
   -30.5418 -30.5418 -30.5374 -30.5374 -30.5373 -30.5373 -30.5373 -30.5372
   -30.5294 -30.5294 -30.5294 -30.5240 -30.5240 -30.5240 -30.5239 -30.5239
   -30.5239 -30.5050 -30.5050 -30.5050 -30.5049 -30.5049 -30.5049 -30.4632
   -30.4632 -30.4632 -30.4381 -30.4381 -30.4381 -30.4319 -30.4319 -30.4319
   -30.4224 -30.4224 -30.4224 -30.4224 -30.4224 -30.4224 -30.4071 -30.4070
   -30.4070 -30.4065 -30.4062 -30.4062 -30.4062 -30.4061 -30.4061 -30.4055
   -30.4055 -30.4053 -30.4040 -30.4040 -30.4039 -30.3394 -30.3394 -30.3394
   -30.3392 -30.3392 -30.3392 -30.3267 -30.3267 -30.3267 -30.3266 -30.3266
   -30.3265 -30.3231 -30.3231 -30.3230 -30.3189 -30.3185 -30.3185 -30.3179
   -30.3179 -30.3178 -30.3177 -30.3177 -30.3176 -30.3173 -30.3173 -30.3170
   -30.3161 -30.3161 -30.3106 -30.3105 -30.3105 -30.2642 -30.2614 -30.2614
    12.3875  14.1409  14.1409  14.1409  14.2130  14.2268  14.2268  14.2268
    14.4183  14.4183  14.4183  14.4230  14.4231  14.4232  14.6172  14.6173
    14.6174  15.1610  15.1610  15.1611  15.1611  15.1611  15.1613  15.3168
    15.3169  15.3169  15.4712  15.4712  15.4712  15.5048  15.5049  15.5049
    15.5537  15.5538  15.5538  15.5538  15.5538  15.5539  15.5551  15.5552
    15.5552  15.8984  15.8984  15.8984  15.8985  15.8985  15.8985  16.0065
    16.0066  16.0066  16.0286  16.0287  16.0287  16.0287  16.0287  16.0288
    16.0858  16.0859  16.0859  16.2570  16.2570  16.2570  16.2570  16.2571
    16.2571  16.3626  16.3627  16.3627  16.3668  16.3668  16.3668  16.3669
    16.3669  16.3670  16.4753  16.4754  16.4754  16.5413  16.5414  16.5414
    16.5625  16.5625  16.5732  16.5732  16.5732  16.5917  16.6115  16.6115
    17.4144  17.4145  17.4145  17.4754  17.4755  17.4755  17.5487  17.5487
    17.5487  17.5488  17.5488  17.5488  17.5548  17.5548  17.5549  17.6032
    17.6033  17.6034  17.7082  17.7082  17.7083  17.8274  17.8276  17.8276
    17.9540  17.9540  17.9542  18.0121  18.0121  18.0122  18.0853  18.0854
    18.0854  18.0854  18.0855  18.0855  18.1047  18.1048  18.1048  18.1543
    18.1543  18.1613  18.1613  18.1613  18.1613  18.1614  18.1615  18.2715
    18.2715  18.2716  18.6627  18.6627  18.6628  18.7653  18.7654  18.7654
    19.1501  19.1501  19.1501  19.2773  19.2773  19.2773  19.3043  19.3043
    19.3247  19.3247  19.3247  19.5568  19.5568  19.5568  19.6117  19.6118
    19.6118  19.6118  19.6118  19.6118  19.6149  19.6149  19.6150  20.2649
    20.5742  20.5742  20.5742  21.1173  21.1174  21.1174  21.6297  21.6297
    21.6297  21.6297  21.6297  21.6298  22.1610  22.1610  22.1610  22.7285
    22.7285  22.7285  26.5239  26.5239  26.5239  26.6806  27.6608  27.6608
    27.6609  27.6609  27.6609  27.6610  28.3555  28.3555  28.3555  28.3557
    28.3557  28.3557  29.7811  29.7811  29.7811  29.7811  29.7811  29.7811
    29.9556  29.9556  29.9556  30.9024  30.9358  30.9359  30.9360  30.9360
    30.9360  30.9361

          k = 0.0556 0.0556 0.1669 ( 32839 PWs)   bands (ev):

   -64.7530 -64.7298 -64.7237 -64.7236 -64.7180 -64.7179 -64.7128 -64.7110
   -64.7109 -64.7079 -64.7074 -64.7073 -64.7056 -64.7054 -64.7049 -64.7045
   -64.7042 -64.7039 -64.7021 -64.7017 -64.7016 -64.6996 -64.6995 -64.6897
   -64.6894 -64.6891 -64.6890 -64.6889 -64.6889 -64.6887 -64.6883 -64.6878
   -30.6390 -30.6375 -30.6374 -30.6343 -30.6178 -30.6178 -30.6156 -30.5536
   -30.5483 -30.5483 -30.5438 -30.5437 -30.5427 -30.5426 -30.5422 -30.5422
   -30.5400 -30.5305 -30.5305 -30.5276 -30.5275 -30.5227 -30.5227 -30.5190
   -30.5190 -30.5078 -30.5078 -30.5014 -30.5014 -30.4936 -30.4865 -30.4865
   -30.4681 -30.4680 -30.4537 -30.4537 -30.4382 -30.4382 -30.4375 -30.4375
   -30.4259 -30.4115 -30.4114 -30.4094 -30.4094 -30.4068 -30.4068 -30.4060
   -30.4059 -30.4035 -30.4033 -30.4033 -30.4018 -30.4010 -30.4007 -30.4007
   -30.4002 -30.4002 -30.3971 -30.3920 -30.3920 -30.3519 -30.3515 -30.3421
   -30.3421 -30.3363 -30.3362 -30.3306 -30.3305 -30.3294 -30.3294 -30.3273
   -30.3273 -30.3250 -30.3232 -30.3231 -30.3230 -30.3224 -30.3224 -30.3184
   -30.3184 -30.3184 -30.3179 -30.3175 -30.3170 -30.3151 -30.3151 -30.3150
   -30.3144 -30.3141 -30.3107 -30.3060 -30.3059 -30.2708 -30.2637 -30.2629
    12.4613  14.1241  14.1756  14.1876  14.1876  14.2411  14.2686  14.2686
    14.2821  14.4463  14.4609  14.4609  14.4746  14.4747  14.6695  14.6696
    14.6851  15.0746  15.0746  15.1371  15.1961  15.1962  15.2029  15.2031
    15.2371  15.3182  15.3182  15.3432  15.3433  15.3575  15.3662  15.3663
    15.5130  15.5131  15.5270  15.5270  15.5417  15.5418  15.5777  15.5777
    15.6259  15.6260  15.6959  15.8849  15.8849  15.9014  15.9014  15.9476
    15.9477  15.9571  15.9572  16.0164  16.0165  16.1050  16.1051  16.1201
    16.1667  16.1667  16.2149  16.2187  16.2188  16.2258  16.2258  16.2617
    16.2618  16.3068  16.3068  16.3354  16.3355  16.5002  16.5185  16.5186
    16.5187  16.5188  16.5393  16.5393  16.5549  16.5629  16.5855  16.5857
    16.5957  16.6095  16.6095  16.6175  16.6413  16.6438  16.6485  16.6485
    17.2219  17.2220  17.3338  17.3403  17.3592  17.3593  17.4144  17.4144
    17.4322  17.4789  17.5003  17.5004  17.6201  17.6317  17.6318  17.6450
    17.6451  17.6838  17.6838  17.6938  17.6939  17.9081  17.9082  17.9261
    17.9349  17.9350  18.0012  18.0014  18.0816  18.0817  18.0909  18.0910
    18.0927  18.0928  18.1131  18.1706  18.1717  18.1827  18.1827  18.2107
    18.3016  18.3016  18.3107  18.3107  18.3472  18.3473  18.4027  18.4206
    18.4206  18.4513  18.5636  18.7086  18.7087  18.8319  18.8385  18.8386
    18.8689  18.8839  18.8839  19.1005  19.2148  19.2149  19.2366  19.2536
    19.2970  19.2973  19.2973  19.3224  19.3224  19.4863  19.5395  19.5395
    19.5404  19.5404  19.5527  19.6107  19.6113  19.6118  19.6123  20.2608
    20.6509  20.6510  20.7487  20.7487  20.9801  21.0880  21.1372  21.1373
    21.6065  21.6065  22.1415  22.1998  22.1998  22.3664  22.7428  22.7428
    23.0229  23.0229  26.5222  26.6820  26.6820  26.9413  26.9413  26.9499
    26.9499  26.9769  27.5446  27.5447  27.7946  27.7947  28.4809  28.4810
    28.9970  28.9970  29.8295  29.8295  29.9410  29.9411  29.9412  30.0885
    30.0885  30.1649  30.1650  30.3754  30.3755  30.4093  30.4853  30.4853
    30.9238  30.9239

          k = 0.0556 0.0556 0.2782 ( 32791 PWs)   bands (ev):

   -64.7510 -64.7351 -64.7226 -64.7225 -64.7171 -64.7170 -64.7139 -64.7138
   -64.7098 -64.7097 -64.7077 -64.7074 -64.7061 -64.7054 -64.7049 -64.7045
   -64.7039 -64.7038 -64.7022 -64.6988 -64.6987 -64.6971 -64.6971 -64.6916
   -64.6901 -64.6901 -64.6899 -64.6898 -64.6893 -64.6887 -64.6884 -64.6878
   -30.6319 -30.6290 -30.6290 -30.6243 -30.6113 -30.6113 -30.6056 -30.5710
   -30.5651 -30.5651 -30.5597 -30.5597 -30.5568 -30.5453 -30.5452 -30.5431
   -30.5431 -30.5330 -30.5329 -30.5234 -30.5234 -30.5223 -30.5214 -30.5213
   -30.5086 -30.5085 -30.5066 -30.5066 -30.4954 -30.4954 -30.4766 -30.4766
   -30.4688 -30.4688 -30.4684 -30.4684 -30.4519 -30.4519 -30.4492 -30.4492
   -30.4161 -30.4161 -30.4071 -30.4056 -30.4054 -30.4037 -30.4034 -30.3990
   -30.3975 -30.3946 -30.3946 -30.3919 -30.3919 -30.3910 -30.3910 -30.3899
   -30.3899 -30.3814 -30.3775 -30.3775 -30.3715 -30.3638 -30.3632 -30.3476
   -30.3476 -30.3404 -30.3404 -30.3387 -30.3387 -30.3355 -30.3347 -30.3347
   -30.3313 -30.3312 -30.3307 -30.3307 -30.3246 -30.3225 -30.3194 -30.3185
   -30.3179 -30.3177 -30.3176 -30.3176 -30.3170 -30.3146 -30.3145 -30.3141
   -30.3111 -30.3039 -30.3038 -30.3027 -30.3021 -30.2822 -30.2681 -30.2671
    12.6070  13.7733  14.2424  14.2785  14.2785  14.3112  14.3517  14.3517
    14.3780  14.5017  14.5458  14.5458  14.5743  14.5744  14.6515  14.7707
    14.7708  14.9261  14.9261  14.9703  14.9878  15.0656  15.0656  15.1173
    15.2288  15.2289  15.2619  15.2620  15.2849  15.2850  15.2941  15.2941
    15.3955  15.3956  15.4129  15.4130  15.5230  15.5231  15.5702  15.5703
    15.6897  15.6898  15.8313  15.8314  15.8654  15.8654  15.8835  15.8837
    15.8841  15.9038  15.9038  15.9306  15.9307  16.0440  16.0441  16.1167
    16.1168  16.1677  16.1733  16.1733  16.2439  16.2439  16.2689  16.2690
    16.2749  16.2749  16.3412  16.3560  16.3561  16.4425  16.4777  16.4798
    16.4798  16.5392  16.5393  16.5441  16.6425  16.6775  16.6775  16.6943
    16.7064  16.7084  16.8573  16.8573  16.8748  16.9250  17.0149  17.0149
    17.0714  17.0714  17.0900  17.0901  17.1606  17.2413  17.2468  17.2468
    17.2643  17.2709  17.5697  17.5882  17.5882  17.6866  17.6866  17.7543
    17.7544  17.7700  17.7701  17.8287  17.8287  17.8611  17.8612  17.9250
    17.9252  18.0341  18.0685  18.0686  18.0705  18.0705  18.0933  18.0934
    18.0995  18.0996  18.2028  18.2979  18.3517  18.3517  18.3669  18.3670
    18.3793  18.4605  18.4700  18.4704  18.5082  18.5083  18.5109  18.5109
    18.5589  18.5590  18.5864  18.6022  18.6023  18.6717  18.8544  18.8545
    18.9157  18.9157  18.9190  18.9710  19.0686  19.0686  19.1196  19.1196
    19.1252  19.2028  19.2104  19.2104  19.2228  19.3501  19.4050  19.4050
    19.4062  19.4062  19.4379  19.6104  19.6109  19.6116  19.6120  20.2203
    20.2204  20.4400  20.6736  20.6736  20.9774  20.9774  21.0278  21.3557
    21.5569  21.5569  21.7559  22.0961  22.8375  22.8375  23.3859  23.3860
    23.5154  23.5154  26.0650  26.0650  26.2135  26.2135  26.6261  26.6262
    26.6918  26.9961  26.9961  27.4008  28.0447  28.0447  28.7211  28.7212
    29.0464  29.4988  29.4988  29.5932  29.5932  29.8437  29.8437  29.9126
    29.9126  29.9886  29.9886  30.1534  30.2525  30.2526  30.4157  30.4157
    30.4246  30.4247

          k = 0.0556 0.0556 0.3895 ( 32839 PWs)   bands (ev):

   -64.7482 -64.7401 -64.7210 -64.7210 -64.7166 -64.7165 -64.7158 -64.7157
   -64.7121 -64.7120 -64.7075 -64.7064 -64.7054 -64.7049 -64.7045 -64.7039
   -64.7034 -64.7025 -64.7024 -64.6961 -64.6960 -64.6949 -64.6948 -64.6944
   -64.6917 -64.6916 -64.6912 -64.6911 -64.6893 -64.6888 -64.6884 -64.6878
   -30.6209 -30.6167 -30.6167 -30.6107 -30.6020 -30.6020 -30.5910 -30.5894
   -30.5836 -30.5836 -30.5758 -30.5758 -30.5757 -30.5487 -30.5453 -30.5452
   -30.5401 -30.5401 -30.5385 -30.5384 -30.5288 -30.5287 -30.5109 -30.5109
   -30.5031 -30.5031 -30.4927 -30.4927 -30.4876 -30.4876 -30.4872 -30.4872
   -30.4820 -30.4820 -30.4652 -30.4652 -30.4630 -30.4629 -30.4525 -30.4525
   -30.4257 -30.4257 -30.4053 -30.4050 -30.4041 -30.4037 -30.3927 -30.3914
   -30.3868 -30.3787 -30.3787 -30.3782 -30.3782 -30.3774 -30.3774 -30.3760
   -30.3760 -30.3749 -30.3739 -30.3645 -30.3642 -30.3642 -30.3557 -30.3556
   -30.3518 -30.3517 -30.3515 -30.3515 -30.3498 -30.3438 -30.3430 -30.3429
   -30.3425 -30.3425 -30.3349 -30.3256 -30.3256 -30.3220 -30.3203 -30.3185
   -30.3179 -30.3176 -30.3170 -30.3166 -30.3165 -30.3133 -30.3120 -30.3119
   -30.3115 -30.3044 -30.3044 -30.2985 -30.2919 -30.2911 -30.2744 -30.2734
    12.8208  13.4196  14.3359  14.4086  14.4086  14.4226  14.4751  14.4752
    14.5127  14.5601  14.5837  14.6727  14.6727  14.7147  14.7148  14.7484
    14.7484  14.7638  14.8203  14.8355  14.8355  14.8876  14.9134  14.9135
    15.0481  15.0481  15.0620  15.0621  15.2606  15.2607  15.3475  15.3476
    15.4030  15.4031  15.4729  15.4730  15.4917  15.4918  15.6323  15.6324
    15.6875  15.6876  15.6973  15.6973  15.7967  15.7967  15.8369  15.8370
    15.8544  15.8545  15.8961  15.8962  15.9429  15.9430  16.0629  16.0864
    16.0865  16.1188  16.1189  16.2291  16.2751  16.2752  16.2759  16.2759
    16.3061  16.3062  16.3661  16.3735  16.4094  16.4278  16.4278  16.4595
    16.4596  16.5094  16.5898  16.5898  16.7313  16.7764  16.7764  16.8016
    16.8034  16.8046  16.8326  16.8327  16.8412  16.8413  16.9952  17.0405
    17.0405  17.0823  17.0876  17.0933  17.2737  17.2773  17.2773  17.2918
    17.5204  17.5204  17.6548  17.6548  17.6615  17.6802  17.6802  17.8515
    17.8517  17.8880  17.8881  17.8969  17.8970  17.9134  17.9136  17.9236
    17.9503  17.9503  18.0373  18.0373  18.0703  18.0788  18.0789  18.0814
    18.0815  18.0936  18.0936  18.1116  18.1116  18.1939  18.2502  18.3127
    18.3127  18.3858  18.4618  18.4618  18.5573  18.5573  18.5927  18.6314
    18.7170  18.7170  18.7208  18.7774  18.7845  18.7845  18.8062  18.8063
    18.9606  18.9606  18.9755  19.0710  19.0779  19.0779  19.1066  19.1094
    19.1159  19.1159  19.1571  19.2240  19.2240  19.2250  19.2250  19.2973
    19.4155  19.4156  19.5384  19.6103  19.6109  19.6114  19.6119  19.8193
    19.8193  20.2321  20.2321  20.6354  20.9337  21.0234  21.1871  21.1871
    21.4751  21.4751  21.6567  22.0124  23.5481  23.5481  24.0974  24.0975
    24.1198  24.1198  25.1760  25.1760  25.4910  25.4910  25.7264  25.7264
    27.0422  27.4595  27.4595  27.9421  28.2454  28.3982  28.3983  28.7773
    28.7773  29.0586  29.0587  29.3216  29.3216  29.3320  29.7212  29.7212
    29.8701  29.8701  29.9344  29.9345  30.3785  30.3785  30.3945  30.3947
    30.6172  30.6172

          k = 0.0556 0.0556-0.5008 ( 32862 PWs)   bands (ev):

   -64.7448 -64.7441 -64.7194 -64.7193 -64.7186 -64.7185 -64.7145 -64.7144
   -64.7137 -64.7136 -64.7074 -64.7066 -64.7054 -64.7049 -64.7045 -64.7039
   -64.7033 -64.7025 -64.6985 -64.6977 -64.6941 -64.6940 -64.6933 -64.6933
   -64.6932 -64.6932 -64.6925 -64.6924 -64.6893 -64.6888 -64.6884 -64.6878
   -30.6067 -30.6063 -30.6019 -30.6015 -30.6011 -30.6008 -30.5944 -30.5940
   -30.5905 -30.5905 -30.5897 -30.5897 -30.5721 -30.5714 -30.5430 -30.5429
   -30.5427 -30.5426 -30.5351 -30.5350 -30.5349 -30.5348 -30.4995 -30.4995
   -30.4991 -30.4991 -30.4940 -30.4940 -30.4933 -30.4933 -30.4780 -30.4780
   -30.4777 -30.4777 -30.4775 -30.4775 -30.4768 -30.4768 -30.4383 -30.4383
   -30.4376 -30.4376 -30.4053 -30.4048 -30.4045 -30.4039 -30.3849 -30.3842
   -30.3838 -30.3830 -30.3674 -30.3671 -30.3663 -30.3663 -30.3656 -30.3655
   -30.3654 -30.3654 -30.3651 -30.3650 -30.3645 -30.3644 -30.3641 -30.3641
   -30.3589 -30.3587 -30.3582 -30.3579 -30.3528 -30.3528 -30.3520 -30.3520
   -30.3487 -30.3483 -30.3216 -30.3208 -30.3206 -30.3205 -30.3202 -30.3202
   -30.3195 -30.3188 -30.3185 -30.3179 -30.3176 -30.3170 -30.3128 -30.3120
   -30.3075 -30.3074 -30.3072 -30.3071 -30.2828 -30.2820 -30.2817 -30.2810
    13.0950  13.0960  14.4465  14.4473  14.5687  14.5693  14.5696  14.5701
    14.5741  14.5741  14.6368  14.6368  14.6376  14.6377  14.6838  14.6839
    14.6902  14.6910  14.8401  14.8401  14.8409  14.8409  14.8829  14.8830
    14.8837  14.8838  15.0836  15.0837  15.0844  15.0845  15.4321  15.4322
    15.4325  15.4326  15.5480  15.5481  15.5488  15.5489  15.5740  15.5741
    15.5746  15.5747  15.7094  15.7095  15.7101  15.7101  15.8660  15.8660
    15.8662  15.8662  15.8738  15.8739  15.8739  15.8740  16.0870  16.0870
    16.0870  16.0871  16.2254  16.2262  16.2777  16.2778  16.2783  16.2784
    16.2996  16.3001  16.3675  16.3679  16.3682  16.3687  16.4632  16.4638
    16.6270  16.6271  16.6271  16.6272  16.6881  16.6882  16.6883  16.6884
    16.8499  16.8502  16.9022  16.9024  16.9029  16.9032  16.9299  16.9307
    16.9311  16.9319  16.9362  16.9364  17.6732  17.6732  17.6734  17.6734
    17.6735  17.6735  17.6740  17.6740  17.6770  17.6773  17.7206  17.7209
    17.7926  17.7934  17.8947  17.8948  17.8953  17.8955  17.9784  17.9784
    17.9790  17.9791  17.9880  17.9880  17.9884  17.9884  17.9945  17.9946
    17.9951  17.9953  18.0336  18.0337  18.0343  18.0343  18.2103  18.2103
    18.2110  18.2110  18.3113  18.3121  18.7675  18.7679  18.7683  18.7687
    18.7950  18.7952  18.9096  18.9097  18.9103  18.9105  18.9157  18.9164
    18.9446  18.9449  18.9549  18.9552  19.0108  19.0108  19.0114  19.0114
    19.0189  19.0190  19.0195  19.0195  19.1738  19.1741  19.4476  19.4477
    19.4478  19.4478  19.6103  19.6109  19.6112  19.6118  19.8109  19.8110
    19.8110  19.8111  20.2612  20.2618  20.8027  20.8034  21.3534  21.3534
    21.3541  21.3542  21.8718  21.8726  24.3303  24.3303  24.3306  24.3307
    24.7870  24.7870  24.7876  24.7876  24.8790  24.8790  24.8793  24.8793
    27.5673  27.5675  28.0588  28.0589  28.0595  28.0597  28.5900  28.5901
    28.8314  28.8315  28.8322  28.8322  29.4707  29.4708  29.4715  29.4716
    29.8111  29.8114  29.8118  29.8122  30.5658  30.5659  30.5667  30.5668
    30.8468  30.8474

          k = 0.0556 0.1669 0.1669 ( 32811 PWs)   bands (ev):

   -64.7520 -64.7292 -64.7291 -64.7231 -64.7175 -64.7145 -64.7125 -64.7124
   -64.7108 -64.7107 -64.7073 -64.7072 -64.7066 -64.7051 -64.7039 -64.7039
   -64.7036 -64.7035 -64.7017 -64.7016 -64.6997 -64.6996 -64.6975 -64.6900
   -64.6898 -64.6895 -64.6894 -64.6892 -64.6891 -64.6889 -64.6888 -64.6881
   -30.6362 -30.6362 -30.6317 -30.6269 -30.6144 -30.6127 -30.6127 -30.5563
   -30.5563 -30.5538 -30.5537 -30.5439 -30.5439 -30.5425 -30.5406 -30.5405
   -30.5398 -30.5397 -30.5394 -30.5393 -30.5313 -30.5312 -30.5293 -30.5292
   -30.5053 -30.4986 -30.4986 -30.4970 -30.4970 -30.4920 -30.4920 -30.4835
   -30.4835 -30.4732 -30.4695 -30.4448 -30.4400 -30.4400 -30.4258 -30.4258
   -30.4215 -30.4215 -30.4153 -30.4086 -30.4086 -30.4071 -30.4071 -30.4015
   -30.4013 -30.4011 -30.4010 -30.4005 -30.3994 -30.3993 -30.3973 -30.3972
   -30.3956 -30.3956 -30.3830 -30.3830 -30.3772 -30.3546 -30.3546 -30.3491
   -30.3491 -30.3396 -30.3381 -30.3363 -30.3303 -30.3302 -30.3301 -30.3300
   -30.3271 -30.3271 -30.3262 -30.3262 -30.3259 -30.3254 -30.3216 -30.3206
   -30.3206 -30.3194 -30.3169 -30.3169 -30.3162 -30.3152 -30.3152 -30.3152
   -30.3105 -30.3105 -30.3063 -30.3063 -30.2992 -30.2789 -30.2658 -30.2628
    12.5341  14.1768  14.1769  14.2225  14.2225  14.2295  14.2541  14.2954
    14.3356  14.3356  14.4884  14.4884  14.5066  14.5153  14.7080  14.7377
    14.7378  15.0969  15.0970  15.1174  15.1175  15.1497  15.1497  15.1674
    15.1674  15.1957  15.2374  15.2374  15.2631  15.2631  15.3814  15.3896
    15.3897  15.3986  15.3987  15.4490  15.5592  15.5895  15.5895  15.5959
    15.5959  15.6276  15.6276  15.7135  15.7136  15.8599  15.8599  15.9443
    15.9443  15.9544  16.0493  16.0493  16.0647  16.0648  16.1253  16.1253
    16.1373  16.1990  16.1990  16.2086  16.2087  16.2626  16.2626  16.3610
    16.4088  16.4089  16.4553  16.4553  16.4624  16.4624  16.5102  16.5349
    16.5689  16.5690  16.5715  16.5745  16.5745  16.5930  16.5930  16.6107
    16.6421  16.6424  16.6424  16.6431  16.6562  16.6669  16.6670  16.6732
    17.1211  17.1800  17.1800  17.2313  17.3384  17.3384  17.4470  17.4686
    17.4686  17.4694  17.4695  17.5272  17.5273  17.5506  17.5507  17.6072
    17.6125  17.6126  17.6943  17.7681  17.7777  17.7778  17.7970  17.7970
    17.8214  18.0771  18.0772  18.0950  18.0951  18.1016  18.1605  18.1698
    18.1699  18.1869  18.1875  18.1876  18.1962  18.1962  18.2786  18.2787
    18.3073  18.3073  18.4884  18.4884  18.5294  18.5410  18.5411  18.5421
    18.5821  18.5821  18.5919  18.5920  18.6484  18.6485  18.6792  18.7244
    18.8485  18.9538  19.0086  19.0086  19.1431  19.1449  19.1449  19.1635
    19.2615  19.2922  19.2922  19.3100  19.3100  19.3212  19.4809  19.4809
    19.5388  19.5388  19.5413  19.5413  19.5514  19.5514  19.5743  19.9810
    20.2168  20.6188  20.6189  20.6494  21.1129  21.1129  21.2785  21.2785
    21.6878  21.6878  22.1864  22.1864  22.6596  22.6596  22.7299  22.7299
    23.2874  23.3288  26.3218  26.3218  26.5197  26.5197  26.9827  27.0377
    27.0377  27.0781  27.0782  27.3831  27.6754  27.6754  28.1131  28.1133
    29.1248  29.1248  29.4201  29.4201  29.8125  29.9221  29.9598  29.9598
    30.0498  30.0498  30.2768  30.2768  30.3989  30.3989  30.7715  30.7715
    31.0568  31.0598

          k = 0.0556 0.1669 0.2782 ( 32815 PWs)   bands (ev):

   -64.7501 -64.7344 -64.7279 -64.7220 -64.7179 -64.7167 -64.7136 -64.7117
   -64.7105 -64.7096 -64.7075 -64.7072 -64.7071 -64.7058 -64.7056 -64.7033
   -64.7028 -64.7018 -64.7004 -64.7000 -64.6989 -64.6974 -64.6955 -64.6915
   -64.6905 -64.6904 -64.6903 -64.6899 -64.6896 -64.6892 -64.6889 -64.6881
   -30.6308 -30.6293 -30.6220 -30.6156 -30.6082 -30.6071 -30.6032 -30.5739
   -30.5704 -30.5599 -30.5569 -30.5567 -30.5564 -30.5563 -30.5467 -30.5457
   -30.5455 -30.5399 -30.5391 -30.5371 -30.5350 -30.5339 -30.5307 -30.5243
   -30.5163 -30.5030 -30.5000 -30.4935 -30.4896 -30.4883 -30.4844 -30.4825
   -30.4779 -30.4756 -30.4660 -30.4564 -30.4534 -30.4398 -30.4354 -30.4237
   -30.4217 -30.4198 -30.4138 -30.4080 -30.4061 -30.4026 -30.4017 -30.4010
   -30.3990 -30.3985 -30.3970 -30.3923 -30.3890 -30.3872 -30.3865 -30.3837
   -30.3824 -30.3803 -30.3697 -30.3690 -30.3667 -30.3633 -30.3613 -30.3603
   -30.3449 -30.3439 -30.3439 -30.3423 -30.3398 -30.3395 -30.3389 -30.3382
   -30.3331 -30.3305 -30.3295 -30.3272 -30.3272 -30.3266 -30.3230 -30.3225
   -30.3220 -30.3200 -30.3197 -30.3189 -30.3156 -30.3150 -30.3133 -30.3070
   -30.3050 -30.3047 -30.3044 -30.2983 -30.2953 -30.2916 -30.2701 -30.2652
    12.6780  13.8294  14.2792  14.2899  14.3079  14.3116  14.3139  14.3626
    14.4283  14.4407  14.5430  14.5724  14.5923  14.5971  14.7033  14.7799
    14.8401  14.9165  14.9365  14.9672  15.0038  15.0049  15.0161  15.0505
    15.1368  15.1519  15.1748  15.1869  15.2016  15.2278  15.3010  15.3110
    15.3181  15.3379  15.3679  15.4199  15.4590  15.4823  15.5129  15.6122
    15.6239  15.6371  15.6794  15.7470  15.7866  15.8027  15.8105  15.8970
    15.9052  15.9158  15.9329  15.9475  15.9973  16.0615  16.0696  16.1141
    16.1192  16.1304  16.2167  16.2688  16.3123  16.3156  16.3669  16.3777
    16.3940  16.3967  16.4087  16.4353  16.4694  16.4875  16.4935  16.5259
    16.5521  16.5700  16.6285  16.6597  16.6836  16.7015  16.7066  16.7115
    16.7328  16.7495  16.7555  16.7666  16.7825  16.8857  16.9676  16.9983
    17.0222  17.0302  17.0541  17.1457  17.1657  17.2655  17.2757  17.2903
    17.3615  17.3788  17.3905  17.4652  17.4697  17.5457  17.5532  17.6578
    17.6727  17.6950  17.7007  17.7539  17.7984  17.8830  17.9345  17.9397
    17.9567  18.0351  18.0452  18.0606  18.0925  18.1409  18.1757  18.1869
    18.2102  18.2530  18.2562  18.3018  18.3082  18.3195  18.3202  18.3304
    18.3379  18.3701  18.4443  18.4852  18.5058  18.5392  18.5668  18.6338
    18.6429  18.6732  18.6782  18.6810  18.6861  18.7068  18.7118  18.7991
    18.8058  18.8304  18.9234  19.0080  19.0365  19.0606  19.1384  19.1543
    19.2263  19.2664  19.2676  19.2720  19.3506  19.3710  19.3719  19.3744
    19.4052  19.4083  19.4441  19.5385  19.5423  19.5487  19.5532  19.8242
    20.0188  20.1877  20.5542  20.6499  20.6806  21.0635  21.1971  21.5712
    21.7694  22.0532  22.1540  22.3121  22.6931  22.8374  23.1415  23.3823
    23.7440  23.9691  25.4868  25.6715  26.1333  26.3606  26.5214  26.6412
    26.6916  27.1564  27.3562  27.3688  27.4109  27.8878  27.8885  28.5309
    28.6436  28.9222  29.0629  29.2443  29.3585  29.4606  29.6842  29.8775
    30.0497  30.1470  30.1727  30.3765  30.4259  30.6459  30.7438  30.7591
    30.9851  31.0856

          k = 0.0556 0.1669 0.3895 ( 32851 PWs)   bands (ev):

   -64.7472 -64.7393 -64.7261 -64.7210 -64.7205 -64.7162 -64.7154 -64.7118
   -64.7107 -64.7100 -64.7084 -64.7076 -64.7070 -64.7059 -64.7030 -64.7023
   -64.7020 -64.7019 -64.7004 -64.6973 -64.6963 -64.6952 -64.6943 -64.6937
   -64.6922 -64.6920 -64.6916 -64.6906 -64.6900 -64.6893 -64.6889 -64.6882
   -30.6212 -30.6187 -30.6088 -30.6009 -30.5989 -30.5986 -30.5919 -30.5894
   -30.5881 -30.5749 -30.5746 -30.5729 -30.5647 -30.5560 -30.5541 -30.5493
   -30.5491 -30.5487 -30.5473 -30.5436 -30.5342 -30.5300 -30.5270 -30.5192
   -30.5108 -30.5071 -30.5018 -30.4974 -30.4942 -30.4861 -30.4774 -30.4727
   -30.4708 -30.4700 -30.4659 -30.4602 -30.4531 -30.4499 -30.4485 -30.4377
   -30.4341 -30.4233 -30.4017 -30.4010 -30.3982 -30.3981 -30.3978 -30.3961
   -30.3919 -30.3906 -30.3885 -30.3805 -30.3778 -30.3769 -30.3762 -30.3751
   -30.3725 -30.3713 -30.3687 -30.3660 -30.3583 -30.3574 -30.3539 -30.3538
   -30.3535 -30.3531 -30.3528 -30.3511 -30.3507 -30.3506 -30.3505 -30.3396
   -30.3375 -30.3372 -30.3302 -30.3295 -30.3283 -30.3281 -30.3271 -30.3261
   -30.3251 -30.3239 -30.3180 -30.3173 -30.3161 -30.3136 -30.3114 -30.3085
   -30.3081 -30.3053 -30.2995 -30.2942 -30.2941 -30.2873 -30.2764 -30.2703
    12.8890  13.4800  14.3841  14.4023  14.4250  14.4306  14.4448  14.4695
    14.5587  14.5817  14.6106  14.6236  14.6967  14.6979  14.7091  14.7303
    14.7551  14.7874  14.7983  14.8028  14.8565  14.8760  14.9242  14.9378
    14.9560  14.9853  15.0688  15.0913  15.1064  15.1866  15.2999  15.3189
    15.3236  15.3454  15.3791  15.4344  15.4437  15.5695  15.5774  15.6006
    15.6294  15.6445  15.7080  15.7211  15.7407  15.7463  15.7485  15.7573
    15.7925  15.8358  15.8938  15.9256  15.9364  15.9942  16.0711  16.0967
    16.1276  16.1762  16.2844  16.2917  16.3227  16.3476  16.3644  16.3648
    16.3667  16.3712  16.4183  16.4536  16.4688  16.4753  16.4845  16.5085
    16.5555  16.5915  16.6040  16.7371  16.7403  16.7979  16.8047  16.8126
    16.8178  16.8203  16.8611  16.8729  16.8929  16.9583  16.9647  16.9721
    17.0516  17.0647  17.0850  17.1551  17.1855  17.2104  17.2500  17.2705
    17.4333  17.4423  17.4649  17.4840  17.4891  17.5165  17.6130  17.7065
    17.7086  17.7271  17.7894  17.8383  17.8891  17.9012  17.9121  17.9142
    17.9320  17.9391  17.9886  18.0206  18.0611  18.0845  18.0908  18.0939
    18.1517  18.1591  18.2062  18.2380  18.2624  18.3146  18.3424  18.3536
    18.3857  18.3865  18.3895  18.5276  18.5459  18.5494  18.5775  18.5831
    18.6948  18.7345  18.7772  18.8103  18.8463  18.8696  18.8728  18.8774
    18.8832  18.8881  18.9127  18.9751  18.9788  19.0784  19.0827  19.1075
    19.1324  19.1776  19.1794  19.2255  19.2259  19.2261  19.2306  19.3184
    19.3915  19.4673  19.5388  19.5433  19.5444  19.5465  19.7870  19.8048
    19.9163  20.1723  20.2098  20.4567  20.7210  20.7794  20.9888  21.3352
    21.8115  22.0915  22.1676  22.6093  23.0136  23.5637  23.7232  24.1047
    24.3188  24.6212  24.6726  25.0113  25.2259  25.6509  25.7532  26.2796
    26.7219  27.0465  27.6420  27.7221  27.7556  27.9558  28.1908  28.2588
    28.4519  28.4849  28.6913  28.9925  29.1362  29.3500  29.6828  29.7798
    29.9220  30.0773  30.0984  30.2415  30.3368  30.5176  30.5326  30.5859
    30.6602  30.9231

          k = 0.0556 0.1669-0.5008 ( 32858 PWs)   bands (ev):

   -64.7440 -64.7432 -64.7242 -64.7234 -64.7189 -64.7182 -64.7141 -64.7134
   -64.7097 -64.7096 -64.7089 -64.7088 -64.7069 -64.7061 -64.7028 -64.7020
   -64.7015 -64.7008 -64.6983 -64.6976 -64.6949 -64.6944 -64.6941 -64.6936
   -64.6936 -64.6928 -64.6924 -64.6916 -64.6900 -64.6893 -64.6889 -64.6882
   -30.6082 -30.6079 -30.6048 -30.6045 -30.5930 -30.5926 -30.5880 -30.5875
   -30.5873 -30.5867 -30.5838 -30.5834 -30.5715 -30.5708 -30.5530 -30.5529
   -30.5503 -30.5499 -30.5496 -30.5495 -30.5295 -30.5294 -30.5193 -30.5189
   -30.5070 -30.5068 -30.5066 -30.5064 -30.4865 -30.4862 -30.4771 -30.4766
   -30.4660 -30.4654 -30.4604 -30.4597 -30.4553 -30.4550 -30.4465 -30.4461
   -30.4358 -30.4351 -30.4018 -30.4011 -30.3980 -30.3976 -30.3881 -30.3874
   -30.3828 -30.3820 -30.3797 -30.3789 -30.3773 -30.3770 -30.3698 -30.3695
   -30.3673 -30.3668 -30.3650 -30.3647 -30.3637 -30.3633 -30.3629 -30.3626
   -30.3607 -30.3599 -30.3506 -30.3503 -30.3470 -30.3462 -30.3399 -30.3396
   -30.3394 -30.3386 -30.3347 -30.3343 -30.3295 -30.3290 -30.3272 -30.3265
   -30.3255 -30.3247 -30.3217 -30.3213 -30.3173 -30.3166 -30.3100 -30.3092
   -30.3086 -30.3083 -30.2957 -30.2955 -30.2849 -30.2841 -30.2780 -30.2775
    13.1596  13.1606  14.4957  14.4965  14.5365  14.5366  14.5808  14.5815
    14.6037  14.6045  14.6064  14.6072  14.6153  14.6153  14.7250  14.7250
    14.7285  14.7293  14.7551  14.7552  14.8161  14.8167  14.8635  14.8643
    14.9017  14.9024  14.9838  14.9842  15.1604  15.1611  15.2408  15.2409
    15.4371  15.4373  15.4420  15.4425  15.4757  15.4765  15.5798  15.5805
    15.6580  15.6581  15.6847  15.6854  15.7355  15.7358  15.7599  15.7602
    15.8106  15.8107  15.8438  15.8444  15.8478  15.8483  16.2051  16.2056
    16.2287  16.2289  16.2293  16.2295  16.2475  16.2481  16.3106  16.3107
    16.4112  16.4118  16.4244  16.4248  16.5266  16.5271  16.5647  16.5654
    16.6253  16.6254  16.6700  16.6701  16.6824  16.6826  16.7990  16.7992
    16.8441  16.8443  16.9119  16.9121  16.9287  16.9294  16.9319  16.9326
    16.9939  16.9942  17.0150  17.0152  17.4720  17.4726  17.4820  17.4826
    17.5301  17.5303  17.5421  17.5423  17.5683  17.5686  17.6170  17.6172
    17.6649  17.6655  17.8125  17.8132  17.8191  17.8197  17.8893  17.8897
    17.9026  17.9032  17.9382  17.9386  17.9470  17.9476  18.0147  18.0154
    18.1282  18.1289  18.1673  18.1680  18.2391  18.2397  18.3060  18.3068
    18.4353  18.4361  18.4859  18.4866  18.5588  18.5594  18.7293  18.7300
    18.7703  18.7705  18.7874  18.7881  18.9236  18.9239  18.9483  18.9483
    19.0102  19.0108  19.0373  19.0378  19.0413  19.0414  19.0477  19.0479
    19.0561  19.0566  19.0589  19.0593  19.1471  19.1473  19.1994  19.1996
    19.4152  19.4153  19.5400  19.5407  19.5444  19.5452  19.7894  19.7895
    20.2564  20.2565  20.3268  20.3276  20.5999  20.6005  20.8906  20.8913
    21.9824  21.9831  22.4445  22.4453  23.7875  23.7879  24.3554  24.3560
    24.3628  24.3631  24.8974  24.8976  24.9636  24.9642  25.4433  25.4436
    27.1388  27.1389  27.5766  27.5767  28.0190  28.0198  28.1758  28.1765
    28.5643  28.5651  28.6062  28.6064  29.1654  29.1655  29.5456  29.5458
    30.0765  30.0773  30.2459  30.2465  30.2597  30.2602  30.3644  30.3653
    31.0257  31.2201

          k = 0.0556 0.2782 0.2782 ( 32851 PWs)   bands (ev):

   -64.7482 -64.7331 -64.7330 -64.7217 -64.7211 -64.7159 -64.7131 -64.7131
   -64.7093 -64.7092 -64.7089 -64.7066 -64.7066 -64.7065 -64.7021 -64.7021
   -64.7018 -64.7017 -64.6992 -64.6991 -64.6979 -64.6978 -64.6939 -64.6917
   -64.6916 -64.6913 -64.6912 -64.6906 -64.6905 -64.6895 -64.6893 -64.6884
   -30.6256 -30.6256 -30.6114 -30.6032 -30.6020 -30.5985 -30.5985 -30.5739
   -30.5739 -30.5724 -30.5723 -30.5599 -30.5599 -30.5516 -30.5516 -30.5492
   -30.5492 -30.5459 -30.5459 -30.5439 -30.5439 -30.5341 -30.5323 -30.5323
   -30.5278 -30.5278 -30.4986 -30.4928 -30.4859 -30.4859 -30.4784 -30.4784
   -30.4712 -30.4688 -30.4608 -30.4607 -30.4339 -30.4324 -30.4324 -30.4217
   -30.4217 -30.4197 -30.4197 -30.4092 -30.4091 -30.3966 -30.3966 -30.3949
   -30.3948 -30.3948 -30.3934 -30.3933 -30.3885 -30.3884 -30.3801 -30.3801
   -30.3726 -30.3725 -30.3709 -30.3709 -30.3579 -30.3579 -30.3575 -30.3574
   -30.3522 -30.3522 -30.3498 -30.3497 -30.3411 -30.3410 -30.3391 -30.3385
   -30.3383 -30.3372 -30.3372 -30.3358 -30.3270 -30.3270 -30.3256 -30.3245
   -30.3231 -30.3222 -30.3169 -30.3160 -30.3159 -30.3153 -30.3100 -30.3100
   -30.3060 -30.3058 -30.3057 -30.2929 -30.2929 -30.2893 -30.2745 -30.2652
    12.8182  13.9389  13.9390  14.3424  14.3786  14.3823  14.3823  14.4108
    14.5390  14.5390  14.6253  14.6253  14.6260  14.6964  14.7637  14.7993
    14.8042  14.8042  14.8497  14.8498  14.9595  14.9596  14.9663  14.9664
    15.0472  15.0473  15.0711  15.0711  15.2387  15.2411  15.2412  15.2476
    15.2477  15.3446  15.3446  15.3764  15.3764  15.4220  15.4221  15.5022
    15.5022  15.5810  15.6999  15.6999  15.7065  15.7065  15.7299  15.9200
    15.9201  15.9481  15.9482  15.9598  15.9599  15.9665  15.9750  16.2227
    16.2227  16.2956  16.2956  16.3840  16.3840  16.3865  16.3865  16.4304
    16.4338  16.4339  16.4603  16.4604  16.4787  16.5739  16.6005  16.6064
    16.6065  16.6987  16.6987  16.7134  16.7443  16.7688  16.7818  16.8048
    16.8048  16.8064  16.8523  16.8523  16.8690  16.8691  16.8799  16.9159
    17.0172  17.0172  17.0410  17.0411  17.2090  17.2090  17.2643  17.2644
    17.3460  17.3460  17.4002  17.4405  17.4924  17.4926  17.5236  17.5237
    17.5420  17.5421  17.6108  17.6160  17.7594  17.7595  17.8914  17.9776
    17.9776  17.9947  17.9948  18.0058  18.0280  18.1146  18.1146  18.1897
    18.2279  18.2861  18.2862  18.3423  18.3424  18.3894  18.3895  18.4302
    18.4303  18.5419  18.5419  18.5435  18.5436  18.5638  18.5649  18.5650
    18.5667  18.6185  18.6185  18.7757  18.8195  18.8457  18.8458  18.8518
    18.8519  18.8557  18.8558  18.9589  18.9621  18.9974  19.1228  19.1228
    19.1987  19.2772  19.2772  19.2935  19.3085  19.3085  19.4075  19.4076
    19.4112  19.4112  19.4348  19.4348  19.4737  19.4907  19.7891  19.8193
    19.8193  20.1231  20.1231  20.5004  20.6043  20.6044  21.8005  21.8005
    22.1611  22.1611  22.5265  22.5265  22.8271  22.8271  23.3561  23.3562
    24.1527  24.5990  24.8921  24.8921  26.1499  26.1499  26.5200  26.5200
    26.6384  26.6384  27.1141  27.1141  27.7372  27.7374  27.9228  28.0485
    28.0485  28.4511  28.5649  28.5649  28.6437  29.7568  29.9347  29.9347
    30.0885  30.0885  30.4981  30.5212  30.7879  30.7880  30.9390  30.9390
    31.1651  31.1651

          k = 0.0556 0.2782 0.3895 ( 32868 PWs)   bands (ev):

   -64.7455 -64.7377 -64.7310 -64.7252 -64.7196 -64.7155 -64.7147 -64.7124
   -64.7113 -64.7102 -64.7089 -64.7073 -64.7058 -64.7033 -64.7019 -64.7011
   -64.7007 -64.6996 -64.6985 -64.6984 -64.6968 -64.6958 -64.6941 -64.6927
   -64.6926 -64.6926 -64.6924 -64.6916 -64.6907 -64.6901 -64.6893 -64.6885
   -30.6177 -30.6166 -30.5976 -30.5929 -30.5916 -30.5912 -30.5890 -30.5877
   -30.5861 -30.5719 -30.5711 -30.5710 -30.5672 -30.5635 -30.5592 -30.5588
   -30.5582 -30.5512 -30.5510 -30.5503 -30.5441 -30.5409 -30.5333 -30.5323
   -30.5309 -30.5170 -30.5079 -30.5058 -30.4967 -30.4842 -30.4717 -30.4676
   -30.4637 -30.4531 -30.4517 -30.4455 -30.4447 -30.4446 -30.4355 -30.4322
   -30.4186 -30.4125 -30.4100 -30.4050 -30.4025 -30.4020 -30.3962 -30.3942
   -30.3916 -30.3896 -30.3886 -30.3839 -30.3825 -30.3811 -30.3774 -30.3711
   -30.3706 -30.3700 -30.3691 -30.3689 -30.3660 -30.3604 -30.3575 -30.3567
   -30.3554 -30.3534 -30.3488 -30.3486 -30.3468 -30.3445 -30.3442 -30.3436
   -30.3374 -30.3365 -30.3356 -30.3323 -30.3308 -30.3306 -30.3300 -30.3298
   -30.3240 -30.3224 -30.3210 -30.3187 -30.3173 -30.3172 -30.3168 -30.3127
   -30.3075 -30.3071 -30.2989 -30.2884 -30.2863 -30.2826 -30.2808 -30.2683
    13.0235  13.5985  14.0968  14.4150  14.4781  14.4799  14.4960  14.5147
    14.5218  14.6711  14.6713  14.6720  14.6812  14.7034  14.7089  14.7481
    14.7752  14.7774  14.7863  14.8298  14.8378  14.8630  14.9168  14.9290
    14.9477  14.9984  15.0291  15.0416  15.1101  15.1353  15.1611  15.1730
    15.2117  15.3118  15.3164  15.3518  15.3950  15.4224  15.4250  15.4752
    15.4902  15.5401  15.5682  15.6063  15.6444  15.7538  15.7974  15.8157
    15.8356  15.8843  15.9471  15.9785  16.0053  16.0289  16.0828  16.1917
    16.2047  16.2055  16.2905  16.3474  16.3543  16.4120  16.4592  16.4615
    16.4966  16.4986  16.5047  16.5416  16.5728  16.5934  16.6166  16.7055
    16.7103  16.7486  16.7705  16.7728  16.7873  16.8126  16.8211  16.8517
    16.8563  16.8589  16.8720  16.9568  16.9574  16.9775  16.9825  16.9989
    17.0098  17.0873  17.0885  17.0905  17.1682  17.1876  17.2559  17.2714
    17.2813  17.3186  17.3410  17.3514  17.3626  17.4011  17.4230  17.5238
    17.6343  17.6389  17.6580  17.6690  17.6766  17.6886  17.7534  17.7728
    17.8036  17.8383  17.8971  17.9137  17.9276  18.0093  18.1729  18.2170
    18.2258  18.2374  18.2546  18.2609  18.3873  18.3917  18.4068  18.4207
    18.4211  18.4679  18.5743  18.5958  18.5961  18.6066  18.6638  18.6765
    18.6799  18.7538  18.7827  18.8163  18.8221  18.8834  18.9099  18.9802
    18.9945  18.9945  19.0060  19.0064  19.0180  19.0181  19.0475  19.0696
    19.1628  19.2164  19.2224  19.2237  19.2288  19.2307  19.2338  19.2430
    19.2935  19.3610  19.4137  19.4148  19.4259  19.4495  19.7242  19.8002
    20.0290  20.1703  20.3042  20.4000  20.4467  20.5426  21.2965  21.8079
    22.4742  22.4854  22.6778  22.7852  23.0835  23.2662  23.5772  24.0580
    24.0866  24.2860  24.6839  25.2726  25.2856  25.6633  25.9524  26.5349
    26.7253  26.8148  26.9552  27.0805  27.3154  27.3469  27.6064  27.7808
    28.0632  28.1049  28.2943  28.5236  29.0845  29.4008  29.9649  30.0691
    30.1437  30.1832  30.2581  30.3486  30.4348  30.5488  31.0774  31.0790
    31.2462  31.3139

          k = 0.0556 0.2782-0.5008 ( 32856 PWs)   bands (ev):

   -64.7423 -64.7415 -64.7287 -64.7280 -64.7182 -64.7174 -64.7135 -64.7127
   -64.7118 -64.7110 -64.7085 -64.7078 -64.7051 -64.7043 -64.7007 -64.6999
   -64.6999 -64.6991 -64.6980 -64.6973 -64.6957 -64.6950 -64.6949 -64.6944
   -64.6942 -64.6936 -64.6916 -64.6915 -64.6909 -64.6908 -64.6893 -64.6885
   -30.6062 -30.6059 -30.6043 -30.6039 -30.5830 -30.5823 -30.5815 -30.5815
   -30.5811 -30.5808 -30.5702 -30.5702 -30.5698 -30.5695 -30.5666 -30.5666
   -30.5658 -30.5656 -30.5564 -30.5559 -30.5371 -30.5366 -30.5359 -30.5352
   -30.5198 -30.5194 -30.5058 -30.5058 -30.5009 -30.5005 -30.4582 -30.4580
   -30.4565 -30.4562 -30.4496 -30.4493 -30.4439 -30.4431 -30.4320 -30.4318
   -30.4309 -30.4301 -30.3956 -30.3949 -30.3943 -30.3935 -30.3925 -30.3917
   -30.3896 -30.3894 -30.3885 -30.3883 -30.3830 -30.3828 -30.3810 -30.3803
   -30.3698 -30.3693 -30.3669 -30.3667 -30.3605 -30.3600 -30.3600 -30.3596
   -30.3516 -30.3508 -30.3490 -30.3485 -30.3453 -30.3451 -30.3436 -30.3433
   -30.3379 -30.3372 -30.3344 -30.3337 -30.3337 -30.3330 -30.3321 -30.3318
   -30.3268 -30.3260 -30.3238 -30.3234 -30.3194 -30.3186 -30.3111 -30.3108
   -30.3102 -30.3094 -30.2894 -30.2887 -30.2860 -30.2859 -30.2743 -30.2740
    13.2869  13.2878  14.2944  14.2953  14.5250  14.5251  14.5917  14.5924
    14.6140  14.6144  14.6178  14.6179  14.6786  14.6794  14.7262  14.7266
    14.8050  14.8058  14.8356  14.8357  14.8508  14.8509  14.8699  14.8702
    14.9100  14.9108  15.0128  15.0132  15.0560  15.0561  15.1221  15.1227
    15.2960  15.2968  15.3116  15.3121  15.3921  15.3923  15.4576  15.4578
    15.4646  15.4654  15.6464  15.6470  15.6827  15.6828  15.6956  15.6963
    15.9667  15.9667  15.9695  15.9700  16.0780  16.0782  16.0911  16.0917
    16.1129  16.1135  16.2279  16.2284  16.4380  16.4386  16.5270  16.5276
    16.5368  16.5370  16.5635  16.5641  16.6078  16.6080  16.6240  16.6241
    16.6708  16.6709  16.8211  16.8212  16.8679  16.8684  16.8805  16.8807
    16.8996  16.8996  16.9335  16.9340  16.9383  16.9389  16.9519  16.9522
    17.1097  17.1101  17.1331  17.1334  17.2883  17.2884  17.2949  17.2953
    17.3047  17.3052  17.3692  17.3693  17.3832  17.3833  17.3982  17.3984
    17.4573  17.4578  17.7169  17.7176  17.7199  17.7203  17.7732  17.7737
    17.8025  17.8030  17.8289  17.8296  17.8327  17.8330  18.1225  18.1232
    18.1278  18.1284  18.3172  18.3179  18.3454  18.3460  18.3584  18.3591
    18.5208  18.5215  18.6493  18.6500  18.6538  18.6545  18.7761  18.7768
    18.7996  18.8002  18.8446  18.8446  18.8933  18.8934  18.8934  18.8937
    19.0159  19.0166  19.0434  19.0435  19.0700  19.0704  19.1174  19.1177
    19.1195  19.1199  19.1349  19.1351  19.1403  19.1404  19.1560  19.1560
    19.3528  19.3530  19.4191  19.4198  19.4260  19.4265  19.7561  19.7563
    19.9124  19.9131  20.4788  20.4795  20.7975  20.7978  21.0783  21.0789
    22.6785  22.6791  23.0533  23.0539  23.2439  23.2444  23.6778  23.6783
    24.3975  24.3978  24.8734  24.8735  25.2933  25.2939  26.0337  26.0339
    26.7948  26.7949  27.1528  27.1529  27.2220  27.2226  27.5246  27.5253
    27.6928  27.6935  28.8616  28.8617  29.2067  29.2069  29.7853  29.7854
    30.0886  30.0895  30.2264  30.2273  30.6449  30.6458  30.8376  30.8376
    31.4909  31.4915

          k = 0.0556 0.3895 0.3895 ( 32862 PWs)   bands (ev):

   -64.7429 -64.7355 -64.7355 -64.7291 -64.7183 -64.7147 -64.7146 -64.7137
   -64.7118 -64.7107 -64.7106 -64.7085 -64.7013 -64.7012 -64.6997 -64.6996
   -64.6993 -64.6993 -64.6975 -64.6974 -64.6968 -64.6967 -64.6941 -64.6940
   -64.6937 -64.6936 -64.6931 -64.6930 -64.6915 -64.6899 -64.6897 -64.6888
   -30.6105 -30.6105 -30.5872 -30.5871 -30.5864 -30.5863 -30.5840 -30.5834
   -30.5813 -30.5813 -30.5718 -30.5706 -30.5706 -30.5676 -30.5676 -30.5590
   -30.5589 -30.5523 -30.5523 -30.5513 -30.5512 -30.5501 -30.5500 -30.5375
   -30.5351 -30.5351 -30.5201 -30.5056 -30.5005 -30.4840 -30.4839 -30.4578
   -30.4495 -30.4495 -30.4375 -30.4374 -30.4302 -30.4225 -30.4224 -30.4173
   -30.4172 -30.4165 -30.4165 -30.4117 -30.4116 -30.3927 -30.3926 -30.3883
   -30.3882 -30.3879 -30.3878 -30.3862 -30.3844 -30.3843 -30.3822 -30.3822
   -30.3790 -30.3790 -30.3664 -30.3664 -30.3639 -30.3639 -30.3630 -30.3588
   -30.3588 -30.3484 -30.3484 -30.3458 -30.3458 -30.3457 -30.3457 -30.3429
   -30.3370 -30.3367 -30.3366 -30.3355 -30.3354 -30.3329 -30.3299 -30.3256
   -30.3253 -30.3226 -30.3209 -30.3208 -30.3206 -30.3185 -30.3163 -30.3096
   -30.3096 -30.3058 -30.3058 -30.2874 -30.2810 -30.2793 -30.2793 -30.2690
    13.2205  13.7707  13.7708  14.2446  14.4609  14.5546  14.5612  14.6128
    14.6128  14.6494  14.6494  14.6520  14.7661  14.7661  14.7932  14.8101
    14.8101  14.8225  14.8225  14.8235  14.8236  14.8492  14.8493  14.9691
    14.9692  14.9849  15.0011  15.0382  15.0382  15.1449  15.1450  15.1481
    15.1482  15.1720  15.1720  15.2165  15.2165  15.3516  15.3516  15.3657
    15.3657  15.3949  15.3949  15.6316  15.6317  15.6831  15.8726  15.8727
    15.8773  15.8774  15.9755  16.0417  16.0831  16.0831  16.0889  16.0890
    16.1043  16.2975  16.4060  16.4060  16.4602  16.5824  16.5934  16.5934
    16.6315  16.6315  16.6379  16.6380  16.6381  16.6382  16.6769  16.6769
    16.7041  16.7173  16.8621  16.8729  16.8874  16.8874  16.8960  16.9224
    16.9425  16.9532  16.9532  16.9733  16.9749  16.9749  17.0905  17.0906
    17.1010  17.1011  17.1039  17.1040  17.1202  17.1202  17.2203  17.2203
    17.2268  17.2440  17.3166  17.3166  17.3201  17.3837  17.4254  17.4256
    17.4295  17.4396  17.4396  17.4587  17.4588  17.4837  17.4838  17.6457
    17.7546  17.7547  17.7733  17.7733  17.8831  17.9470  17.9470  17.9786
    18.1364  18.2830  18.3793  18.3793  18.4243  18.4243  18.5140  18.5141
    18.5873  18.5874  18.6391  18.6392  18.6967  18.6968  18.6972  18.8040
    18.8040  18.8992  18.9242  18.9277  18.9278  18.9297  18.9313  18.9314
    18.9368  18.9368  19.0018  19.0725  19.1035  19.1035  19.1083  19.1083
    19.1191  19.2083  19.2083  19.2349  19.2349  19.2380  19.2380  19.2418
    19.2657  19.2659  19.2668  19.2669  19.3649  19.4407  19.5575  19.6370
    19.6370  20.1282  20.1283  20.2166  20.9118  20.9118  21.9592  21.9592
    22.3472  22.3472  23.1174  23.1174  23.4869  23.4870  23.5481  23.5481
    23.9666  23.9667  25.1431  25.1431  25.1710  25.9458  26.3648  26.3649
    26.5431  26.5431  26.7882  26.7882  26.9465  26.9465  27.3536  27.3536
    27.4587  27.4683  27.4685  28.7617  29.1596  29.7401  30.0848  30.0889
    30.0890  30.2215  30.6244  30.6245  30.7907  30.7907  31.2145  31.2146
    31.6423  31.6424

          k = 0.0556 0.3895-0.5008 ( 32868 PWs)   bands (ev):

   -64.7399 -64.7391 -64.7330 -64.7322 -64.7170 -64.7162 -64.7138 -64.7130
   -64.7126 -64.7118 -64.7101 -64.7093 -64.7008 -64.7001 -64.6987 -64.6983
   -64.6979 -64.6976 -64.6976 -64.6969 -64.6964 -64.6958 -64.6956 -64.6955
   -64.6951 -64.6947 -64.6939 -64.6932 -64.6909 -64.6902 -64.6897 -64.6890
   -30.6006 -30.6004 -30.5998 -30.5995 -30.5803 -30.5801 -30.5801 -30.5800
   -30.5755 -30.5748 -30.5729 -30.5721 -30.5682 -30.5675 -30.5675 -30.5671
   -30.5613 -30.5608 -30.5541 -30.5537 -30.5524 -30.5519 -30.5490 -30.5483
   -30.5355 -30.5351 -30.5183 -30.5179 -30.4959 -30.4958 -30.4708 -30.4707
   -30.4357 -30.4356 -30.4324 -30.4322 -30.4285 -30.4278 -30.4238 -30.4231
   -30.4086 -30.4085 -30.4043 -30.4035 -30.4033 -30.4025 -30.4014 -30.4013
   -30.3984 -30.3983 -30.3867 -30.3861 -30.3819 -30.3818 -30.3785 -30.3778
   -30.3727 -30.3721 -30.3703 -30.3702 -30.3645 -30.3644 -30.3628 -30.3622
   -30.3557 -30.3554 -30.3551 -30.3550 -30.3421 -30.3420 -30.3417 -30.3414
   -30.3414 -30.3409 -30.3375 -30.3372 -30.3283 -30.3276 -30.3270 -30.3266
   -30.3254 -30.3251 -30.3241 -30.3234 -30.3151 -30.3147 -30.3144 -30.3143
   -30.3135 -30.3127 -30.2962 -30.2954 -30.2788 -30.2787 -30.2729 -30.2727
    13.4726  13.4735  13.9891  13.9900  14.5395  14.5397  14.6433  14.6436
    14.6448  14.6449  14.6760  14.6763  14.7291  14.7299  14.7718  14.7719
    14.7799  14.7807  14.8974  14.8975  14.9195  14.9203  14.9665  14.9666
    14.9704  14.9706  14.9793  14.9800  15.0221  15.0227  15.0937  15.0944
    15.1606  15.1608  15.1842  15.1848  15.2558  15.2566  15.2646  15.2648
    15.2761  15.2762  15.5139  15.5139  15.7363  15.7369  15.7423  15.7431
    15.9680  15.9685  15.9751  15.9757  16.0779  16.0782  16.2089  16.2092
    16.2180  16.2183  16.3626  16.3627  16.4488  16.4494  16.5894  16.5899
    16.6365  16.6366  16.6552  16.6554  16.7622  16.7624  16.7972  16.7975
    16.8820  16.8825  16.9371  16.9373  16.9439  16.9444  16.9444  16.9445
    16.9503  16.9505  16.9685  16.9688  17.0362  17.0364  17.0580  17.0580
    17.0828  17.0829  17.1461  17.1464  17.1474  17.1477  17.1582  17.1586
    17.1658  17.1662  17.1971  17.1973  17.2833  17.2837  17.2852  17.2857
    17.3136  17.3139  17.5079  17.5082  17.6160  17.6164  17.6303  17.6307
    17.6654  17.6656  17.6924  17.6929  17.7046  17.7053  17.8096  17.8104
    18.2653  18.2660  18.3791  18.3797  18.5333  18.5339  18.5458  18.5465
    18.5594  18.5601  18.6786  18.6789  18.7775  18.7782  18.8141  18.8149
    18.8253  18.8255  18.8513  18.8520  18.9598  18.9599  19.0287  19.0293
    19.0338  19.0344  19.0962  19.0964  19.1225  19.1228  19.1404  19.1406
    19.1704  19.1706  19.1733  19.1737  19.1881  19.1884  19.1926  19.1927
    19.2487  19.2494  19.2712  19.2714  19.3043  19.3046  19.5469  19.5476
    19.7465  19.7468  20.1211  20.1217  21.4336  21.4340  21.6047  21.6053
    22.6971  22.6976  22.9130  22.9135  23.4125  23.4131  23.6468  23.6473
    24.3571  24.3572  24.6511  24.6512  25.7414  25.7420  26.5864  26.5865
    26.6258  26.6259  26.7111  26.7115  26.8128  26.8129  26.9321  26.9326
    26.9999  27.0004  28.0985  28.0986  29.8611  29.8612  30.0684  30.0693
    30.1378  30.1387  30.4509  30.4510  31.1936  31.1944  31.2977  31.2978
    31.3300  31.3301

          k = 0.0556-0.5008-0.5008 ( 32864 PWs)   bands (ev):

   -64.7369 -64.7366 -64.7361 -64.7358 -64.7156 -64.7154 -64.7149 -64.7146
   -64.7116 -64.7113 -64.7108 -64.7106 -64.6974 -64.6973 -64.6971 -64.6970
   -64.6970 -64.6969 -64.6968 -64.6967 -64.6967 -64.6965 -64.6963 -64.6963
   -64.6962 -64.6961 -64.6960 -64.6959 -64.6904 -64.6902 -64.6896 -64.6894
   -30.5919 -30.5918 -30.5918 -30.5917 -30.5916 -30.5916 -30.5915 -30.5915
   -30.5654 -30.5654 -30.5652 -30.5651 -30.5648 -30.5647 -30.5645 -30.5645
   -30.5620 -30.5617 -30.5612 -30.5609 -30.5520 -30.5518 -30.5516 -30.5514
   -30.5365 -30.5364 -30.5361 -30.5360 -30.4836 -30.4836 -30.4835 -30.4835
   -30.4161 -30.4161 -30.4161 -30.4161 -30.4161 -30.4161 -30.4161 -30.4160
   -30.4150 -30.4150 -30.4147 -30.4147 -30.4142 -30.4142 -30.4139 -30.4139
   -30.3858 -30.3858 -30.3858 -30.3858 -30.3759 -30.3757 -30.3757 -30.3756
   -30.3755 -30.3754 -30.3752 -30.3751 -30.3750 -30.3749 -30.3748 -30.3747
   -30.3495 -30.3495 -30.3494 -30.3493 -30.3490 -30.3489 -30.3488 -30.3487
   -30.3341 -30.3340 -30.3338 -30.3336 -30.3294 -30.3293 -30.3293 -30.3293
   -30.3205 -30.3205 -30.3204 -30.3204 -30.3185 -30.3183 -30.3180 -30.3179
   -30.3049 -30.3047 -30.3042 -30.3039 -30.2742 -30.2742 -30.2742 -30.2742
    13.7098  13.7104  13.7107  13.7113  14.5794  14.5796  14.5797  14.5798
    14.6962  14.6963  14.6963  14.6963  14.7702  14.7703  14.7704  14.7705
    14.8997  14.8997  14.9001  14.9002  14.9004  14.9005  14.9009  14.9009
    15.0708  15.0709  15.0712  15.0714  15.0715  15.0716  15.0720  15.0721
    15.1127  15.1128  15.1128  15.1128  15.1129  15.1129  15.1129  15.1130
    15.3326  15.3327  15.3328  15.3328  15.8461  15.8461  15.8465  15.8466
    15.8468  15.8468  15.8472  15.8472  16.1596  16.1599  16.1599  16.1600
    16.4044  16.4048  16.4050  16.4054  16.5978  16.5981  16.5984  16.5987
    16.7180  16.7181  16.7183  16.7185  16.7307  16.7308  16.7309  16.7310
    16.9553  16.9556  16.9557  16.9560  16.9836  16.9837  16.9838  16.9838
    16.9838  16.9838  16.9840  16.9840  17.0369  17.0370  17.0370  17.0373
    17.0442  17.0442  17.0445  17.0446  17.1523  17.1524  17.1527  17.1528
    17.2735  17.2736  17.2737  17.2738  17.2739  17.2740  17.2741  17.2742
    17.4382  17.4385  17.4386  17.4388  17.4519  17.4519  17.4520  17.4520
    17.4522  17.4523  17.4524  17.4524  17.7541  17.7543  17.7549  17.7550
    18.4125  18.4127  18.4132  18.4134  18.5036  18.5037  18.5040  18.5042
    18.7016  18.7017  18.7018  18.7019  18.7022  18.7023  18.7024  18.7025
    19.0258  19.0259  19.0263  19.0264  19.0525  19.0526  19.0526  19.0528
    19.0531  19.0533  19.0533  19.0534  19.1671  19.1672  19.1675  19.1676
    19.1997  19.1997  19.1997  19.1998  19.1999  19.1999  19.2000  19.2000
    19.2001  19.2003  19.2003  19.2004  19.2663  19.2665  19.2667  19.2669
    19.8533  19.8535  19.8538  19.8540  22.1484  22.1486  22.1487  22.1488
    22.1490  22.1490  22.1491  22.1493  24.1186  24.1187  24.1187  24.1189
    24.1189  24.1191  24.1191  24.1192  26.2715  26.2719  26.2721  26.2726
    26.6181  26.6181  26.6181  26.6182  26.6183  26.6183  26.6184  26.6184
    27.3722  27.3725  27.3726  27.3727  30.0872  30.0874  30.0881  30.0884
    30.5693  30.5695  30.5695  30.5695  31.1631  31.1632  31.1632  31.1633
    31.7445  31.7446

          k = 0.1669 0.1669 0.1669 ( 32792 PWs)   bands (ev):

   -64.7510 -64.7286 -64.7285 -64.7285 -64.7143 -64.7142 -64.7142 -64.7122
   -64.7120 -64.7120 -64.7081 -64.7045 -64.7040 -64.7039 -64.7038 -64.7037
   -64.7037 -64.7035 -64.7034 -64.7029 -64.6978 -64.6977 -64.6977 -64.6903
   -64.6898 -64.6898 -64.6896 -64.6895 -64.6894 -64.6893 -64.6892 -64.6888
   -30.6322 -30.6322 -30.6322 -30.6179 -30.6099 -30.6099 -30.6099 -30.5567
   -30.5566 -30.5566 -30.5492 -30.5491 -30.5491 -30.5491 -30.5491 -30.5490
   -30.5438 -30.5437 -30.5437 -30.5437 -30.5437 -30.5437 -30.5155 -30.5154
   -30.5154 -30.5008 -30.5007 -30.5007 -30.4860 -30.4860 -30.4860 -30.4859
   -30.4859 -30.4859 -30.4535 -30.4535 -30.4535 -30.4164 -30.4164 -30.4164
   -30.4129 -30.4129 -30.4129 -30.4117 -30.4117 -30.4116 -30.4116 -30.4116
   -30.4116 -30.3987 -30.3987 -30.3987 -30.3955 -30.3955 -30.3955 -30.3955
   -30.3955 -30.3954 -30.3691 -30.3691 -30.3691 -30.3537 -30.3537 -30.3537
   -30.3500 -30.3500 -30.3499 -30.3357 -30.3357 -30.3356 -30.3323 -30.3322
   -30.3322 -30.3262 -30.3261 -30.3261 -30.3261 -30.3261 -30.3260 -30.3226
   -30.3226 -30.3225 -30.3141 -30.3141 -30.3140 -30.3129 -30.3129 -30.3116
   -30.3116 -30.3116 -30.2998 -30.2998 -30.2998 -30.2873 -30.2649 -30.2649
    12.6059  14.2216  14.2217  14.2217  14.2513  14.2642  14.2642  14.2642
    14.3739  14.3739  14.3739  14.5340  14.5340  14.5340  14.7746  14.7747
    14.7747  15.0211  15.0212  15.0212  15.1369  15.1370  15.1370  15.1370
    15.1370  15.1372  15.2105  15.2106  15.2106  15.3541  15.3542  15.3543
    15.3591  15.3591  15.3591  15.3592  15.3592  15.3592  15.6018  15.6018
    15.6018  15.6018  15.6018  15.6019  15.7395  15.7396  15.7396  16.0331
    16.0332  16.0332  16.1257  16.1257  16.1257  16.1257  16.1257  16.1258
    16.1895  16.1896  16.1896  16.2786  16.2786  16.2786  16.2787  16.2787
    16.2788  16.4306  16.4306  16.4306  16.5191  16.5988  16.5988  16.5988
    16.5989  16.5989  16.5989  16.6110  16.6111  16.6111  16.6119  16.6119
    16.6734  16.6735  16.6735  16.6841  16.6841  16.7083  16.7083  16.7083
    17.1027  17.1028  17.1028  17.2740  17.2740  17.2740  17.4076  17.4077
    17.4077  17.4582  17.4583  17.4583  17.5826  17.5826  17.5828  17.6306
    17.6306  17.6306  17.6307  17.6307  17.6308  17.9209  17.9210  17.9211
    17.9668  17.9668  17.9670  18.0448  18.0448  18.0449  18.1219  18.1219
    18.1722  18.1723  18.1723  18.1723  18.1724  18.1724  18.3896  18.3896
    18.3896  18.4863  18.4863  18.4863  18.4864  18.4864  18.4864  18.6039
    18.6040  18.6041  18.6389  18.6389  18.6389  18.9730  18.9730  18.9730
    18.9841  18.9841  18.9842  19.0633  19.0633  19.0633  19.1142  19.1142
    19.1142  19.1577  19.1577  19.3344  19.3344  19.3344  19.3879  19.4822
    19.4822  19.4822  19.4822  19.4822  19.4822  19.5436  19.5436  19.5436
    20.1813  20.1813  20.1813  21.3229  21.3229  21.3229  21.6760  21.6760
    21.6760  21.6760  21.6760  21.6761  22.9185  22.9185  22.9185  23.3184
    23.3184  23.3184  26.4333  26.4333  26.4333  26.4334  26.4334  26.4334
    26.6831  26.6831  26.6831  27.8678  28.2237  28.2237  28.2237  28.2238
    28.2238  28.2239  28.8990  28.8990  28.8990  30.3795  30.3795  30.3795
    30.5231  30.5232  30.5232  30.5232  30.5232  30.5233  30.7228  30.7228
    30.7228  30.7228

          k = 0.1669 0.1669 0.2782 ( 32825 PWs)   bands (ev):

   -64.7491 -64.7337 -64.7274 -64.7273 -64.7176 -64.7175 -64.7137 -64.7114
   -64.7114 -64.7095 -64.7069 -64.7057 -64.7056 -64.7045 -64.7039 -64.7035
   -64.7030 -64.7023 -64.7005 -64.7004 -64.6982 -64.6959 -64.6958 -64.6915
   -64.6907 -64.6907 -64.6903 -64.6902 -64.6901 -64.6897 -64.6893 -64.6888
   -30.6283 -30.6242 -30.6241 -30.6052 -30.6042 -30.6042 -30.6008 -30.5750
   -30.5645 -30.5645 -30.5585 -30.5585 -30.5551 -30.5550 -30.5547 -30.5547
   -30.5492 -30.5492 -30.5441 -30.5440 -30.5426 -30.5425 -30.5320 -30.5266
   -30.5075 -30.5075 -30.4996 -30.4996 -30.4884 -30.4884 -30.4763 -30.4763
   -30.4709 -30.4709 -30.4660 -30.4659 -30.4314 -30.4299 -30.4299 -30.4259
   -30.4258 -30.4210 -30.4210 -30.4079 -30.3981 -30.3981 -30.3970 -30.3969
   -30.3964 -30.3964 -30.3954 -30.3952 -30.3946 -30.3890 -30.3880 -30.3880
   -30.3861 -30.3861 -30.3673 -30.3613 -30.3577 -30.3577 -30.3564 -30.3561
   -30.3560 -30.3467 -30.3463 -30.3462 -30.3432 -30.3432 -30.3386 -30.3386
   -30.3382 -30.3382 -30.3345 -30.3274 -30.3274 -30.3262 -30.3261 -30.3256
   -30.3244 -30.3242 -30.3178 -30.3178 -30.3149 -30.3099 -30.3065 -30.3065
   -30.3027 -30.3008 -30.3008 -30.2988 -30.2961 -30.2960 -30.2690 -30.2664
    12.7476  13.8799  14.2880  14.3077  14.3078  14.3311  14.3460  14.3460
    14.4502  14.4502  14.4873  14.5886  14.6244  14.6244  14.7396  14.8165
    14.8440  14.8441  14.8784  14.8785  14.9730  14.9730  15.0500  15.1131
    15.1131  15.1699  15.1700  15.1877  15.2140  15.2141  15.2739  15.2740
    15.2983  15.2983  15.3136  15.3137  15.3554  15.3554  15.4310  15.4310
    15.6129  15.6130  15.6330  15.6330  15.7907  15.7908  15.9169  15.9529
    15.9530  15.9771  15.9772  16.0189  16.0454  16.0454  16.1362  16.1363
    16.1684  16.1684  16.2585  16.2586  16.2627  16.2628  16.3375  16.3884
    16.3884  16.4530  16.4632  16.5233  16.5234  16.6080  16.6081  16.6083
    16.6083  16.6160  16.6160  16.6313  16.6467  16.7135  16.7136  16.7309
    16.7398  16.7846  16.7846  16.7970  16.8044  16.8927  16.9866  16.9867
    16.9887  16.9887  17.0978  17.0987  17.2050  17.2051  17.2268  17.2777
    17.2777  17.3690  17.3690  17.4190  17.4385  17.4385  17.6916  17.6917
    17.7238  17.7240  17.7660  17.7699  17.7968  17.7968  17.9192  17.9194
    17.9670  17.9672  18.0447  18.0448  18.0485  18.0915  18.0915  18.0920
    18.1225  18.1226  18.1618  18.1654  18.1655  18.1926  18.2709  18.3353
    18.3353  18.4905  18.5331  18.5331  18.6714  18.6715  18.6867  18.6941
    18.6942  18.7040  18.7040  18.7122  18.7122  18.7702  18.7702  18.7968
    18.9088  18.9128  18.9128  19.0149  19.0165  19.0236  19.0236  19.0944
    19.3007  19.3183  19.3183  19.3747  19.3747  19.3770  19.3770  19.3830
    19.3831  19.4809  19.4852  19.4852  19.4865  19.5191  19.5276  19.5276
    19.7881  19.7881  20.1101  21.1886  21.1887  21.3968  21.3968  21.6510
    21.6510  21.9639  22.3070  22.3171  22.3171  23.2783  23.3606  23.3606
    23.9627  23.9627  25.5741  25.5741  25.7979  25.7979  26.5163  26.5988
    26.5989  27.0058  27.0058  27.3463  27.3463  28.0307  28.3961  28.3961
    28.4284  28.4366  28.4368  28.7597  28.7597  29.6282  29.6282  30.0163
    30.0164  30.3217  30.3217  30.6698  30.6698  30.8990  30.8991  31.1170
    31.1170  31.1590

          k = 0.1669 0.1669 0.3895 ( 32857 PWs)   bands (ev):

   -64.7464 -64.7385 -64.7256 -64.7255 -64.7206 -64.7205 -64.7130 -64.7108
   -64.7104 -64.7104 -64.7075 -64.7074 -64.7045 -64.7039 -64.7035 -64.7030
   -64.7021 -64.7011 -64.6989 -64.6975 -64.6974 -64.6943 -64.6941 -64.6941
   -64.6925 -64.6924 -64.6912 -64.6911 -64.6903 -64.6897 -64.6893 -64.6888
   -30.6201 -30.6127 -30.6127 -30.5959 -30.5959 -30.5928 -30.5893 -30.5880
   -30.5816 -30.5816 -30.5725 -30.5725 -30.5573 -30.5573 -30.5541 -30.5541
   -30.5523 -30.5522 -30.5513 -30.5502 -30.5456 -30.5456 -30.5345 -30.5345
   -30.5162 -30.5162 -30.4883 -30.4882 -30.4824 -30.4824 -30.4765 -30.4765
   -30.4651 -30.4651 -30.4562 -30.4562 -30.4464 -30.4464 -30.4396 -30.4396
   -30.4309 -30.4309 -30.4080 -30.4006 -30.3961 -30.3959 -30.3951 -30.3949
   -30.3887 -30.3855 -30.3855 -30.3799 -30.3793 -30.3793 -30.3776 -30.3776
   -30.3748 -30.3748 -30.3717 -30.3649 -30.3649 -30.3647 -30.3630 -30.3527
   -30.3527 -30.3519 -30.3519 -30.3490 -30.3490 -30.3441 -30.3441 -30.3428
   -30.3408 -30.3407 -30.3330 -30.3307 -30.3306 -30.3283 -30.3264 -30.3260
   -30.3253 -30.3249 -30.3246 -30.3246 -30.3209 -30.3182 -30.3071 -30.3025
   -30.3010 -30.3009 -30.2952 -30.2952 -30.2923 -30.2875 -30.2751 -30.2708
    12.9552  13.5364  14.3641  14.4245  14.4277  14.4278  14.4645  14.4645
    14.5635  14.5636  14.6313  14.6325  14.6477  14.6694  14.7256  14.7256
    14.7571  14.7571  14.7894  14.7894  14.8968  14.8968  14.9033  14.9382
    14.9383  14.9941  15.1296  15.1296  15.1641  15.1642  15.2070  15.2071
    15.2764  15.2764  15.3186  15.3187  15.4313  15.4313  15.4622  15.4622
    15.6306  15.6307  15.6916  15.6916  15.7814  15.7815  15.8176  15.8177
    15.8645  15.8645  15.8830  15.8831  16.0522  16.0523  16.0649  16.0850
    16.2191  16.2191  16.2387  16.2876  16.2877  16.3351  16.3351  16.3659
    16.4337  16.4338  16.4451  16.4452  16.5716  16.6164  16.6165  16.6190
    16.6190  16.6314  16.7146  16.7403  16.7404  16.8154  16.8228  16.8761
    16.8762  16.8896  16.8897  16.9288  16.9296  16.9296  16.9308  16.9309
    16.9434  17.0336  17.0676  17.1325  17.1875  17.2442  17.2853  17.2853
    17.3024  17.3024  17.3441  17.3441  17.4088  17.4088  17.7492  17.7492
    17.7587  17.7906  17.8042  17.8044  17.8189  17.8190  17.9166  17.9168
    17.9456  17.9456  17.9489  17.9496  17.9497  18.0452  18.0453  18.0700
    18.0701  18.0981  18.1184  18.1325  18.1325  18.2204  18.2905  18.2905
    18.3869  18.4197  18.4912  18.5296  18.5296  18.6177  18.6177  18.6884
    18.8248  18.8248  18.8391  18.8471  18.8471  18.8745  18.8900  18.8900
    18.8930  18.8930  18.9147  18.9147  18.9212  18.9213  18.9600  19.2095
    19.2230  19.2351  19.2352  19.2358  19.2358  19.2374  19.2374  19.4087
    19.4318  19.4319  19.4905  19.4905  19.5114  19.5114  19.6845  19.8123
    19.8123  20.0031  20.1457  20.7173  20.7173  21.4789  21.4789  21.5860
    21.6105  21.6105  22.5181  23.0379  23.0380  23.1669  23.9097  23.9097
    24.6696  24.6696  24.6868  24.6868  25.1536  25.1536  26.2340  26.2341
    26.5333  27.1326  27.1326  27.3041  27.4782  27.4782  27.9178  27.9178
    28.7382  28.7383  28.8089  28.8089  29.0606  29.2783  29.2783  29.5426
    29.5427  30.1476  30.1476  30.5237  30.6445  30.6445  30.8424  30.8424
    31.0393  31.0393

          k = 0.1669 0.1669-0.5008 ( 32842 PWs)   bands (ev):

   -64.7432 -64.7424 -64.7237 -64.7236 -64.7229 -64.7228 -64.7124 -64.7116
   -64.7095 -64.7094 -64.7087 -64.7086 -64.7045 -64.7039 -64.7035 -64.7030
   -64.7003 -64.6995 -64.6982 -64.6974 -64.6951 -64.6951 -64.6944 -64.6943
   -64.6929 -64.6928 -64.6921 -64.6921 -64.6903 -64.6897 -64.6894 -64.6888
   -30.6084 -30.6081 -30.5987 -30.5984 -30.5979 -30.5976 -30.5856 -30.5855
   -30.5849 -30.5848 -30.5712 -30.5711 -30.5708 -30.5704 -30.5572 -30.5571
   -30.5569 -30.5568 -30.5488 -30.5487 -30.5485 -30.5484 -30.5257 -30.5256
   -30.5252 -30.5252 -30.4844 -30.4844 -30.4841 -30.4841 -30.4644 -30.4644
   -30.4642 -30.4641 -30.4530 -30.4530 -30.4524 -30.4524 -30.4429 -30.4429
   -30.4425 -30.4425 -30.3959 -30.3955 -30.3952 -30.3948 -30.3915 -30.3907
   -30.3855 -30.3853 -30.3813 -30.3805 -30.3747 -30.3746 -30.3739 -30.3738
   -30.3656 -30.3655 -30.3651 -30.3651 -30.3636 -30.3635 -30.3635 -30.3633
   -30.3632 -30.3632 -30.3628 -30.3626 -30.3391 -30.3389 -30.3355 -30.3354
   -30.3350 -30.3350 -30.3338 -30.3338 -30.3331 -30.3330 -30.3312 -30.3306
   -30.3305 -30.3303 -30.3264 -30.3259 -30.3256 -30.3251 -30.3050 -30.3042
   -30.2970 -30.2969 -30.2968 -30.2967 -30.2834 -30.2826 -30.2782 -30.2779
    13.2215  13.2225  14.4792  14.4793  14.5346  14.5354  14.5709  14.5710
    14.5716  14.5717  14.6143  14.6148  14.6150  14.6154  14.7125  14.7125
    14.7133  14.7134  14.7747  14.7755  14.8039  14.8040  14.9275  14.9276
    14.9281  14.9281  15.0479  15.0481  15.0482  15.0483  15.2421  15.2422
    15.2422  15.2423  15.4214  15.4214  15.4221  15.4222  15.6072  15.6072
    15.6073  15.6074  15.6712  15.6713  15.6718  15.6719  15.7790  15.7791
    15.7792  15.7793  15.9552  15.9553  15.9557  15.9557  16.1435  16.1440
    16.2368  16.2374  16.2762  16.2764  16.2769  16.2771  16.3494  16.3494
    16.3497  16.3498  16.6133  16.6138  16.6201  16.6202  16.6207  16.6207
    16.6721  16.6722  16.6722  16.6722  16.7918  16.7919  16.7920  16.7921
    16.8141  16.8143  16.9240  16.9246  16.9321  16.9328  17.0036  17.0039
    17.0040  17.0042  17.0773  17.0776  17.3234  17.3234  17.3240  17.3240
    17.4098  17.4099  17.4101  17.4101  17.4880  17.4883  17.5941  17.5944
    17.8400  17.8408  17.8475  17.8475  17.8479  17.8479  17.8662  17.8663
    17.8668  17.8670  17.9412  17.9413  17.9418  17.9419  18.0181  18.0182
    18.0187  18.0188  18.0601  18.0601  18.0606  18.0606  18.2957  18.2965
    18.4130  18.4137  18.6380  18.6381  18.6959  18.6960  18.7211  18.7211
    18.7218  18.7218  18.7228  18.7231  18.7236  18.7239  19.0708  19.0709
    19.0713  19.0714  19.0796  19.0796  19.0800  19.0800  19.0978  19.0978
    19.0982  19.0982  19.1063  19.1066  19.1130  19.1131  19.1132  19.1132
    19.3152  19.3153  19.4982  19.4988  19.4991  19.4996  19.8603  19.8610
    20.2583  20.2584  20.2585  20.2586  20.8463  20.8469  21.5523  21.5524
    21.5531  21.5531  22.9258  22.9264  23.8323  23.8324  23.8327  23.8328
    24.5170  24.5171  24.5176  24.5177  25.4379  25.4379  25.4381  25.4381
    26.7901  26.7902  27.4800  27.4801  27.4807  27.4808  28.0850  28.0852
    28.0858  28.0859  29.1117  29.1119  29.1125  29.1127  29.7606  29.7608
    29.7667  29.7667  29.7672  29.7672  30.6749  30.6751  30.6757  30.6759
    31.2091  31.2097

          k = 0.1669 0.2782 0.2782 ( 32845 PWs)   bands (ev):

   -64.7473 -64.7324 -64.7323 -64.7262 -64.7213 -64.7169 -64.7168 -64.7113
   -64.7108 -64.7064 -64.7063 -64.7057 -64.7055 -64.7041 -64.7021 -64.7021
   -64.7018 -64.7017 -64.7006 -64.7004 -64.6965 -64.6964 -64.6944 -64.6918
   -64.6916 -64.6913 -64.6912 -64.6909 -64.6908 -64.6902 -64.6900 -64.6893
   -30.6220 -30.6220 -30.6154 -30.5986 -30.5964 -30.5964 -30.5912 -30.5738
   -30.5738 -30.5690 -30.5690 -30.5604 -30.5604 -30.5566 -30.5566 -30.5559
   -30.5559 -30.5540 -30.5540 -30.5533 -30.5515 -30.5515 -30.5308 -30.5308
   -30.5160 -30.5160 -30.5155 -30.4811 -30.4777 -30.4777 -30.4765 -30.4732
   -30.4732 -30.4625 -30.4624 -30.4440 -30.4424 -30.4424 -30.4305 -30.4154
   -30.4154 -30.4122 -30.4122 -30.4108 -30.4108 -30.4038 -30.4037 -30.3928
   -30.3928 -30.3927 -30.3887 -30.3887 -30.3859 -30.3859 -30.3853 -30.3852
   -30.3804 -30.3804 -30.3716 -30.3716 -30.3584 -30.3584 -30.3555 -30.3538
   -30.3538 -30.3490 -30.3470 -30.3448 -30.3447 -30.3433 -30.3417 -30.3417
   -30.3408 -30.3408 -30.3399 -30.3378 -30.3377 -30.3291 -30.3291 -30.3278
   -30.3277 -30.3273 -30.3153 -30.3134 -30.3117 -30.3090 -30.3087 -30.3060
   -30.3060 -30.2976 -30.2976 -30.2944 -30.2944 -30.2903 -30.2722 -30.2672
    12.8849  13.9779  13.9780  14.3041  14.3616  14.4112  14.4119  14.4119
    14.5062  14.5676  14.5676  14.6788  14.6788  14.6849  14.7167  14.7167
    14.7245  14.8089  14.8090  14.8596  14.9882  14.9882  15.0417  15.0417
    15.0594  15.0594  15.1427  15.1428  15.1983  15.1984  15.2029  15.2030
    15.2116  15.2288  15.2288  15.3048  15.3048  15.3921  15.3921  15.4278
    15.4392  15.4392  15.6286  15.6286  15.8687  15.8687  15.8772  15.9338
    15.9462  15.9463  15.9544  15.9544  15.9990  15.9991  16.1296  16.1901
    16.1902  16.2783  16.2783  16.3126  16.3126  16.3665  16.4305  16.4307
    16.4308  16.4602  16.4603  16.5579  16.5579  16.5760  16.5760  16.6482
    16.6904  16.7008  16.7555  16.7556  16.7621  16.7820  16.8130  16.8452
    16.8453  16.8553  16.8730  16.8731  16.8921  16.8921  16.9206  16.9670
    16.9670  17.0178  17.0178  17.0626  17.1073  17.1074  17.2037  17.2037
    17.2194  17.2823  17.4661  17.4662  17.5056  17.5057  17.5305  17.5306
    17.5962  17.5963  17.7864  17.8053  17.8197  17.8240  17.8404  17.8404
    17.8691  17.8692  17.9063  17.9063  18.0348  18.0790  18.0790  18.1546
    18.1547  18.1554  18.1870  18.1871  18.2281  18.2661  18.2662  18.3288
[...]
    23.6633  23.6634  23.6635  23.6635  24.8256  24.8260  24.8263  24.8266
    27.2738  27.2740  27.2740  27.2742  27.2743  27.2744  27.2745  27.2746
    27.7398  27.7401  27.7402  27.7402  29.4435  29.4437  29.4438  29.4438
    29.9916  29.9917  29.9918  29.9919  29.9922  29.9923  29.9924  29.9925
    31.6741  31.6744

          k = 0.3895 0.3895 0.3895 ( 32840 PWs)   bands (ev):

   -64.7381 -64.7315 -64.7314 -64.7314 -64.7258 -64.7258 -64.7257 -64.7211
   -64.7007 -64.7006 -64.7005 -64.7002 -64.6997 -64.6996 -64.6995 -64.6994
   -64.6993 -64.6992 -64.6991 -64.6986 -64.6950 -64.6949 -64.6948 -64.6946
   -64.6941 -64.6940 -64.6938 -64.6938 -64.6936 -64.6936 -64.6935 -64.6930
   -30.5947 -30.5947 -30.5947 -30.5815 -30.5814 -30.5814 -30.5781 -30.5780
   -30.5780 -30.5752 -30.5752 -30.5751 -30.5751 -30.5751 -30.5750 -30.5742
   -30.5742 -30.5742 -30.5742 -30.5741 -30.5741 -30.5634 -30.5634 -30.5634
   -30.5191 -30.4766 -30.4766 -30.4766 -30.4401 -30.4401 -30.4401 -30.4401
   -30.4401 -30.4401 -30.4367 -30.4367 -30.4367 -30.4333 -30.4333 -30.4333
   -30.4283 -30.4283 -30.4283 -30.3999 -30.3999 -30.3999 -30.3999 -30.3999
   -30.3999 -30.3933 -30.3933 -30.3933 -30.3885 -30.3885 -30.3885 -30.3884
   -30.3758 -30.3758 -30.3757 -30.3686 -30.3686 -30.3686 -30.3685 -30.3685
   -30.3685 -30.3614 -30.3614 -30.3614 -30.3557 -30.3557 -30.3557 -30.3535
   -30.3534 -30.3534 -30.3534 -30.3534 -30.3534 -30.3456 -30.3456 -30.3456
   -30.3050 -30.3050 -30.3050 -30.2984 -30.2984 -30.2940 -30.2940 -30.2939
   -30.2883 -30.2883 -30.2882 -30.2865 -30.2864 -30.2864 -30.2793 -30.2793
    13.5452  13.9737  13.9738  13.9738  14.2298  14.2298  14.2299  14.2693
    14.7031  14.7031  14.7031  14.8324  14.8325  14.8326  14.8522  14.8522
    14.8522  14.9155  14.9156  14.9156  14.9156  14.9156  14.9157  14.9447
    14.9447  14.9447  14.9448  14.9448  14.9448  14.9785  14.9786  14.9786
    15.1673  15.1673  15.1673  15.4492  15.4493  15.4493  15.5158  15.5158
    15.5159  15.5159  15.5159  15.5160  15.7856  15.7857  15.7857  15.7988
    15.7988  15.7988  15.7989  15.7989  15.7990  16.0131  16.0131  16.0131
    16.3336  16.3337  16.3337  16.3719  16.5665  16.5666  16.5666  16.8055
    16.8055  16.8262  16.8262  16.8262  16.8263  16.8263  16.8263  16.8868
    16.8868  16.8955  16.8956  16.8956  16.9193  16.9193  16.9193  16.9200
    16.9200  16.9200  16.9623  16.9623  16.9624  16.9896  16.9897  16.9897
    17.0602  17.0602  17.0602  17.0630  17.0630  17.0630  17.0631  17.0631
    17.0631  17.1670  17.1671  17.1671  17.2151  17.3428  17.3428  17.3429
    17.6018  17.6018  17.6018  17.6986  17.6986  17.6988  17.6998  17.6998
    17.6998  17.6999  17.6999  17.7000  17.9070  17.9070  17.9072  18.0477
    18.0478  18.0478  18.0479  18.0479  18.0479  18.1059  18.1060  18.1060
    18.1332  18.1333  18.1724  18.1725  18.1726  18.2901  18.2901  18.2902
    18.4322  18.4322  18.4323  18.5899  18.5899  18.7210  18.7211  18.7211
    19.2719  19.2719  19.2719  19.3118  19.3118  19.3118  19.3118  19.3119
    19.3119  19.3479  19.3479  19.3479  19.3479  19.3479  19.3479  19.3787
    19.3787  19.3787  19.3862  19.3862  19.3863  19.4451  19.4451  19.4451
    21.4892  21.4893  21.4893  22.2507  22.2507  22.2507  22.2508  22.2508
    22.2509  22.6429  22.6429  22.6429  23.1396  23.1396  23.1396  24.0096
    24.0096  24.0096  24.0097  24.0097  24.0098  24.4737  24.4738  24.4738
    26.9013  26.9014  26.9014  27.6286  27.6286  27.6286  28.1432  28.1432
    28.1432  28.1434  28.1434  28.1434  28.9995  28.9995  28.9996  28.9997
    28.9997  28.9997  29.4781  29.4781  29.4781  30.3966  30.3967  30.3967
    31.6536  32.5272

          k = 0.3895 0.3895-0.5008 ( 32818 PWs)   bands (ev):

   -64.7354 -64.7346 -64.7293 -64.7292 -64.7285 -64.7284 -64.7240 -64.7233
   -64.7005 -64.7005 -64.7001 -64.6998 -64.6996 -64.6996 -64.6992 -64.6987
   -64.6974 -64.6973 -64.6967 -64.6967 -64.6966 -64.6965 -64.6960 -64.6959
   -64.6947 -64.6947 -64.6945 -64.6940 -64.6939 -64.6938 -64.6936 -64.6930
   -30.5901 -30.5901 -30.5859 -30.5854 -30.5851 -30.5847 -30.5782 -30.5781
   -30.5777 -30.5776 -30.5767 -30.5765 -30.5765 -30.5763 -30.5762 -30.5761
   -30.5759 -30.5755 -30.5722 -30.5718 -30.5696 -30.5696 -30.5691 -30.5691
   -30.4981 -30.4978 -30.4549 -30.4549 -30.4546 -30.4546 -30.4394 -30.4394
   -30.4392 -30.4392 -30.4348 -30.4346 -30.4345 -30.4343 -30.4202 -30.4202
   -30.4199 -30.4199 -30.4122 -30.4122 -30.4119 -30.4114 -30.4104 -30.4102
   -30.3962 -30.3962 -30.3957 -30.3957 -30.3935 -30.3935 -30.3934 -30.3933
   -30.3720 -30.3719 -30.3715 -30.3714 -30.3696 -30.3688 -30.3622 -30.3621
   -30.3619 -30.3618 -30.3617 -30.3617 -30.3614 -30.3614 -30.3576 -30.3575
   -30.3574 -30.3573 -30.3514 -30.3507 -30.3499 -30.3498 -30.3497 -30.3496
   -30.3003 -30.2999 -30.2980 -30.2980 -30.2975 -30.2975 -30.2932 -30.2925
   -30.2868 -30.2868 -30.2868 -30.2867 -30.2864 -30.2856 -30.2813 -30.2811
    13.7443  13.7452  14.0938  14.0939  14.0945  14.0946  14.2411  14.2415
    14.7718  14.7725  14.7936  14.7937  14.7937  14.7937  14.8776  14.8777
    14.8777  14.8778  14.8897  14.8899  14.8902  14.8904  14.9281  14.9287
    14.9365  14.9366  14.9367  14.9368  14.9412  14.9413  14.9419  14.9419
    15.2929  15.2937  15.3420  15.3420  15.3422  15.3422  15.6327  15.6328
    15.6330  15.6331  15.6388  15.6390  15.6396  15.6397  15.6601  15.6602
    15.6605  15.6605  15.8830  15.8836  15.9233  15.9235  15.9240  15.9242
    16.3693  16.3695  16.4622  16.4623  16.4624  16.4625  16.8076  16.8077
    16.8484  16.8485  16.9003  16.9003  16.9003  16.9004  16.9074  16.9075
    16.9144  16.9149  16.9308  16.9309  16.9310  16.9311  16.9330  16.9330
    16.9334  16.9334  16.9349  16.9354  16.9402  16.9402  16.9407  16.9407
    16.9876  16.9877  16.9877  16.9877  17.0157  17.0160  17.0305  17.0306
    17.0308  17.0309  17.3389  17.3389  17.3390  17.3391  17.3903  17.3909
    17.4976  17.4976  17.4980  17.4980  17.5161  17.5164  17.7854  17.7855
    17.7859  17.7861  17.8543  17.8545  17.8547  17.8549  17.8773  17.8773
    17.8776  17.8776  18.0858  18.0864  18.0999  18.1002  18.1574  18.1575
    18.1579  18.1580  18.1581  18.1582  18.1586  18.1590  18.2748  18.2753
    18.3826  18.3827  18.5253  18.5254  18.5257  18.5258  18.6344  18.6351
    19.3249  19.3249  19.3250  19.3251  19.3429  19.3431  19.3472  19.3472
    19.3475  19.3475  19.3728  19.3728  19.3733  19.3733  19.3751  19.3753
    19.3754  19.3756  19.4071  19.4075  19.4077  19.4080  19.4318  19.4320
    21.8482  21.8483  21.8487  21.8488  22.2994  22.2999  22.4350  22.4352
    22.4357  22.4359  23.1092  23.1093  23.1096  23.1097  23.5513  23.5514
    23.5613  23.5615  23.5619  23.5621  24.2674  24.2675  24.2681  24.2682
    27.2217  27.2223  27.4402  27.4402  27.4403  27.4403  28.2637  28.2638
    28.2643  28.2644  28.5392  28.5394  28.5400  28.5402  28.7796  28.7798
    28.7801  28.7802  29.6692  29.6692  29.6693  29.6693  29.9048  29.9056
    32.3541  32.3541

          k = 0.3895-0.5008-0.5008 ( 32820 PWs)   bands (ev):

   -64.7327 -64.7325 -64.7320 -64.7317 -64.7270 -64.7267 -64.7262 -64.7259
   -64.7003 -64.7001 -64.6995 -64.6993 -64.6974 -64.6973 -64.6971 -64.6970
   -64.6970 -64.6969 -64.6968 -64.6967 -64.6966 -64.6965 -64.6963 -64.6963
   -64.6962 -64.6961 -64.6960 -64.6959 -64.6945 -64.6942 -64.6937 -64.6934
   -30.5837 -30.5837 -30.5836 -30.5835 -30.5834 -30.5833 -30.5833 -30.5832
   -30.5778 -30.5776 -30.5773 -30.5773 -30.5771 -30.5771 -30.5767 -30.5765
   -30.5745 -30.5745 -30.5744 -30.5743 -30.5741 -30.5739 -30.5739 -30.5738
   -30.4765 -30.4764 -30.4762 -30.4761 -30.4378 -30.4377 -30.4375 -30.4375
   -30.4323 -30.4322 -30.4321 -30.4320 -30.4163 -30.4163 -30.4162 -30.4162
   -30.4161 -30.4161 -30.4160 -30.4160 -30.4160 -30.4160 -30.4159 -30.4159
   -30.4156 -30.4156 -30.4155 -30.4155 -30.3943 -30.3942 -30.3940 -30.3938
   -30.3665 -30.3665 -30.3664 -30.3664 -30.3657 -30.3656 -30.3654 -30.3653
   -30.3652 -30.3650 -30.3649 -30.3649 -30.3567 -30.3567 -30.3565 -30.3564
   -30.3563 -30.3561 -30.3560 -30.3559 -30.3540 -30.3539 -30.3539 -30.3539
   -30.2958 -30.2958 -30.2958 -30.2958 -30.2912 -30.2911 -30.2908 -30.2907
   -30.2906 -30.2906 -30.2902 -30.2900 -30.2832 -30.2832 -30.2832 -30.2831
    13.9080  13.9085  13.9088  13.9093  14.1605  14.1608  14.1611  14.1614
    14.8427  14.8427  14.8429  14.8429  14.8433  14.8433  14.8434  14.8435
    14.8512  14.8512  14.8513  14.8513  14.8744  14.8745  14.8746  14.8747
    14.9262  14.9263  14.9263  14.9265  14.9266  14.9268  14.9269  14.9269
    15.4703  15.4704  15.4704  15.4706  15.4709  15.4711  15.4711  15.4712
    15.5073  15.5075  15.5075  15.5077  15.7746  15.7746  15.7749  15.7751
    15.7751  15.7753  15.7756  15.7756  15.7961  15.7964  15.7966  15.7969
    16.4317  16.4319  16.4319  16.4320  16.6804  16.6805  16.6806  16.6807
    16.8725  16.8726  16.8727  16.8728  16.8840  16.8841  16.8843  16.8844
    16.9073  16.9075  16.9076  16.9078  16.9103  16.9104  16.9105  16.9107
    16.9513  16.9514  16.9514  16.9515  16.9736  16.9737  16.9737  16.9738
    16.9739  16.9740  16.9740  16.9742  17.1646  17.1646  17.1648  17.1649
    17.1649  17.1650  17.1651  17.1653  17.1962  17.1964  17.1965  17.1967
    17.6127  17.6128  17.6131  17.6132  17.6736  17.6737  17.6738  17.6738
    17.6740  17.6740  17.6741  17.6741  17.9733  17.9734  17.9735  17.9736
    17.9737  17.9739  17.9739  17.9740  17.9846  17.9847  17.9851  17.9852
    18.1260  18.1262  18.1266  18.1267  18.3250  18.3251  18.3254  18.3255
    18.3562  18.3563  18.3566  18.3568  18.4958  18.4959  18.4963  18.4964
    19.3679  19.3680  19.3680  19.3680  19.3681  19.3681  19.3682  19.3682
    19.3804  19.3805  19.3806  19.3807  19.4038  19.4039  19.4041  19.4042
    19.4074  19.4074  19.4074  19.4076  19.4076  19.4077  19.4078  19.4078
    22.1200  22.1203  22.1206  22.1209  22.6878  22.6879  22.6880  22.6881
    22.6883  22.6884  22.6885  22.6886  23.3333  23.3333  23.3334  23.3336
    23.3337  23.3339  23.3340  23.3340  23.9103  23.9106  23.9109  23.9113
    27.8190  27.8192  27.8192  27.8194  27.8195  27.8197  27.8197  27.8199
    28.0625  28.0627  28.0628  28.0629  28.9291  28.9293  28.9294  28.9294
    29.1918  29.1918  29.1920  29.1921  29.1923  29.1924  29.1926  29.1927
    32.7438  32.7445

          k =-0.5008-0.5008-0.5008 ( 32752 PWs)   bands (ev):

   -64.7303 -64.7300 -64.7299 -64.7298 -64.7295 -64.7292 -64.7292 -64.7290
   -64.6977 -64.6975 -64.6974 -64.6973 -64.6972 -64.6971 -64.6970 -64.6969
   -64.6969 -64.6968 -64.6968 -64.6967 -64.6966 -64.6965 -64.6964 -64.6964
   -64.6963 -64.6962 -64.6961 -64.6960 -64.6960 -64.6959 -64.6958 -64.6956
   -30.5796 -30.5795 -30.5795 -30.5794 -30.5793 -30.5792 -30.5791 -30.5791
   -30.5790 -30.5790 -30.5790 -30.5790 -30.5788 -30.5788 -30.5788 -30.5788
   -30.5787 -30.5787 -30.5786 -30.5785 -30.5783 -30.5783 -30.5782 -30.5782
   -30.4542 -30.4542 -30.4541 -30.4541 -30.4540 -30.4539 -30.4539 -30.4538
   -30.4163 -30.4163 -30.4163 -30.4162 -30.4162 -30.4162 -30.4161 -30.4161
   -30.4161 -30.4161 -30.4160 -30.4160 -30.4160 -30.4160 -30.4159 -30.4159
   -30.4159 -30.4159 -30.4158 -30.4158 -30.4158 -30.4157 -30.4157 -30.4156
   -30.3611 -30.3611 -30.3610 -30.3610 -30.3610 -30.3609 -30.3609 -30.3609
   -30.3608 -30.3608 -30.3607 -30.3607 -30.3606 -30.3606 -30.3604 -30.3604
   -30.3604 -30.3604 -30.3603 -30.3603 -30.3602 -30.3602 -30.3602 -30.3602
   -30.2893 -30.2893 -30.2893 -30.2892 -30.2892 -30.2890 -30.2890 -30.2889
   -30.2888 -30.2887 -30.2887 -30.2886 -30.2885 -30.2885 -30.2885 -30.2884
    14.0262  14.0267  14.0267  14.0269  14.0270  14.0274  14.0274  14.0277
    14.8729  14.8730  14.8730  14.8730  14.8731  14.8731  14.8731  14.8732
    14.8732  14.8732  14.8733  14.8733  14.8734  14.8735  14.8735  14.8736
    14.8737  14.8737  14.8737  14.8737  14.8737  14.8737  14.8738  14.8738
    15.6339  15.6340  15.6342  15.6343  15.6343  15.6343  15.6343  15.6344
    15.6344  15.6345  15.6346  15.6346  15.6346  15.6347  15.6347  15.6348
    15.6349  15.6350  15.6350  15.6351  15.6351  15.6352  15.6352  15.6352
    16.5741  16.5743  16.5743  16.5743  16.5743  16.5744  16.5744  16.5744
    16.8852  16.8853  16.8853  16.8853  16.8854  16.8854  16.8854  16.8855
    16.8856  16.8856  16.8857  16.8857  16.8858  16.8858  16.8858  16.8859
    17.0717  17.0718  17.0718  17.0719  17.0719  17.0719  17.0720  17.0720
    17.0721  17.0721  17.0721  17.0721  17.0722  17.0722  17.0722  17.0722
    17.0723  17.0723  17.0723  17.0724  17.0724  17.0724  17.0724  17.0726
    17.7966  17.7966  17.7967  17.7967  17.7968  17.7969  17.7969  17.7969
    17.7970  17.7970  17.7971  17.7971  17.7971  17.7971  17.7972  17.7972
    17.7973  17.7974  17.7974  17.7974  17.7974  17.7974  17.7975  17.7977
    18.3071  18.3072  18.3073  18.3073  18.3073  18.3074  18.3074  18.3075
    18.3076  18.3077  18.3077  18.3078  18.3078  18.3079  18.3080  18.3080
    19.4096  19.4096  19.4096  19.4097  19.4097  19.4098  19.4098  19.4099
    19.4099  19.4099  19.4099  19.4099  19.4100  19.4100  19.4100  19.4101
    19.4101  19.4101  19.4102  19.4102  19.4103  19.4103  19.4103  19.4104
    22.9977  22.9978  22.9979  22.9979  22.9981  22.9981  22.9982  22.9982
    22.9982  22.9983  22.9983  22.9983  22.9984  22.9985  22.9985  22.9985
    22.9986  22.9987  22.9987  22.9988  22.9989  22.9989  22.9990  22.9990
    28.4634  28.4635  28.4635  28.4636  28.4636  28.4636  28.4636  28.4636
    28.4637  28.4638  28.4638  28.4640  28.4642  28.4642  28.4642  28.4643
    28.4643  28.4643  28.4644  28.4644  28.4645  28.4645  28.4646  28.4646
    33.7047  33.7060

     the Fermi energy is    19.4296 ev

!    total energy              =  -16384.95580224 Ry
     Harris-Foulkes estimate   =  -16384.95579063 Ry
     estimated scf accuracy    <       0.00000089 Ry

     total all-electron energy =   -322945.809509 Ry

     The total energy is the sum of the following terms:

     one-electron contribution =   -2467.79446037 Ry
     hartree contribution      =    1654.27620993 Ry
     xc contribution           =    -986.64198776 Ry
     ewald contribution        =   -6417.39488888 Ry
     one-center paw contrib.   =   -8167.43187708 Ry
     smearing contrib. (-TS)   =       0.03120193 Ry

     convergence has been achieved in  10 iterations

     Forces acting on atoms (cartesian axes, Ry/au):

     atom    1 type  1   force =     0.00000000    0.00000000    0.00000000
     atom    2 type  1   force =     0.00005870    0.00005870    0.00000000
     atom    3 type  1   force =     0.00005870    0.00000000    0.00005870
     atom    4 type  1   force =     0.00000000    0.00005870    0.00005870
     atom    5 type  1   force =     0.00000000    0.00000000    0.00000000
     atom    6 type  1   force =     0.00012825    0.00012825    0.00000000
     atom    7 type  1   force =     0.00005870    0.00000000   -0.00005870
     atom    8 type  1   force =     0.00000000    0.00005870   -0.00005870
     atom    9 type  1   force =     0.00000000    0.00000000    0.00000000
     atom   10 type  1   force =     0.00005870   -0.00005870   -0.00000000
     atom   11 type  1   force =     0.00012825    0.00000000    0.00012825
     atom   12 type  1   force =     0.00000000   -0.00005870    0.00005870
     atom   13 type  1   force =     0.00000000    0.00000000    0.00000000
     atom   14 type  1   force =     0.00012825   -0.00012825   -0.00000000
     atom   15 type  1   force =     0.00012825   -0.00000000   -0.00012825
     atom   16 type  1   force =     0.00000000   -0.00005870   -0.00005870
     atom   17 type  1   force =     0.00000000    0.00000000   -0.00000000
     atom   18 type  1   force =    -0.00005870    0.00005870   -0.00000000
     atom   19 type  1   force =    -0.00005870   -0.00000000    0.00005870
     atom   20 type  1   force =    -0.00000000    0.00012825    0.00012825
     atom   21 type  1   force =     0.00000000    0.00000000    0.00000000
     atom   22 type  1   force =    -0.00012825    0.00012825   -0.00000000
     atom   23 type  1   force =    -0.00005870    0.00000000   -0.00005870
     atom   24 type  1   force =     0.00000000    0.00012825   -0.00012825
     atom   25 type  1   force =     0.00000000    0.00000000    0.00000000
     atom   26 type  1   force =    -0.00005870   -0.00005870    0.00000000
     atom   27 type  1   force =    -0.00012825   -0.00000000    0.00012825
     atom   28 type  1   force =    -0.00000000   -0.00012825    0.00012825
     atom   29 type  1   force =     0.00000000    0.00000000    0.00000000
     atom   30 type  1   force =    -0.00012825   -0.00012825    0.00000000
     atom   31 type  1   force =    -0.00012825    0.00000000   -0.00012825
     atom   32 type  1   force =    -0.00000000   -0.00012825   -0.00012825

     Total force =     0.000691     Total SCF correction =     0.005776
     SCF correction compared to forces is large: reduce conv_thr to get better values


     Computing stress (Cartesian axis) and pressure

          total   stress  (Ry/bohr**3)                   (kbar)     P=    9.88
   0.00006718   0.00000000   0.00000000          9.88      0.00      0.00
   0.00000000   0.00006718   0.00000000          0.00      9.88      0.00
   0.00000000   0.00000000   0.00006718          0.00      0.00      9.88


     Writing output data file DrvxAtvSfmjgVSNk.save/
 
     init_run     :     19.46s CPU     21.31s WALL (       1 calls)
     electrons    :    898.28s CPU    946.72s WALL (       1 calls)
     forces       :      8.89s CPU      9.36s WALL (       1 calls)
     stress       :     86.71s CPU     87.24s WALL (       1 calls)

     Called by init_run:
     wfcinit      :     18.85s CPU     20.62s WALL (       1 calls)
     potinit      :      0.30s CPU      0.32s WALL (       1 calls)
     hinit0       :      0.11s CPU      0.14s WALL (       1 calls)

     Called by electrons:
     c_bands      :    819.18s CPU    858.87s WALL (      11 calls)
     sum_band     :     75.32s CPU     83.65s WALL (      11 calls)
     v_of_rho     :      0.32s CPU      0.34s WALL (      11 calls)
     newd         :      0.75s CPU      1.02s WALL (      11 calls)
     PAW_pot      :      2.92s CPU      2.99s WALL (      11 calls)
     mix_rho      :      0.08s CPU      0.09s WALL (      11 calls)

     Called by c_bands:
     init_us_2    :      4.75s CPU      4.79s WALL (     875 calls)
     cegterg      :    793.47s CPU    832.85s WALL (     385 calls)

     Called by sum_band:
     sum_band:bec :      0.60s CPU      0.61s WALL (     385 calls)
     addusdens    :      0.79s CPU      1.07s WALL (      11 calls)

     Called by *egterg:
     h_psi        :    309.09s CPU    343.34s WALL (    1202 calls)
     s_psi        :     37.65s CPU     37.90s WALL (    1202 calls)
     g_psi        :      1.13s CPU      1.14s WALL (     782 calls)
     cdiaghg      :    322.56s CPU    324.27s WALL (    1132 calls)

     Called by h_psi:
     h_psi:pot    :    305.82s CPU    339.89s WALL (    1202 calls)
     h_psi:calbec :     39.59s CPU     41.64s WALL (    1202 calls)
     vloc_psi     :    228.88s CPU    260.61s WALL (    1202 calls)
     add_vuspsi   :     37.34s CPU     37.64s WALL (    1202 calls)

     General routines
     calbec       :     65.76s CPU     69.15s WALL (    1762 calls)
     fft          :      0.30s CPU      0.34s WALL (     168 calls)
     ffts         :      0.02s CPU      0.03s WALL (      22 calls)
     fftw         :    264.32s CPU    300.94s WALL (  746848 calls)
     interpolate  :      0.04s CPU      0.04s WALL (      11 calls)
 
     Parallel routines
     fft_scatt_xy :     21.55s CPU     24.12s WALL (  747038 calls)
     fft_scatt_yz :    173.78s CPU    199.77s WALL (  747038 calls)
 
     PWSCF        : 16m57.01s CPU    18m26.47s WALL

 
   This run was terminated on:   8:44:24  11Nov2020            

=------------------------------------------------------------------------------=
   JOB DONE.
=------------------------------------------------------------------------------=
