
     Program PWSCF v.6.3 starts on  5Jul2020 at  9:53:48 

     This program is part of the open-source Quantum ESPRESSO suite
     for quantum simulation of materials; please cite
         "P. Giannozzi et al., J. Phys.:Condens. Matter 21 395502 (2009);
         "P. Giannozzi et al., J. Phys.:Condens. Matter 29 465901 (2017);
          URL http://www.quantum-espresso.org", 
     in publications or presentations arising from this work. More details at
     http://www.quantum-espresso.org/quote

     Parallel version (MPI & OpenMP), running on      20 processor cores
     Number of MPI processes:                20
     Threads/MPI process:                     1

     MPI processes distributed on     1 nodes
     R & G space division:  proc/nbgrp/npool/nimage =      20
     Reading input from wd/eos/eos_015.in
Warning: card &IONS ignored
Warning: card ION_DYNAMICS = 'BFGS', ignored
Warning: card / ignored
Warning: card &CELL ignored
Warning: card CELL_DYNAMICS = 'BFGS', ignored
Warning: card CELL_FACTOR = 2.0, ignored
Warning: card PRESS = 0.0, ignored
Warning: card / ignored

     Current dimensions of program PWSCF are:
     Max number of different atomic species (ntypx) = 10
     Max number of k-points (npk) =  40000
     Max angular momentum in pseudopotentials (lmaxx) =  3
               file Fe.pbe-spn-kjpaw_psl.1.0.0.UPF: wavefunction(s)  3P 3D renormalized
               file Fe.pbe-spn-kjpaw_psl.1.0.0.UPF: wavefunction(s)  3P 3D renormalized
               file Fe.pbe-spn-kjpaw_psl.1.0.0.UPF: wavefunction(s)  3P 3D renormalized
               file Fe.pbe-spn-kjpaw_psl.1.0.0.UPF: wavefunction(s)  3P 3D renormalized

     Subspace diagonalization in iterative solution of the eigenvalue problem:
     a serial algorithm will be used

     Found symmetry operation: I + (  0.0000  0.0000 -0.5000)
     This is a supercell, fractional translations are disabled
 
     Parallelization info
     --------------------
     sticks:   dense  smooth     PW     G-vecs:    dense   smooth      PW
     Min         314     208     56                18250     9794    1406
     Max         315     209     57                18253     9796    1409
     Sum        6289    4161   1135               365023   195907   28155
 


     bravais-lattice index     =            0
     lattice parameter (alat)  =      12.9382  a.u.
     unit-cell volume          =    2423.5437 (a.u.)^3
     number of atoms/cell      =           32
     number of atomic types    =            4
     number of electrons       =       512.00
     number of Kohn-Sham states=          307
     kinetic-energy cutoff     =      71.0000  Ry
     charge density cutoff     =     430.0000  Ry
     convergence threshold     =      1.0E-06
     mixing beta               =       0.1000
     number of iterations used =           10  plain     mixing
     Exchange-correlation      = SLA PW PBX PBC ( 1  4  3  4 0 0)

     celldm(1)=  12.938187  celldm(2)=   0.000000  celldm(3)=   0.000000
     celldm(4)=   0.000000  celldm(5)=   0.000000  celldm(6)=   0.000000

     crystal axes: (cart. coord. in units of alat)
               a(1) = (   1.020000   0.000000   0.000000 )  
               a(2) = (   0.000000   1.075563   0.000000 )  
               a(3) = (   0.000000   0.000000   1.019987 )  

     reciprocal axes: (cart. coord. in units 2 pi/alat)
               b(1) = (  0.980392  0.000000  0.000000 )  
               b(2) = (  0.000000  0.929745  0.000000 )  
               b(3) = (  0.000000  0.000000  0.980405 )  


     PseudoPot. # 1 for Fe read from file:
     /rds/homes/b/bxp912/pp/Fe.pbe-spn-kjpaw_psl.1.0.0.UPF
     MD5 check sum: 42f43b795421b414b0dc916aa790dbcb
     Pseudo is Projector augmented-wave + core cor, Zval = 16.0
     Generated using "atomic" code by A. Dal Corso v.6.3
     Shape of augmentation charge: PSQ
     Using radial grid of 1191 points,  6 beta functions with: 
                l(1) =   0
                l(2) =   0
                l(3) =   1
                l(4) =   1
                l(5) =   2
                l(6) =   2
     Q(r) pseudized with 0 coefficients 


     PseudoPot. # 2 for Fe read from file:
     /rds/homes/b/bxp912/pp/Fe.pbe-spn-kjpaw_psl.1.0.0.UPF
     MD5 check sum: 42f43b795421b414b0dc916aa790dbcb
     Pseudo is Projector augmented-wave + core cor, Zval = 16.0
     Generated using "atomic" code by A. Dal Corso v.6.3
     Shape of augmentation charge: PSQ
     Using radial grid of 1191 points,  6 beta functions with: 
                l(1) =   0
                l(2) =   0
                l(3) =   1
                l(4) =   1
                l(5) =   2
                l(6) =   2
     Q(r) pseudized with 0 coefficients 


     PseudoPot. # 3 for Fe read from file:
     /rds/homes/b/bxp912/pp/Fe.pbe-spn-kjpaw_psl.1.0.0.UPF
     MD5 check sum: 42f43b795421b414b0dc916aa790dbcb
     Pseudo is Projector augmented-wave + core cor, Zval = 16.0
     Generated using "atomic" code by A. Dal Corso v.6.3
     Shape of augmentation charge: PSQ
     Using radial grid of 1191 points,  6 beta functions with: 
                l(1) =   0
                l(2) =   0
                l(3) =   1
                l(4) =   1
                l(5) =   2
                l(6) =   2
     Q(r) pseudized with 0 coefficients 


     PseudoPot. # 4 for Fe read from file:
     /rds/homes/b/bxp912/pp/Fe.pbe-spn-kjpaw_psl.1.0.0.UPF
     MD5 check sum: 42f43b795421b414b0dc916aa790dbcb
     Pseudo is Projector augmented-wave + core cor, Zval = 16.0
     Generated using "atomic" code by A. Dal Corso v.6.3
     Shape of augmentation charge: PSQ
     Using radial grid of 1191 points,  6 beta functions with: 
                l(1) =   0
                l(2) =   0
                l(3) =   1
                l(4) =   1
                l(5) =   2
                l(6) =   2
     Q(r) pseudized with 0 coefficients 


     atomic species   valence    mass     pseudopotential
        Fe1           16.00    55.84500     Fe( 1.00)
        Fe2           16.00    55.84500     Fe( 1.00)
        Fe3           16.00    55.84500     Fe( 1.00)
        Fe4           16.00    55.84500     Fe( 1.00)

     Starting magnetic structure 
     atomic species   magnetization
        Fe1          0.100
        Fe2         -0.100
        Fe3          0.100
        Fe4         -0.100

      8 Sym. Ops., with inversion, found



   Cartesian axes

     site n.     atom                  positions (alat units)
         1           Fe1 tau(   1) = (   0.0000000   0.0000000   0.0000000  )
         2           Fe2 tau(   2) = (   0.2549968   0.2688935   0.0000000  )
         3           Fe3 tau(   3) = (   0.2549981   0.0000000   0.2549946  )
         4           Fe4 tau(   4) = (   0.0000000   0.2688921   0.2550008  )
         5           Fe1 tau(   5) = (   0.0000000   0.0000000   0.5099934  )
         6           Fe2 tau(   6) = (   0.2549996   0.2688964   0.5099934  )
         7           Fe3 tau(   7) = (   0.2549981   0.0000000   0.7649911  )
         8           Fe4 tau(   8) = (   0.0000000   0.2688921   0.7649849  )
         9           Fe1 tau(   9) = (   0.0000000   0.5377817   0.0000000  )
        10           Fe2 tau(  10) = (   0.2549968   0.8066700   0.0000000  )
        11           Fe3 tau(  11) = (   0.2550004   0.5377817   0.2549987  )
        12           Fe4 tau(  12) = (   0.0000000   0.8066714   0.2550008  )
        13           Fe1 tau(  13) = (   0.0000000   0.5377817   0.5099934  )
        14           Fe2 tau(  14) = (   0.2549996   0.8066671   0.5099934  )
        15           Fe3 tau(  15) = (   0.2550004   0.5377817   0.7649880  )
        16           Fe4 tau(  16) = (   0.0000000   0.8066714   0.7649849  )
        17           Fe1 tau(  17) = (   0.5099998   0.0000000   0.0000000  )
        18           Fe2 tau(  18) = (   0.7650027   0.2688935   0.0000000  )
        19           Fe3 tau(  19) = (   0.7650015   0.0000000   0.2549946  )
        20           Fe4 tau(  20) = (   0.5099998   0.2688910   0.2549987  )
        21           Fe1 tau(  21) = (   0.5099998   0.0000000   0.5099934  )
        22           Fe2 tau(  22) = (   0.7649998   0.2688964   0.5099934  )
        23           Fe3 tau(  23) = (   0.7650015   0.0000000   0.7649911  )
        24           Fe4 tau(  24) = (   0.5099998   0.2688910   0.7649870  )
        25           Fe1 tau(  25) = (   0.5099998   0.5377817   0.0000000  )
        26           Fe2 tau(  26) = (   0.7650027   0.8066700   0.0000000  )
        27           Fe3 tau(  27) = (   0.7649992   0.5377817   0.2549987  )
        28           Fe4 tau(  28) = (   0.5099998   0.8066724   0.2549987  )
        29           Fe1 tau(  29) = (   0.5099998   0.5377817   0.5099934  )
        30           Fe2 tau(  30) = (   0.7649998   0.8066671   0.5099934  )
        31           Fe3 tau(  31) = (   0.7649992   0.5377817   0.7649880  )
        32           Fe4 tau(  32) = (   0.5099998   0.8066724   0.7649870  )

     number of k points=   125  Marzari-Vanderbilt smearing, width (Ry)=  0.0400

     Number of k-points >= 100: set verbosity='high' to print them.

     Dense  grid:   365023 G-vectors     FFT dimensions: (  90,  96,  90)

     Smooth grid:   195907 G-vectors     FFT dimensions: (  72,  75,  72)

     Estimated max dynamical RAM per process >       1.59 GB

     Estimated total dynamical RAM >      31.75 GB
     Generating pointlists ...
     new r_m :   0.1488 (alat units)  1.9246 (a.u.) for type    1
     new r_m :   0.1488 (alat units)  1.9246 (a.u.) for type    2
     new r_m :   0.1488 (alat units)  1.9246 (a.u.) for type    3
     new r_m :   0.1488 (alat units)  1.9246 (a.u.) for type    4

     Check: negative/imaginary core charge=   -0.000006    0.000000

     Initial potential from superposition of free atoms

     starting charge  511.98600, renormalised to  512.00000
     Starting wfcs are  320 randomized atomic wfcs
     Checking if some PAW data can be deallocated... 

     total cpu time spent up to now is      155.9 secs

     Self-consistent Calculation

     iteration #  1     ecut=    71.00 Ry     beta= 0.10
     Davidson diagonalization with overlap
     ethr =  1.00E-02,  avg # of iterations =  3.6

     Threshold (ethr) on eigenvalues was too large:
     Diagonalizing with lowered threshold

     Davidson diagonalization with overlap
     ethr =  2.67E-04,  avg # of iterations =  4.2

     total cpu time spent up to now is     1675.6 secs

     total energy              =  -10536.36324864 Ry
     Harris-Foulkes estimate   =  -10536.66411227 Ry
     estimated scf accuracy    <       1.62565906 Ry

     total magnetization       =     0.25 Bohr mag/cell
     absolute magnetization    =    47.18 Bohr mag/cell

     iteration #  2     ecut=    71.00 Ry     beta= 0.10
     Davidson diagonalization with overlap
     ethr =  3.18E-04,  avg # of iterations =  1.0

     total cpu time spent up to now is     2091.5 secs

     total energy              =  -10536.19946140 Ry
     Harris-Foulkes estimate   =  -10536.40584722 Ry
     estimated scf accuracy    <       1.00937970 Ry

     total magnetization       =    -0.14 Bohr mag/cell
     absolute magnetization    =    48.10 Bohr mag/cell

     iteration #  3     ecut=    71.00 Ry     beta= 0.10
     Davidson diagonalization with overlap
     ethr =  1.97E-04,  avg # of iterations =  2.1

     total cpu time spent up to now is     2607.0 secs

     total energy              =  -10536.06070791 Ry
     Harris-Foulkes estimate   =  -10536.31365288 Ry
     estimated scf accuracy    <       2.37315722 Ry

     total magnetization       =     0.24 Bohr mag/cell
     absolute magnetization    =    48.65 Bohr mag/cell

     iteration #  4     ecut=    71.00 Ry     beta= 0.10
     Davidson diagonalization with overlap
     ethr =  1.97E-04,  avg # of iterations =  2.6

     total cpu time spent up to now is     3155.5 secs

     total energy              =  -10536.15140589 Ry
     Harris-Foulkes estimate   =  -10536.18580974 Ry
     estimated scf accuracy    <       0.59875900 Ry

     total magnetization       =     0.41 Bohr mag/cell
     absolute magnetization    =    49.99 Bohr mag/cell

     iteration #  5     ecut=    71.00 Ry     beta= 0.10
     Davidson diagonalization with overlap
     ethr =  1.17E-04,  avg # of iterations =  1.2

     total cpu time spent up to now is     3600.6 secs

     total energy              =  -10536.16583389 Ry
     Harris-Foulkes estimate   =  -10536.17226963 Ry
     estimated scf accuracy    <       0.09251555 Ry

     total magnetization       =     0.05 Bohr mag/cell
     absolute magnetization    =    50.23 Bohr mag/cell

     iteration #  6     ecut=    71.00 Ry     beta= 0.10
     Davidson diagonalization with overlap
     ethr =  1.81E-05,  avg # of iterations =  3.0

     total cpu time spent up to now is     4172.3 secs

     total energy              =  -10536.15938560 Ry
     Harris-Foulkes estimate   =  -10536.16888657 Ry
     estimated scf accuracy    <       0.07814217 Ry

     total magnetization       =    -0.11 Bohr mag/cell
     absolute magnetization    =    50.28 Bohr mag/cell

     iteration #  7     ecut=    71.00 Ry     beta= 0.10
     Davidson diagonalization with overlap
     ethr =  1.53E-05,  avg # of iterations =  3.8

     total cpu time spent up to now is     5044.5 secs

     total energy              =  -10536.18220175 Ry
     Harris-Foulkes estimate   =  -10536.18447237 Ry
     estimated scf accuracy    <       0.11551386 Ry

     total magnetization       =     0.02 Bohr mag/cell
     absolute magnetization    =    50.87 Bohr mag/cell

     iteration #  8     ecut=    71.00 Ry     beta= 0.10
     Davidson diagonalization with overlap
     ethr =  1.53E-05,  avg # of iterations =  2.0

     total cpu time spent up to now is     5558.3 secs

     total energy              =  -10536.18372759 Ry
     Harris-Foulkes estimate   =  -10536.18695089 Ry
     estimated scf accuracy    <       0.08610015 Ry

     total magnetization       =     0.06 Bohr mag/cell
     absolute magnetization    =    51.38 Bohr mag/cell

     iteration #  9     ecut=    71.00 Ry     beta= 0.10
     Davidson diagonalization with overlap
     ethr =  1.53E-05,  avg # of iterations =  1.0

     total cpu time spent up to now is     5973.1 secs

     total energy              =  -10536.19100739 Ry
     Harris-Foulkes estimate   =  -10536.18537976 Ry
     estimated scf accuracy    <       0.04772199 Ry

     total magnetization       =     0.02 Bohr mag/cell
     absolute magnetization    =    51.61 Bohr mag/cell

     iteration # 10     ecut=    71.00 Ry     beta= 0.10
     Davidson diagonalization with overlap
     ethr =  9.32E-06,  avg # of iterations =  1.3

     total cpu time spent up to now is     6425.1 secs

     total energy              =  -10536.21725331 Ry
     Harris-Foulkes estimate   =  -10536.19231741 Ry
     estimated scf accuracy    <       0.04012098 Ry

     total magnetization       =    -0.07 Bohr mag/cell
     absolute magnetization    =    51.93 Bohr mag/cell

     iteration # 11     ecut=    71.00 Ry     beta= 0.10
     Davidson diagonalization with overlap
     ethr =  7.84E-06,  avg # of iterations =  3.7

     total cpu time spent up to now is     7253.9 secs

     total energy              =  -10536.23660753 Ry
     Harris-Foulkes estimate   =  -10536.23294841 Ry
     estimated scf accuracy    <       0.02918902 Ry

     total magnetization       =    -0.16 Bohr mag/cell
     absolute magnetization    =    53.60 Bohr mag/cell

     iteration # 12     ecut=    71.00 Ry     beta= 0.10
     Davidson diagonalization with overlap
     ethr =  5.70E-06,  avg # of iterations =  1.0

     total cpu time spent up to now is     7672.9 secs

     total energy              =  -10536.23792406 Ry
     Harris-Foulkes estimate   =  -10536.23768290 Ry
     estimated scf accuracy    <       0.01684910 Ry

     total magnetization       =    -0.08 Bohr mag/cell
     absolute magnetization    =    54.03 Bohr mag/cell

     iteration # 13     ecut=    71.00 Ry     beta= 0.10
     Davidson diagonalization with overlap
     ethr =  3.29E-06,  avg # of iterations =  1.9

     total cpu time spent up to now is     8171.5 secs

     total energy              =  -10536.23873984 Ry
     Harris-Foulkes estimate   =  -10536.23878473 Ry
     estimated scf accuracy    <       0.00650009 Ry

     total magnetization       =    -0.02 Bohr mag/cell
     absolute magnetization    =    54.44 Bohr mag/cell

     iteration # 14     ecut=    71.00 Ry     beta= 0.10
     Davidson diagonalization with overlap
     ethr =  1.27E-06,  avg # of iterations =  2.2

     total cpu time spent up to now is     8681.0 secs

     total energy              =  -10536.23914831 Ry
     Harris-Foulkes estimate   =  -10536.23894242 Ry
     estimated scf accuracy    <       0.00249992 Ry

     total magnetization       =    -0.02 Bohr mag/cell
     absolute magnetization    =    54.53 Bohr mag/cell

     iteration # 15     ecut=    71.00 Ry     beta= 0.10
     Davidson diagonalization with overlap
     ethr =  4.88E-07,  avg # of iterations =  2.6

     total cpu time spent up to now is     9238.1 secs

     total energy              =  -10536.23937227 Ry
     Harris-Foulkes estimate   =  -10536.23922556 Ry
     estimated scf accuracy    <       0.00194429 Ry

     total magnetization       =    -0.01 Bohr mag/cell
     absolute magnetization    =    54.68 Bohr mag/cell

     iteration # 16     ecut=    71.00 Ry     beta= 0.10
     Davidson diagonalization with overlap
     ethr =  3.80E-07,  avg # of iterations =  1.1

     total cpu time spent up to now is     9669.3 secs

     total energy              =  -10536.23988800 Ry
     Harris-Foulkes estimate   =  -10536.23941725 Ry
     estimated scf accuracy    <       0.00177385 Ry

     total magnetization       =    -0.00 Bohr mag/cell
     absolute magnetization    =    54.77 Bohr mag/cell

     iteration # 17     ecut=    71.00 Ry     beta= 0.10
     Davidson diagonalization with overlap
     ethr =  3.46E-07,  avg # of iterations =  2.9

     total cpu time spent up to now is    10258.2 secs

     total energy              =  -10536.24021958 Ry
     Harris-Foulkes estimate   =  -10536.24012742 Ry
     estimated scf accuracy    <       0.00142667 Ry

     total magnetization       =    -0.01 Bohr mag/cell
     absolute magnetization    =    55.12 Bohr mag/cell

     iteration # 18     ecut=    71.00 Ry     beta= 0.10
     Davidson diagonalization with overlap
     ethr =  2.79E-07,  avg # of iterations =  1.0

     total cpu time spent up to now is    10687.5 secs

     total energy              =  -10536.24050777 Ry
     Harris-Foulkes estimate   =  -10536.24025975 Ry
     estimated scf accuracy    <       0.00082333 Ry

     total magnetization       =    -0.01 Bohr mag/cell
     absolute magnetization    =    55.19 Bohr mag/cell

     iteration # 19     ecut=    71.00 Ry     beta= 0.10
     Davidson diagonalization with overlap
     ethr =  1.61E-07,  avg # of iterations =  2.9

     total cpu time spent up to now is    11304.8 secs

     total energy              =  -10536.24074602 Ry
     Harris-Foulkes estimate   =  -10536.24059067 Ry
     estimated scf accuracy    <       0.00065557 Ry

     total magnetization       =     0.01 Bohr mag/cell
     absolute magnetization    =    55.36 Bohr mag/cell

     iteration # 20     ecut=    71.00 Ry     beta= 0.10
     Davidson diagonalization with overlap
     ethr =  1.28E-07,  avg # of iterations =  1.2

     total cpu time spent up to now is    11752.8 secs

     total energy              =  -10536.24095703 Ry
     Harris-Foulkes estimate   =  -10536.24078236 Ry
     estimated scf accuracy    <       0.00062317 Ry

     total magnetization       =    -0.01 Bohr mag/cell
     absolute magnetization    =    55.49 Bohr mag/cell

     iteration # 21     ecut=    71.00 Ry     beta= 0.10
     Davidson diagonalization with overlap
     ethr =  1.22E-07,  avg # of iterations =  2.9

     total cpu time spent up to now is    12347.1 secs

     total energy              =  -10536.24096021 Ry
     Harris-Foulkes estimate   =  -10536.24103514 Ry
     estimated scf accuracy    <       0.00051631 Ry

     total magnetization       =    -0.00 Bohr mag/cell
     absolute magnetization    =    55.70 Bohr mag/cell

     iteration # 22     ecut=    71.00 Ry     beta= 0.10
     Davidson diagonalization with overlap
     ethr =  1.01E-07,  avg # of iterations =  1.0

     total cpu time spent up to now is    12778.7 secs

     total energy              =  -10536.24106508 Ry
     Harris-Foulkes estimate   =  -10536.24098817 Ry
     estimated scf accuracy    <       0.00025450 Ry

     total magnetization       =    -0.00 Bohr mag/cell
     absolute magnetization    =    55.74 Bohr mag/cell

     iteration # 23     ecut=    71.00 Ry     beta= 0.10
     Davidson diagonalization with overlap
     ethr =  4.97E-08,  avg # of iterations =  2.7

     total cpu time spent up to now is    13363.2 secs

     total energy              =  -10536.24112598 Ry
     Harris-Foulkes estimate   =  -10536.24110462 Ry
     estimated scf accuracy    <       0.00017335 Ry

     total magnetization       =    -0.01 Bohr mag/cell
     absolute magnetization    =    55.91 Bohr mag/cell

     iteration # 24     ecut=    71.00 Ry     beta= 0.10
     Davidson diagonalization with overlap
     ethr =  3.39E-08,  avg # of iterations =  2.3

     total cpu time spent up to now is    13894.4 secs

     total energy              =  -10536.24112342 Ry
     Harris-Foulkes estimate   =  -10536.24114445 Ry
     estimated scf accuracy    <       0.00013461 Ry

     total magnetization       =    -0.00 Bohr mag/cell
     absolute magnetization    =    56.00 Bohr mag/cell

     iteration # 25     ecut=    71.00 Ry     beta= 0.10
     Davidson diagonalization with overlap
     ethr =  2.63E-08,  avg # of iterations =  3.3

     total cpu time spent up to now is    14629.2 secs

     total energy              =  -10536.24115901 Ry
     Harris-Foulkes estimate   =  -10536.24116517 Ry
     estimated scf accuracy    <       0.00008176 Ry

     total magnetization       =     0.00 Bohr mag/cell
     absolute magnetization    =    56.16 Bohr mag/cell

     iteration # 26     ecut=    71.00 Ry     beta= 0.10
     Davidson diagonalization with overlap
     ethr =  1.60E-08,  avg # of iterations =  1.0

     total cpu time spent up to now is    15052.4 secs

     total energy              =  -10536.24117009 Ry
     Harris-Foulkes estimate   =  -10536.24116316 Ry
     estimated scf accuracy    <       0.00003843 Ry

     total magnetization       =    -0.01 Bohr mag/cell
     absolute magnetization    =    56.19 Bohr mag/cell

     iteration # 27     ecut=    71.00 Ry     beta= 0.10
     Davidson diagonalization with overlap
     ethr =  7.51E-09,  avg # of iterations =  1.9

     total cpu time spent up to now is    15553.0 secs

     total energy              =  -10536.24117796 Ry
     Harris-Foulkes estimate   =  -10536.24117297 Ry
     estimated scf accuracy    <       0.00003592 Ry

     total magnetization       =    -0.00 Bohr mag/cell
     absolute magnetization    =    56.22 Bohr mag/cell

     iteration # 28     ecut=    71.00 Ry     beta= 0.10
     Davidson diagonalization with overlap
     ethr =  7.02E-09,  avg # of iterations =  1.0

     total cpu time spent up to now is    15979.5 secs

     total energy              =  -10536.24118341 Ry
     Harris-Foulkes estimate   =  -10536.24117964 Ry
     estimated scf accuracy    <       0.00001528 Ry

     total magnetization       =    -0.00 Bohr mag/cell
     absolute magnetization    =    56.22 Bohr mag/cell

     iteration # 29     ecut=    71.00 Ry     beta= 0.10
     Davidson diagonalization with overlap
     ethr =  2.98E-09,  avg # of iterations =  2.9

     total cpu time spent up to now is    16549.8 secs

     total energy              =  -10536.24118577 Ry
     Harris-Foulkes estimate   =  -10536.24118439 Ry
     estimated scf accuracy    <       0.00001101 Ry

     total magnetization       =    -0.00 Bohr mag/cell
     absolute magnetization    =    56.23 Bohr mag/cell

     iteration # 30     ecut=    71.00 Ry     beta= 0.10
     Davidson diagonalization with overlap
     ethr =  2.15E-09,  avg # of iterations =  1.1

     total cpu time spent up to now is    16983.0 secs

     total energy              =  -10536.24118903 Ry
     Harris-Foulkes estimate   =  -10536.24118610 Ry
     estimated scf accuracy    <       0.00001049 Ry

     total magnetization       =    -0.00 Bohr mag/cell
     absolute magnetization    =    56.23 Bohr mag/cell

     iteration # 31     ecut=    71.00 Ry     beta= 0.10
     Davidson diagonalization with overlap
     ethr =  2.05E-09,  avg # of iterations =  1.9

     total cpu time spent up to now is    17465.5 secs

     total energy              =  -10536.24119147 Ry
     Harris-Foulkes estimate   =  -10536.24118971 Ry
     estimated scf accuracy    <       0.00000993 Ry

     total magnetization       =    -0.00 Bohr mag/cell
     absolute magnetization    =    56.24 Bohr mag/cell

     iteration # 32     ecut=    71.00 Ry     beta= 0.10
     Davidson diagonalization with overlap
     ethr =  1.94E-09,  avg # of iterations =  3.0

     total cpu time spent up to now is    18093.3 secs

     total energy              =  -10536.24119401 Ry
     Harris-Foulkes estimate   =  -10536.24119344 Ry
     estimated scf accuracy    <       0.00000413 Ry

     total magnetization       =    -0.00 Bohr mag/cell
     absolute magnetization    =    56.28 Bohr mag/cell

     iteration # 33     ecut=    71.00 Ry     beta= 0.10
     Davidson diagonalization with overlap
     ethr =  8.07E-10,  avg # of iterations =  1.3

     total cpu time spent up to now is    18533.1 secs

     total energy              =  -10536.24119497 Ry
     Harris-Foulkes estimate   =  -10536.24119426 Ry
     estimated scf accuracy    <       0.00000471 Ry

     total magnetization       =    -0.00 Bohr mag/cell
     absolute magnetization    =    56.28 Bohr mag/cell

     iteration # 34     ecut=    71.00 Ry     beta= 0.10
     Davidson diagonalization with overlap
     ethr =  8.07E-10,  avg # of iterations =  2.4

     total cpu time spent up to now is    19086.2 secs

     total energy              =  -10536.24119568 Ry
     Harris-Foulkes estimate   =  -10536.24119566 Ry
     estimated scf accuracy    <       0.00000353 Ry

     total magnetization       =    -0.00 Bohr mag/cell
     absolute magnetization    =    56.30 Bohr mag/cell

     iteration # 35     ecut=    71.00 Ry     beta= 0.10
     Davidson diagonalization with overlap
     ethr =  6.90E-10,  avg # of iterations =  1.3

     total cpu time spent up to now is    19524.9 secs

     total energy              =  -10536.24119636 Ry
     Harris-Foulkes estimate   =  -10536.24119583 Ry
     estimated scf accuracy    <       0.00000112 Ry

     total magnetization       =    -0.00 Bohr mag/cell
     absolute magnetization    =    56.30 Bohr mag/cell

     iteration # 36     ecut=    71.00 Ry     beta= 0.10
     Davidson diagonalization with overlap
     ethr =  2.19E-10,  avg # of iterations =  3.2
 
     Magnetic moment per site:
     atom:    1    charge:   14.4371    magn:    1.6971    constr:    0.0000
     atom:    2    charge:   14.4373    magn:   -1.6972    constr:    0.0000
     atom:    3    charge:   14.4366    magn:    1.6997    constr:    0.0000
     atom:    4    charge:   14.4374    magn:   -1.7012    constr:    0.0000
     atom:    5    charge:   14.4372    magn:    1.6979    constr:    0.0000
     atom:    6    charge:   14.4374    magn:   -1.6964    constr:    0.0000
     atom:    7    charge:   14.4366    magn:    1.6997    constr:    0.0000
     atom:    8    charge:   14.4374    magn:   -1.7012    constr:    0.0000
     atom:    9    charge:   14.4373    magn:    1.6978    constr:    0.0000
     atom:   10    charge:   14.4373    magn:   -1.6972    constr:    0.0000
     atom:   11    charge:   14.4368    magn:    1.6993    constr:    0.0000
     atom:   12    charge:   14.4374    magn:   -1.7012    constr:    0.0000
     atom:   13    charge:   14.4372    magn:    1.6984    constr:    0.0000
     atom:   14    charge:   14.4374    magn:   -1.6964    constr:    0.0000
     atom:   15    charge:   14.4368    magn:    1.6993    constr:    0.0000
     atom:   16    charge:   14.4374    magn:   -1.7012    constr:    0.0000
     atom:   17    charge:   14.4372    magn:    1.6985    constr:    0.0000
     atom:   18    charge:   14.4373    magn:   -1.6972    constr:    0.0000
     atom:   19    charge:   14.4366    magn:    1.6997    constr:    0.0000
     atom:   20    charge:   14.4375    magn:   -1.7004    constr:    0.0000
     atom:   21    charge:   14.4370    magn:    1.6989    constr:    0.0000
     atom:   22    charge:   14.4374    magn:   -1.6964    constr:    0.0000
     atom:   23    charge:   14.4366    magn:    1.6997    constr:    0.0000
     atom:   24    charge:   14.4375    magn:   -1.7004    constr:    0.0000
     atom:   25    charge:   14.4372    magn:    1.6977    constr:    0.0000
     atom:   26    charge:   14.4373    magn:   -1.6972    constr:    0.0000
     atom:   27    charge:   14.4368    magn:    1.6993    constr:    0.0000
     atom:   28    charge:   14.4375    magn:   -1.7004    constr:    0.0000
     atom:   29    charge:   14.4373    magn:    1.6977    constr:    0.0000
     atom:   30    charge:   14.4374    magn:   -1.6964    constr:    0.0000
     atom:   31    charge:   14.4368    magn:    1.6993    constr:    0.0000
     atom:   32    charge:   14.4375    magn:   -1.7004    constr:    0.0000

     total cpu time spent up to now is    20256.6 secs

     End of self-consistent calculation

     Number of k-points >= 100: set verbosity='high' to print the bands.

     the Fermi energy is    18.7875 ev

!    total energy              =  -10536.24119673 Ry
     Harris-Foulkes estimate   =  -10536.24119657 Ry
     estimated scf accuracy    <       0.00000087 Ry

     total all-electron energy =    -81457.730255 Ry

     The total energy is the sum of the following terms:

     one-electron contribution =   -3468.84733483 Ry
     hartree contribution      =    2060.10971346 Ry
     xc contribution           =    -885.92694162 Ry
     ewald contribution        =   -5592.04488264 Ry
     one-center paw contrib.   =   -2649.53367459 Ry
     smearing contrib. (-TS)   =       0.00192349 Ry

     total magnetization       =    -0.00 Bohr mag/cell
     absolute magnetization    =    56.31 Bohr mag/cell

     convergence has been achieved in  36 iterations

     Forces acting on atoms (cartesian axes, Ry/au):

     atom    1 type  1   force =     0.00000000    0.00000000    0.00000000
     atom    2 type  2   force =     0.00005009   -0.00001056    0.00000000
     atom    3 type  3   force =     0.00014369    0.00000000    0.00005740
     atom    4 type  4   force =     0.00000000   -0.00014797   -0.00012944
     atom    5 type  1   force =     0.00000000    0.00000000    0.00000000
     atom    6 type  2   force =     0.00004187   -0.00015838    0.00000000
     atom    7 type  3   force =     0.00014369   -0.00000000   -0.00005740
     atom    8 type  4   force =     0.00000000   -0.00014797    0.00012944
     atom    9 type  1   force =     0.00000000    0.00000000    0.00000000
     atom   10 type  2   force =     0.00005009    0.00001056    0.00000000
     atom   11 type  3   force =    -0.00000059    0.00000000   -0.00001795
     atom   12 type  4   force =     0.00000000    0.00014797   -0.00012944
     atom   13 type  1   force =     0.00000000    0.00000000    0.00000000
     atom   14 type  2   force =     0.00004187    0.00015838    0.00000000
     atom   15 type  3   force =    -0.00000059    0.00000000    0.00001795
     atom   16 type  4   force =     0.00000000    0.00014797    0.00012944
     atom   17 type  1   force =     0.00000000    0.00000000    0.00000000
     atom   18 type  2   force =    -0.00005009   -0.00001056    0.00000000
     atom   19 type  3   force =    -0.00014369   -0.00000000    0.00005740
     atom   20 type  4   force =     0.00000000    0.00003071   -0.00008614
     atom   21 type  1   force =     0.00000000    0.00000000    0.00000000
     atom   22 type  2   force =    -0.00004187   -0.00015838    0.00000000
     atom   23 type  3   force =    -0.00014369    0.00000000   -0.00005740
     atom   24 type  4   force =     0.00000000    0.00003071    0.00008614
     atom   25 type  1   force =     0.00000000    0.00000000    0.00000000
     atom   26 type  2   force =    -0.00005009    0.00001056    0.00000000
     atom   27 type  3   force =     0.00000059    0.00000000   -0.00001795
     atom   28 type  4   force =     0.00000000   -0.00003071   -0.00008614
     atom   29 type  1   force =     0.00000000    0.00000000    0.00000000
     atom   30 type  2   force =    -0.00004187    0.00015838    0.00000000
     atom   31 type  3   force =     0.00000059    0.00000000    0.00001795
     atom   32 type  4   force =     0.00000000   -0.00003071    0.00008614

     Total force =     0.000635     Total SCF correction =     0.002043
     SCF correction compared to forces is large: reduce conv_thr to get better values


     Computing stress (Cartesian axis) and pressure

          total   stress  (Ry/bohr**3)                   (kbar)     P= -110.78
  -0.00082224   0.00000000   0.00000000       -120.96      0.00      0.00
   0.00000000  -0.00061483   0.00000000          0.00    -90.44      0.00
   0.00000000   0.00000000  -0.00082223          0.00      0.00   -120.95


     Writing output data file SFagnCSxwYTasHOE.save/
 
     init_run     :    149.95s CPU    152.77s WALL (       1 calls)
     electrons    :  19830.83s CPU  20100.74s WALL (       1 calls)
     forces       :     71.54s CPU     73.62s WALL (       1 calls)
     stress       :    662.97s CPU    666.04s WALL (       1 calls)

     Called by init_run:
     wfcinit      :    147.49s CPU    150.23s WALL (       1 calls)
     potinit      :      1.07s CPU      1.10s WALL (       1 calls)
     hinit0       :      0.68s CPU      0.70s WALL (       1 calls)

     Called by electrons:
     c_bands      :  18089.32s CPU  18314.21s WALL (      37 calls)
     sum_band     :   1706.85s CPU   1750.22s WALL (      37 calls)
     v_of_rho     :      2.34s CPU      2.46s WALL (      37 calls)
     newd         :      9.48s CPU     10.52s WALL (      37 calls)
     PAW_pot      :     22.66s CPU     23.01s WALL (      37 calls)
     mix_rho      :      0.72s CPU      0.82s WALL (      37 calls)

     Called by c_bands:
     init_us_2    :    105.93s CPU    106.28s WALL (   19250 calls)
     cegterg      :  17518.28s CPU  17740.82s WALL (    9250 calls)

     Called by sum_band:
     sum_band:bec :     19.05s CPU     19.17s WALL (    9250 calls)
     addusdens    :     17.88s CPU     19.17s WALL (      37 calls)

     Called by *egterg:
     h_psi        :   6588.88s CPU   6728.54s WALL (   29372 calls)
     s_psi        :    996.03s CPU    998.31s WALL (   29372 calls)
     g_psi        :     29.42s CPU     29.55s WALL (   19872 calls)
     cdiaghg      :   6793.84s CPU   6807.92s WALL (   28872 calls)

     Called by h_psi:
     h_psi:pot    :   6524.60s CPU   6663.62s WALL (   29372 calls)
     h_psi:calbec :   1074.77s CPU   1115.83s WALL (   29372 calls)
     vloc_psi     :   4453.80s CPU   4549.05s WALL (   29372 calls)
     add_vuspsi   :    995.69s CPU    998.51s WALL (   29372 calls)

     General routines
     calbec       :   1641.34s CPU   1704.29s WALL (   39872 calls)
     fft          :      1.73s CPU      1.85s WALL (     967 calls)
     ffts         :      0.15s CPU      0.16s WALL (     148 calls)
     fftw         :   5092.02s CPU   5198.59s WALL (14926556 calls)
     interpolate  :      0.23s CPU      0.24s WALL (      74 calls)
 
     Parallel routines
     fft_scatt_xy :    507.89s CPU    518.43s WALL (14927671 calls)
     fft_scatt_yz :   2455.56s CPU   2511.63s WALL (14927671 calls)
 
     PWSCF        :     5h45m CPU       45h 5m WALL

      52h
 
   This run was terminated on:  15:46:41   5Jul2020            

=------------------------------------------------------------------------------=
   JOB DONE.
=------------------------------------------------------------------------------=
