
     Program PWSCF v.6.3 starts on 10Oct2020 at 22: 9:37 

     This program is part of the open-source Quantum ESPRESSO suite
     for quantum simulation of materials; please cite
         "P. Giannozzi et al., J. Phys.:Condens. Matter 21 395502 (2009);
         "P. Giannozzi et al., J. Phys.:Condens. Matter 29 465901 (2017);
          URL http://www.quantum-espresso.org", 
     in publications or presentations arising from this work. More details at
     http://www.quantum-espresso.org/quote

     Parallel version (MPI & OpenMP), running on      40 processor cores
     Number of MPI processes:                40
     Threads/MPI process:                     1

     MPI processes distributed on     1 nodes
     R & G space division:  proc/nbgrp/npool/nimage =      40
     Reading input from wd/ec/ec_2_006.in
Warning: card &IONS ignored
Warning: card ION_DYNAMICS = 'BFGS', ignored
Warning: card / ignored
Warning: card &CELL ignored
Warning: card CELL_DYNAMICS = 'BFGS', ignored
Warning: card CELL_FACTOR = 2.0, ignored
Warning: card PRESS = 0.0, ignored
Warning: card / ignored

     Current dimensions of program PWSCF are:
     Max number of different atomic species (ntypx) = 10
     Max number of k-points (npk) =  40000
     Max angular momentum in pseudopotentials (lmaxx) =  3
               file Fe.pbe-spn-kjpaw_psl.1.0.0.UPF: wavefunction(s)  3P 3D renormalized
               file Fe.pbe-spn-kjpaw_psl.1.0.0.UPF: wavefunction(s)  3P 3D renormalized
               file Fe.pbe-spn-kjpaw_psl.1.0.0.UPF: wavefunction(s)  3P 3D renormalized
               file Fe.pbe-spn-kjpaw_psl.1.0.0.UPF: wavefunction(s)  3P 3D renormalized

     Subspace diagonalization in iterative solution of the eigenvalue problem:
     a serial algorithm will be used

     Found symmetry operation: I + (  0.0000  0.0000 -0.5000)
     This is a supercell, fractional translations are disabled
 
     Parallelization info
     --------------------
     sticks:   dense  smooth     PW     G-vecs:    dense   smooth      PW
     Min         152     100     27                 8668     4654     669
     Max         153     101     28                 8673     4659     672
     Sum        6099    4017   1107               346795   186217   26839
 


     bravais-lattice index     =            0
     lattice parameter (alat)  =      12.9382  a.u.
     unit-cell volume          =    2302.7907 (a.u.)^3
     number of atoms/cell      =           32
     number of atomic types    =            4
     number of electrons       =       512.00
     number of Kohn-Sham states=          307
     kinetic-energy cutoff     =      71.0000  Ry
     charge density cutoff     =     430.0000  Ry
     convergence threshold     =      1.0E-06
     mixing beta               =       0.1000
     number of iterations used =           10  plain     mixing
     Exchange-correlation      = SLA PW PBX PBC ( 1  4  3  4 0 0)

     celldm(1)=  12.938187  celldm(2)=   0.000000  celldm(3)=   0.000000
     celldm(4)=   0.000000  celldm(5)=   0.000000  celldm(6)=   0.000000

     crystal axes: (cart. coord. in units of alat)
               a(1) = (   1.000000   0.000000   0.000000 )  
               a(2) = (   0.000000   1.063261   0.000000 )  
               a(3) = (   0.000000   0.000000   0.999987 )  

     reciprocal axes: (cart. coord. in units 2 pi/alat)
               b(1) = (  1.000000  0.000000  0.000000 )  
               b(2) = (  0.000000  0.940503  0.000000 )  
               b(3) = (  0.000000  0.000000  1.000013 )  


     PseudoPot. # 1 for Fe read from file:
     /rds/homes/b/bxp912/pp/Fe.pbe-spn-kjpaw_psl.1.0.0.UPF
     MD5 check sum: 42f43b795421b414b0dc916aa790dbcb
     Pseudo is Projector augmented-wave + core cor, Zval = 16.0
     Generated using "atomic" code by A. Dal Corso v.6.3
     Shape of augmentation charge: PSQ
     Using radial grid of 1191 points,  6 beta functions with: 
                l(1) =   0
                l(2) =   0
                l(3) =   1
                l(4) =   1
                l(5) =   2
                l(6) =   2
     Q(r) pseudized with 0 coefficients 


     PseudoPot. # 2 for Fe read from file:
     /rds/homes/b/bxp912/pp/Fe.pbe-spn-kjpaw_psl.1.0.0.UPF
     MD5 check sum: 42f43b795421b414b0dc916aa790dbcb
     Pseudo is Projector augmented-wave + core cor, Zval = 16.0
     Generated using "atomic" code by A. Dal Corso v.6.3
     Shape of augmentation charge: PSQ
     Using radial grid of 1191 points,  6 beta functions with: 
                l(1) =   0
                l(2) =   0
                l(3) =   1
                l(4) =   1
                l(5) =   2
                l(6) =   2
     Q(r) pseudized with 0 coefficients 


     PseudoPot. # 3 for Fe read from file:
     /rds/homes/b/bxp912/pp/Fe.pbe-spn-kjpaw_psl.1.0.0.UPF
     MD5 check sum: 42f43b795421b414b0dc916aa790dbcb
     Pseudo is Projector augmented-wave + core cor, Zval = 16.0
     Generated using "atomic" code by A. Dal Corso v.6.3
     Shape of augmentation charge: PSQ
     Using radial grid of 1191 points,  6 beta functions with: 
                l(1) =   0
                l(2) =   0
                l(3) =   1
                l(4) =   1
                l(5) =   2
                l(6) =   2
     Q(r) pseudized with 0 coefficients 


     PseudoPot. # 4 for Fe read from file:
     /rds/homes/b/bxp912/pp/Fe.pbe-spn-kjpaw_psl.1.0.0.UPF
     MD5 check sum: 42f43b795421b414b0dc916aa790dbcb
     Pseudo is Projector augmented-wave + core cor, Zval = 16.0
     Generated using "atomic" code by A. Dal Corso v.6.3
     Shape of augmentation charge: PSQ
     Using radial grid of 1191 points,  6 beta functions with: 
                l(1) =   0
                l(2) =   0
                l(3) =   1
                l(4) =   1
                l(5) =   2
                l(6) =   2
     Q(r) pseudized with 0 coefficients 


     atomic species   valence    mass     pseudopotential
        Fe1           16.00    55.84500     Fe( 1.00)
        Fe2           16.00    55.84500     Fe( 1.00)
        Fe3           16.00    55.84500     Fe( 1.00)
        Fe4           16.00    55.84500     Fe( 1.00)

     Starting magnetic structure 
     atomic species   magnetization
        Fe1          0.100
        Fe2         -0.100
        Fe3          0.100
        Fe4         -0.100

      8 Sym. Ops., with inversion, found



   Cartesian axes

     site n.     atom                  positions (alat units)
         1           Fe1 tau(   1) = (   0.0000000   0.0000000   0.0000000  )
         2           Fe2 tau(   2) = (   0.2499968   0.2658179   0.0000000  )
         3           Fe3 tau(   3) = (   0.2499981   0.0000000   0.2499947  )
         4           Fe4 tau(   4) = (   0.0000000   0.2658165   0.2500008  )
         5           Fe1 tau(   5) = (   0.0000000   0.0000000   0.4999935  )
         6           Fe2 tau(   6) = (   0.2499996   0.2658207   0.4999935  )
         7           Fe3 tau(   7) = (   0.2499981   0.0000000   0.7499912  )
         8           Fe4 tau(   8) = (   0.0000000   0.2658165   0.7499852  )
         9           Fe1 tau(   9) = (   0.0000000   0.5316306   0.0000000  )
        10           Fe2 tau(  10) = (   0.2499968   0.7974434   0.0000000  )
        11           Fe3 tau(  11) = (   0.2500004   0.5316306   0.2499987  )
        12           Fe4 tau(  12) = (   0.0000000   0.7974448   0.2500008  )
        13           Fe1 tau(  13) = (   0.0000000   0.5316306   0.4999935  )
        14           Fe2 tau(  14) = (   0.2499996   0.7974405   0.4999935  )
        15           Fe3 tau(  15) = (   0.2500004   0.5316306   0.7499882  )
        16           Fe4 tau(  16) = (   0.0000000   0.7974448   0.7499852  )
        17           Fe1 tau(  17) = (   0.4999998   0.0000000   0.0000000  )
        18           Fe2 tau(  18) = (   0.7500027   0.2658179   0.0000000  )
        19           Fe3 tau(  19) = (   0.7500015   0.0000000   0.2499947  )
        20           Fe4 tau(  20) = (   0.4999998   0.2658155   0.2499987  )
        21           Fe1 tau(  21) = (   0.4999998   0.0000000   0.4999935  )
        22           Fe2 tau(  22) = (   0.7499998   0.2658207   0.4999935  )
        23           Fe3 tau(  23) = (   0.7500015   0.0000000   0.7499912  )
        24           Fe4 tau(  24) = (   0.4999998   0.2658155   0.7499872  )
        25           Fe1 tau(  25) = (   0.4999998   0.5316306   0.0000000  )
        26           Fe2 tau(  26) = (   0.7500027   0.7974434   0.0000000  )
        27           Fe3 tau(  27) = (   0.7499992   0.5316306   0.2499987  )
        28           Fe4 tau(  28) = (   0.4999998   0.7974458   0.2499987  )
        29           Fe1 tau(  29) = (   0.4999998   0.5316306   0.4999935  )
        30           Fe2 tau(  30) = (   0.7499998   0.7974405   0.4999935  )
        31           Fe3 tau(  31) = (   0.7499992   0.5316306   0.7499882  )
        32           Fe4 tau(  32) = (   0.4999998   0.7974458   0.7499872  )

     number of k points=   125  Marzari-Vanderbilt smearing, width (Ry)=  0.0400

     Number of k-points >= 100: set verbosity='high' to print them.

     Dense  grid:   346795 G-vectors     FFT dimensions: (  90,  96,  90)

     Smooth grid:   186217 G-vectors     FFT dimensions: (  72,  75,  72)

     Estimated max dynamical RAM per process >     817.17 MB

     Estimated total dynamical RAM >      31.92 GB
     Generating pointlists ...
     new r_m :   0.1458 (alat units)  1.8869 (a.u.) for type    1
     new r_m :   0.1458 (alat units)  1.8869 (a.u.) for type    2
     new r_m :   0.1458 (alat units)  1.8869 (a.u.) for type    3
     new r_m :   0.1458 (alat units)  1.8869 (a.u.) for type    4

     Check: negative/imaginary core charge=   -0.000006    0.000000

     Initial potential from superposition of free atoms

     starting charge  511.98600, renormalised to  512.00000
     Starting wfcs are  320 randomized atomic wfcs
     Checking if some PAW data can be deallocated... 

     total cpu time spent up to now is       85.7 secs

     Self-consistent Calculation

     iteration #  1     ecut=    71.00 Ry     beta= 0.10
     Davidson diagonalization with overlap
     ethr =  1.00E-02,  avg # of iterations =  3.5

     Threshold (ethr) on eigenvalues was too large:
     Diagonalizing with lowered threshold

     Davidson diagonalization with overlap
     ethr =  3.10E-04,  avg # of iterations =  4.0

     total cpu time spent up to now is     1019.1 secs

     total energy              =  -10536.42537076 Ry
     Harris-Foulkes estimate   =  -10536.76003568 Ry
     estimated scf accuracy    <       1.83996261 Ry

     total magnetization       =     0.23 Bohr mag/cell
     absolute magnetization    =    44.87 Bohr mag/cell

     iteration #  2     ecut=    71.00 Ry     beta= 0.10
     Davidson diagonalization with overlap
     ethr =  3.59E-04,  avg # of iterations =  1.0

     total cpu time spent up to now is     1246.7 secs

     total energy              =  -10536.21409576 Ry
     Harris-Foulkes estimate   =  -10536.47046079 Ry
     estimated scf accuracy    <       1.09558055 Ry

     total magnetization       =    -0.11 Bohr mag/cell
     absolute magnetization    =    45.63 Bohr mag/cell

     iteration #  3     ecut=    71.00 Ry     beta= 0.10
     Davidson diagonalization with overlap
     ethr =  2.14E-04,  avg # of iterations =  2.3

     total cpu time spent up to now is     1564.6 secs

     total energy              =  -10536.07986894 Ry
     Harris-Foulkes estimate   =  -10536.35003876 Ry
     estimated scf accuracy    <       2.67994023 Ry

     total magnetization       =     0.22 Bohr mag/cell
     absolute magnetization    =    46.03 Bohr mag/cell

     iteration #  4     ecut=    71.00 Ry     beta= 0.10
     Davidson diagonalization with overlap
     ethr =  2.14E-04,  avg # of iterations =  2.4

     total cpu time spent up to now is     1883.9 secs

     total energy              =  -10536.18073564 Ry
     Harris-Foulkes estimate   =  -10536.21239673 Ry
     estimated scf accuracy    <       0.52746391 Ry

     total magnetization       =     0.34 Bohr mag/cell
     absolute magnetization    =    47.13 Bohr mag/cell

     iteration #  5     ecut=    71.00 Ry     beta= 0.10
     Davidson diagonalization with overlap
     ethr =  1.03E-04,  avg # of iterations =  1.3

     total cpu time spent up to now is     2132.0 secs

     total energy              =  -10536.19205922 Ry
     Harris-Foulkes estimate   =  -10536.20030700 Ry
     estimated scf accuracy    <       0.08527738 Ry

     total magnetization       =     0.02 Bohr mag/cell
     absolute magnetization    =    47.30 Bohr mag/cell

     iteration #  6     ecut=    71.00 Ry     beta= 0.10
     Davidson diagonalization with overlap
     ethr =  1.67E-05,  avg # of iterations =  3.4

     total cpu time spent up to now is     2512.0 secs

     total energy              =  -10536.18463747 Ry
     Harris-Foulkes estimate   =  -10536.19549481 Ry
     estimated scf accuracy    <       0.07230103 Ry

     total magnetization       =    -0.10 Bohr mag/cell
     absolute magnetization    =    47.28 Bohr mag/cell

     iteration #  7     ecut=    71.00 Ry     beta= 0.10
     Davidson diagonalization with overlap
     ethr =  1.41E-05,  avg # of iterations =  3.8

     total cpu time spent up to now is     3054.3 secs

     total energy              =  -10536.20259384 Ry
     Harris-Foulkes estimate   =  -10536.20298392 Ry
     estimated scf accuracy    <       0.10557960 Ry

     total magnetization       =     0.02 Bohr mag/cell
     absolute magnetization    =    47.52 Bohr mag/cell

     iteration #  8     ecut=    71.00 Ry     beta= 0.10
     Davidson diagonalization with overlap
     ethr =  1.41E-05,  avg # of iterations =  2.1

     total cpu time spent up to now is     3364.3 secs

     total energy              =  -10536.20325879 Ry
     Harris-Foulkes estimate   =  -10536.20716120 Ry
     estimated scf accuracy    <       0.07465480 Ry

     total magnetization       =     0.07 Bohr mag/cell
     absolute magnetization    =    47.81 Bohr mag/cell

     iteration #  9     ecut=    71.00 Ry     beta= 0.10
     Davidson diagonalization with overlap
     ethr =  1.41E-05,  avg # of iterations =  1.0

     total cpu time spent up to now is     3594.1 secs

     total energy              =  -10536.21435668 Ry
     Harris-Foulkes estimate   =  -10536.20483077 Ry
     estimated scf accuracy    <       0.04032040 Ry

     total magnetization       =     0.01 Bohr mag/cell
     absolute magnetization    =    48.01 Bohr mag/cell

     iteration # 10     ecut=    71.00 Ry     beta= 0.10
     Davidson diagonalization with overlap
     ethr =  7.88E-06,  avg # of iterations =  2.9

     total cpu time spent up to now is     3975.8 secs

     total energy              =  -10536.23945628 Ry
     Harris-Foulkes estimate   =  -10536.21765691 Ry
     estimated scf accuracy    <       0.03202925 Ry

     total magnetization       =    -0.08 Bohr mag/cell
     absolute magnetization    =    48.40 Bohr mag/cell

     iteration # 11     ecut=    71.00 Ry     beta= 0.10
     Davidson diagonalization with overlap
     ethr =  6.26E-06,  avg # of iterations =  3.4

     total cpu time spent up to now is     4472.2 secs

     total energy              =  -10536.25201667 Ry
     Harris-Foulkes estimate   =  -10536.24965328 Ry
     estimated scf accuracy    <       0.02968619 Ry

     total magnetization       =    -0.12 Bohr mag/cell
     absolute magnetization    =    49.31 Bohr mag/cell

     iteration # 12     ecut=    71.00 Ry     beta= 0.10
     Davidson diagonalization with overlap
     ethr =  5.80E-06,  avg # of iterations =  1.5

     total cpu time spent up to now is     4739.8 secs

     total energy              =  -10536.25348647 Ry
     Harris-Foulkes estimate   =  -10536.25377043 Ry
     estimated scf accuracy    <       0.00943384 Ry

     total magnetization       =    -0.03 Bohr mag/cell
     absolute magnetization    =    49.68 Bohr mag/cell

     iteration # 13     ecut=    71.00 Ry     beta= 0.10
     Davidson diagonalization with overlap
     ethr =  1.84E-06,  avg # of iterations =  3.2

     total cpu time spent up to now is     5143.6 secs

     total energy              =  -10536.25429045 Ry
     Harris-Foulkes estimate   =  -10536.25424422 Ry
     estimated scf accuracy    <       0.00242207 Ry

     total magnetization       =    -0.02 Bohr mag/cell
     absolute magnetization    =    49.85 Bohr mag/cell

     iteration # 14     ecut=    71.00 Ry     beta= 0.10
     Davidson diagonalization with overlap
     ethr =  4.73E-07,  avg # of iterations =  1.5

     total cpu time spent up to now is     5403.2 secs

     total energy              =  -10536.25437703 Ry
     Harris-Foulkes estimate   =  -10536.25433688 Ry
     estimated scf accuracy    <       0.00157622 Ry

     total magnetization       =    -0.02 Bohr mag/cell
     absolute magnetization    =    49.87 Bohr mag/cell

     iteration # 15     ecut=    71.00 Ry     beta= 0.10
     Davidson diagonalization with overlap
     ethr =  3.08E-07,  avg # of iterations =  1.4

     total cpu time spent up to now is     5655.2 secs

     total energy              =  -10536.25467041 Ry
     Harris-Foulkes estimate   =  -10536.25444970 Ry
     estimated scf accuracy    <       0.00105623 Ry

     total magnetization       =    -0.01 Bohr mag/cell
     absolute magnetization    =    49.98 Bohr mag/cell

     iteration # 16     ecut=    71.00 Ry     beta= 0.10
     Davidson diagonalization with overlap
     ethr =  2.06E-07,  avg # of iterations =  2.0

     total cpu time spent up to now is     5946.2 secs

     total energy              =  -10536.25469343 Ry
     Harris-Foulkes estimate   =  -10536.25475229 Ry
     estimated scf accuracy    <       0.00109006 Ry

     total magnetization       =     0.01 Bohr mag/cell
     absolute magnetization    =    50.12 Bohr mag/cell

     iteration # 17     ecut=    71.00 Ry     beta= 0.10
     Davidson diagonalization with overlap
     ethr =  2.06E-07,  avg # of iterations =  1.2

     total cpu time spent up to now is     6190.7 secs

     total energy              =  -10536.25489119 Ry
     Harris-Foulkes estimate   =  -10536.25475387 Ry
     estimated scf accuracy    <       0.00084876 Ry

     total magnetization       =    -0.03 Bohr mag/cell
     absolute magnetization    =    50.14 Bohr mag/cell

     iteration # 18     ecut=    71.00 Ry     beta= 0.10
     Davidson diagonalization with overlap
     ethr =  1.66E-07,  avg # of iterations =  1.4

     total cpu time spent up to now is     6445.2 secs

     total energy              =  -10536.25509868 Ry
     Harris-Foulkes estimate   =  -10536.25493258 Ry
     estimated scf accuracy    <       0.00054584 Ry

     total magnetization       =    -0.01 Bohr mag/cell
     absolute magnetization    =    50.24 Bohr mag/cell

     iteration # 19     ecut=    71.00 Ry     beta= 0.10
     Davidson diagonalization with overlap
     ethr =  1.07E-07,  avg # of iterations =  2.6

     total cpu time spent up to now is     6785.4 secs

     total energy              =  -10536.25526993 Ry
     Harris-Foulkes estimate   =  -10536.25513819 Ry
     estimated scf accuracy    <       0.00039096 Ry

     total magnetization       =    -0.01 Bohr mag/cell
     absolute magnetization    =    50.36 Bohr mag/cell

     iteration # 20     ecut=    71.00 Ry     beta= 0.10
     Davidson diagonalization with overlap
     ethr =  7.64E-08,  avg # of iterations =  2.7

     total cpu time spent up to now is     7130.2 secs

     total energy              =  -10536.25542034 Ry
     Harris-Foulkes estimate   =  -10536.25531304 Ry
     estimated scf accuracy    <       0.00041962 Ry

     total magnetization       =    -0.01 Bohr mag/cell
     absolute magnetization    =    50.50 Bohr mag/cell

     iteration # 21     ecut=    71.00 Ry     beta= 0.10
     Davidson diagonalization with overlap
     ethr =  7.64E-08,  avg # of iterations =  2.8

     total cpu time spent up to now is     7495.4 secs

     total energy              =  -10536.25550292 Ry
     Harris-Foulkes estimate   =  -10536.25547278 Ry
     estimated scf accuracy    <       0.00016621 Ry

     total magnetization       =    -0.01 Bohr mag/cell
     absolute magnetization    =    50.67 Bohr mag/cell

     iteration # 22     ecut=    71.00 Ry     beta= 0.10
     Davidson diagonalization with overlap
     ethr =  3.25E-08,  avg # of iterations =  2.6

     total cpu time spent up to now is     7829.8 secs

     total energy              =  -10536.25552972 Ry
     Harris-Foulkes estimate   =  -10536.25551644 Ry
     estimated scf accuracy    <       0.00011875 Ry

     total magnetization       =    -0.00 Bohr mag/cell
     absolute magnetization    =    50.75 Bohr mag/cell

     iteration # 23     ecut=    71.00 Ry     beta= 0.10
     Davidson diagonalization with overlap
     ethr =  2.32E-08,  avg # of iterations =  1.6

     total cpu time spent up to now is     8099.7 secs

     total energy              =  -10536.25554876 Ry
     Harris-Foulkes estimate   =  -10536.25553403 Ry
     estimated scf accuracy    <       0.00009619 Ry

     total magnetization       =    -0.00 Bohr mag/cell
     absolute magnetization    =    50.79 Bohr mag/cell

     iteration # 24     ecut=    71.00 Ry     beta= 0.10
     Davidson diagonalization with overlap
     ethr =  1.88E-08,  avg # of iterations =  2.4

     total cpu time spent up to now is     8425.4 secs

     total energy              =  -10536.25554273 Ry
     Harris-Foulkes estimate   =  -10536.25555552 Ry
     estimated scf accuracy    <       0.00009736 Ry

     total magnetization       =    -0.01 Bohr mag/cell
     absolute magnetization    =    50.85 Bohr mag/cell

     iteration # 25     ecut=    71.00 Ry     beta= 0.10
     Davidson diagonalization with overlap
     ethr =  1.88E-08,  avg # of iterations =  3.1

     total cpu time spent up to now is     8893.3 secs

     total energy              =  -10536.25558701 Ry
     Harris-Foulkes estimate   =  -10536.25558540 Ry
     estimated scf accuracy    <       0.00003135 Ry

     total magnetization       =    -0.00 Bohr mag/cell
     absolute magnetization    =    51.02 Bohr mag/cell

     iteration # 26     ecut=    71.00 Ry     beta= 0.10
     Davidson diagonalization with overlap
     ethr =  6.12E-09,  avg # of iterations =  1.5

     total cpu time spent up to now is     9153.3 secs

     total energy              =  -10536.25559076 Ry
     Harris-Foulkes estimate   =  -10536.25558875 Ry
     estimated scf accuracy    <       0.00002371 Ry

     total magnetization       =    -0.00 Bohr mag/cell
     absolute magnetization    =    51.03 Bohr mag/cell

     iteration # 27     ecut=    71.00 Ry     beta= 0.10
     Davidson diagonalization with overlap
     ethr =  4.63E-09,  avg # of iterations =  1.0

     total cpu time spent up to now is     9384.1 secs

     total energy              =  -10536.25559538 Ry
     Harris-Foulkes estimate   =  -10536.25559148 Ry
     estimated scf accuracy    <       0.00001697 Ry

     total magnetization       =    -0.00 Bohr mag/cell
     absolute magnetization    =    51.04 Bohr mag/cell

     iteration # 28     ecut=    71.00 Ry     beta= 0.10
     Davidson diagonalization with overlap
     ethr =  3.31E-09,  avg # of iterations =  1.0

     total cpu time spent up to now is     9618.8 secs

     total energy              =  -10536.25559929 Ry
     Harris-Foulkes estimate   =  -10536.25559619 Ry
     estimated scf accuracy    <       0.00001409 Ry

     total magnetization       =    -0.00 Bohr mag/cell
     absolute magnetization    =    51.06 Bohr mag/cell

     iteration # 29     ecut=    71.00 Ry     beta= 0.10
     Davidson diagonalization with overlap
     ethr =  2.75E-09,  avg # of iterations =  1.7

     total cpu time spent up to now is     9899.3 secs

     total energy              =  -10536.25560295 Ry
     Harris-Foulkes estimate   =  -10536.25560003 Ry
     estimated scf accuracy    <       0.00001154 Ry

     total magnetization       =    -0.00 Bohr mag/cell
     absolute magnetization    =    51.07 Bohr mag/cell

     iteration # 30     ecut=    71.00 Ry     beta= 0.10
     Davidson diagonalization with overlap
     ethr =  2.25E-09,  avg # of iterations =  2.8

     total cpu time spent up to now is    10256.9 secs

     total energy              =  -10536.25560623 Ry
     Harris-Foulkes estimate   =  -10536.25560416 Ry
     estimated scf accuracy    <       0.00000741 Ry

     total magnetization       =    -0.00 Bohr mag/cell
     absolute magnetization    =    51.09 Bohr mag/cell

     iteration # 31     ecut=    71.00 Ry     beta= 0.10
     Davidson diagonalization with overlap
     ethr =  1.45E-09,  avg # of iterations =  1.8

     total cpu time spent up to now is    10545.9 secs

     total energy              =  -10536.25560721 Ry
     Harris-Foulkes estimate   =  -10536.25560677 Ry
     estimated scf accuracy    <       0.00000532 Ry

     total magnetization       =    -0.00 Bohr mag/cell
     absolute magnetization    =    51.10 Bohr mag/cell

     iteration # 32     ecut=    71.00 Ry     beta= 0.10
     Davidson diagonalization with overlap
     ethr =  1.04E-09,  avg # of iterations =  1.3

     total cpu time spent up to now is    10795.5 secs

     total energy              =  -10536.25560787 Ry
     Harris-Foulkes estimate   =  -10536.25560743 Ry
     estimated scf accuracy    <       0.00000268 Ry

     total magnetization       =    -0.00 Bohr mag/cell
     absolute magnetization    =    51.11 Bohr mag/cell

     iteration # 33     ecut=    71.00 Ry     beta= 0.10
     Davidson diagonalization with overlap
     ethr =  5.23E-10,  avg # of iterations =  1.8

     total cpu time spent up to now is    11078.4 secs

     total energy              =  -10536.25560853 Ry
     Harris-Foulkes estimate   =  -10536.25560796 Ry
     estimated scf accuracy    <       0.00000211 Ry

     total magnetization       =    -0.00 Bohr mag/cell
     absolute magnetization    =    51.11 Bohr mag/cell

     iteration # 34     ecut=    71.00 Ry     beta= 0.10
     Davidson diagonalization with overlap
     ethr =  4.13E-10,  avg # of iterations =  3.3

     total cpu time spent up to now is    11544.0 secs

     total energy              =  -10536.25560942 Ry
     Harris-Foulkes estimate   =  -10536.25560943 Ry
     estimated scf accuracy    <       0.00000113 Ry

     total magnetization       =    -0.00 Bohr mag/cell
     absolute magnetization    =    51.13 Bohr mag/cell

     iteration # 35     ecut=    71.00 Ry     beta= 0.10
     Davidson diagonalization with overlap
     ethr =  2.20E-10,  avg # of iterations =  1.0
 
     Magnetic moment per site:
     atom:    1    charge:   14.3808    magn:    1.5378    constr:    0.0000
     atom:    2    charge:   14.3811    magn:   -1.5377    constr:    0.0000
     atom:    3    charge:   14.3804    magn:    1.5401    constr:    0.0000
     atom:    4    charge:   14.3809    magn:   -1.5415    constr:    0.0000
     atom:    5    charge:   14.3806    magn:    1.5385    constr:    0.0000
     atom:    6    charge:   14.3810    magn:   -1.5373    constr:    0.0000
     atom:    7    charge:   14.3804    magn:    1.5401    constr:    0.0000
     atom:    8    charge:   14.3809    magn:   -1.5415    constr:    0.0000
     atom:    9    charge:   14.3809    magn:    1.5385    constr:    0.0000
     atom:   10    charge:   14.3811    magn:   -1.5377    constr:    0.0000
     atom:   11    charge:   14.3804    magn:    1.5396    constr:    0.0000
     atom:   12    charge:   14.3809    magn:   -1.5415    constr:    0.0000
     atom:   13    charge:   14.3807    magn:    1.5391    constr:    0.0000
     atom:   14    charge:   14.3810    magn:   -1.5373    constr:    0.0000
     atom:   15    charge:   14.3804    magn:    1.5396    constr:    0.0000
     atom:   16    charge:   14.3809    magn:   -1.5415    constr:    0.0000
     atom:   17    charge:   14.3807    magn:    1.5390    constr:    0.0000
     atom:   18    charge:   14.3811    magn:   -1.5377    constr:    0.0000
     atom:   19    charge:   14.3804    magn:    1.5401    constr:    0.0000
     atom:   20    charge:   14.3811    magn:   -1.5405    constr:    0.0000
     atom:   21    charge:   14.3807    magn:    1.5392    constr:    0.0000
     atom:   22    charge:   14.3810    magn:   -1.5373    constr:    0.0000
     atom:   23    charge:   14.3804    magn:    1.5401    constr:    0.0000
     atom:   24    charge:   14.3811    magn:   -1.5405    constr:    0.0000
     atom:   25    charge:   14.3809    magn:    1.5380    constr:    0.0000
     atom:   26    charge:   14.3811    magn:   -1.5377    constr:    0.0000
     atom:   27    charge:   14.3804    magn:    1.5396    constr:    0.0000
     atom:   28    charge:   14.3811    magn:   -1.5405    constr:    0.0000
     atom:   29    charge:   14.3808    magn:    1.5381    constr:    0.0000
     atom:   30    charge:   14.3810    magn:   -1.5373    constr:    0.0000
     atom:   31    charge:   14.3804    magn:    1.5396    constr:    0.0000
     atom:   32    charge:   14.3811    magn:   -1.5405    constr:    0.0000

     total cpu time spent up to now is    11772.6 secs

     End of self-consistent calculation

     Number of k-points >= 100: set verbosity='high' to print the bands.

     the Fermi energy is    19.9262 ev

!    total energy              =  -10536.25560967 Ry
     Harris-Foulkes estimate   =  -10536.25560949 Ry
     estimated scf accuracy    <       0.00000067 Ry

     total all-electron energy =    -81457.744668 Ry

     The total energy is the sum of the following terms:

     one-electron contribution =   -3317.42635893 Ry
     hartree contribution      =    2005.56725963 Ry
     xc contribution           =    -886.86172823 Ry
     ewald contribution        =   -5687.99831978 Ry
     one-center paw contrib.   =   -2649.55595398 Ry
     smearing contrib. (-TS)   =       0.01949162 Ry

     total magnetization       =    -0.00 Bohr mag/cell
     absolute magnetization    =    51.13 Bohr mag/cell

     convergence has been achieved in  35 iterations

     Forces acting on atoms (cartesian axes, Ry/au):

     atom    1 type  1   force =     0.00000000    0.00000000    0.00000000
     atom    2 type  2   force =    -0.00002866   -0.00000663    0.00000000
     atom    3 type  3   force =    -0.00004766    0.00000000    0.00000744
     atom    4 type  4   force =     0.00000000    0.00000289    0.00000975
     atom    5 type  1   force =     0.00000000    0.00000000    0.00000000
     atom    6 type  2   force =    -0.00004473    0.00000695    0.00000000
     atom    7 type  3   force =    -0.00004766   -0.00000000   -0.00000744
     atom    8 type  4   force =     0.00000000    0.00000289   -0.00000975
     atom    9 type  1   force =     0.00000000    0.00000000    0.00000000
     atom   10 type  2   force =    -0.00002866    0.00000663    0.00000000
     atom   11 type  3   force =    -0.00003030    0.00000000    0.00000519
     atom   12 type  4   force =     0.00000000   -0.00000289    0.00000975
     atom   13 type  1   force =     0.00000000    0.00000000    0.00000000
     atom   14 type  2   force =    -0.00004473   -0.00000695    0.00000000
     atom   15 type  3   force =    -0.00003030    0.00000000   -0.00000519
     atom   16 type  4   force =     0.00000000   -0.00000289   -0.00000975
     atom   17 type  1   force =     0.00000000    0.00000000    0.00000000
     atom   18 type  2   force =     0.00002866   -0.00000663    0.00000000
     atom   19 type  3   force =     0.00004766   -0.00000000    0.00000744
     atom   20 type  4   force =     0.00000000    0.00001468    0.00001959
     atom   21 type  1   force =     0.00000000    0.00000000    0.00000000
     atom   22 type  2   force =     0.00004473    0.00000695    0.00000000
     atom   23 type  3   force =     0.00004766    0.00000000   -0.00000744
     atom   24 type  4   force =     0.00000000    0.00001468   -0.00001959
     atom   25 type  1   force =     0.00000000    0.00000000    0.00000000
     atom   26 type  2   force =     0.00002866    0.00000663    0.00000000
     atom   27 type  3   force =     0.00003030    0.00000000    0.00000519
     atom   28 type  4   force =     0.00000000   -0.00001468    0.00001959
     atom   29 type  1   force =     0.00000000    0.00000000    0.00000000
     atom   30 type  2   force =     0.00004473   -0.00000695    0.00000000
     atom   31 type  3   force =     0.00003030    0.00000000   -0.00000519
     atom   32 type  4   force =     0.00000000   -0.00001468   -0.00001959

     Total force =     0.000166     Total SCF correction =     0.004474
     SCF correction compared to forces is large: reduce conv_thr to get better values


     Computing stress (Cartesian axis) and pressure

          total   stress  (Ry/bohr**3)                   (kbar)     P=  -12.75
  -0.00005508   0.00000000   0.00000000         -8.10      0.00      0.00
   0.00000000  -0.00014987   0.00000000          0.00    -22.05      0.00
   0.00000000   0.00000000  -0.00005513          0.00      0.00     -8.11


     Writing output data file HxgiRroJvITKWUIY.save/
-------------------------------------------------------
Primary job  terminated normally, but 1 process returned
a non-zero exit code.. Per user-direction, the job has been aborted.
-------------------------------------------------------
--------------------------------------------------------------------------
mpirun detected that one or more processes exited with non-zero status, thus causing
the job to be terminated. The first process to do so was:

  Process name: [[51532,1],0]
  Exit code:    38
--------------------------------------------------------------------------
