--------------------------------------------------------------------------
WARNING: No preset parameters were found for the device that Open MPI
detected:

  Local host:            bear-pg0206u13b
  Device name:           mlx5_0
  Device vendor ID:      0x02c9
  Device vendor part ID: 4123

Default device parameters will be used, which may result in lower
performance.  You can edit any of the files specified by the
btl_openib_device_param_files MCA parameter to set values for your
device.

NOTE: You can turn off this warning by setting the MCA parameter
      btl_openib_warn_no_device_params_found to 0.
--------------------------------------------------------------------------
--------------------------------------------------------------------------
WARNING: There was an error initializing an OpenFabrics device.

  Local host:   bear-pg0206u13b
  Local device: mlx5_0
--------------------------------------------------------------------------

     Program PWSCF v.6.3 starts on 13Oct2020 at 17:44: 3 

     This program is part of the open-source Quantum ESPRESSO suite
     for quantum simulation of materials; please cite
         "P. Giannozzi et al., J. Phys.:Condens. Matter 21 395502 (2009);
         "P. Giannozzi et al., J. Phys.:Condens. Matter 29 465901 (2017);
          URL http://www.quantum-espresso.org", 
     in publications or presentations arising from this work. More details at
     http://www.quantum-espresso.org/quote

     Parallel version (MPI & OpenMP), running on      40 processor cores
     Number of MPI processes:                40
     Threads/MPI process:                     1

     MPI processes distributed on     1 nodes
     R & G space division:  proc/nbgrp/npool/nimage =      40
     Reading input from wd/ec/ec_4_006.in
Warning: card &IONS ignored
Warning: card ION_DYNAMICS = 'BFGS', ignored
Warning: card / ignored
Warning: card &CELL ignored
Warning: card CELL_DYNAMICS = 'BFGS', ignored
Warning: card CELL_FACTOR = 2.0, ignored
Warning: card PRESS = 0.0, ignored
Warning: card / ignored

     Current dimensions of program PWSCF are:
     Max number of different atomic species (ntypx) = 10
     Max number of k-points (npk) =  40000
     Max angular momentum in pseudopotentials (lmaxx) =  3
               file Fe.pbe-spn-kjpaw_psl.1.0.0.UPF: wavefunction(s)  3P 3D renormalized
               file Fe.pbe-spn-kjpaw_psl.1.0.0.UPF: wavefunction(s)  3P 3D renormalized
               file Fe.pbe-spn-kjpaw_psl.1.0.0.UPF: wavefunction(s)  3P 3D renormalized
               file Fe.pbe-spn-kjpaw_psl.1.0.0.UPF: wavefunction(s)  3P 3D renormalized

     Subspace diagonalization in iterative solution of the eigenvalue problem:
     a serial algorithm will be used

     Found symmetry operation: I + (  0.0000 -0.0000 -0.5000)
     This is a supercell, fractional translations are disabled
 
     Parallelization info
     --------------------
     sticks:   dense  smooth     PW     G-vecs:    dense   smooth      PW
     Min         150      99     27                 8593     4611     664
     Max         151     100     28                 8599     4617     669
     Sum        6035    3993   1103               343853   184593   26649
 


     bravais-lattice index     =            0
     lattice parameter (alat)  =      12.9382  a.u.
     unit-cell volume          =    2283.7593 (a.u.)^3
     number of atoms/cell      =           32
     number of atomic types    =            4
     number of electrons       =       512.00
     number of Kohn-Sham states=          307
     kinetic-energy cutoff     =      71.0000  Ry
     charge density cutoff     =     430.0000  Ry
     convergence threshold     =      1.0E-06
     mixing beta               =       0.1000
     number of iterations used =           10  plain     mixing
     Exchange-correlation      = SLA PW PBX PBC ( 1  4  3  4 0 0)

     celldm(1)=  12.938187  celldm(2)=   0.000000  celldm(3)=   0.000000
     celldm(4)=   0.000000  celldm(5)=   0.000000  celldm(6)=   0.000000

     crystal axes: (cart. coord. in units of alat)
               a(1) = (   1.000023   0.000000   0.000000 )  
               a(2) = (   0.000000   1.054498   0.008333 )  
               a(3) = (   0.000000   0.008787   1.000010 )  

     reciprocal axes: (cart. coord. in units 2 pi/alat)
               b(1) = (  0.999977  0.000000  0.000000 )  
               b(2) = (  0.000000  0.948384 -0.008334 )  
               b(3) = (  0.000000 -0.007903  1.000059 )  


     PseudoPot. # 1 for Fe read from file:
     /rds/homes/b/bxp912/pp/Fe.pbe-spn-kjpaw_psl.1.0.0.UPF
     MD5 check sum: 42f43b795421b414b0dc916aa790dbcb
     Pseudo is Projector augmented-wave + core cor, Zval = 16.0
     Generated using "atomic" code by A. Dal Corso v.6.3
     Shape of augmentation charge: PSQ
     Using radial grid of 1191 points,  6 beta functions with: 
                l(1) =   0
                l(2) =   0
                l(3) =   1
                l(4) =   1
                l(5) =   2
                l(6) =   2
     Q(r) pseudized with 0 coefficients 


     PseudoPot. # 2 for Fe read from file:
     /rds/homes/b/bxp912/pp/Fe.pbe-spn-kjpaw_psl.1.0.0.UPF
     MD5 check sum: 42f43b795421b414b0dc916aa790dbcb
     Pseudo is Projector augmented-wave + core cor, Zval = 16.0
     Generated using "atomic" code by A. Dal Corso v.6.3
     Shape of augmentation charge: PSQ
     Using radial grid of 1191 points,  6 beta functions with: 
                l(1) =   0
                l(2) =   0
                l(3) =   1
                l(4) =   1
                l(5) =   2
                l(6) =   2
     Q(r) pseudized with 0 coefficients 


     PseudoPot. # 3 for Fe read from file:
     /rds/homes/b/bxp912/pp/Fe.pbe-spn-kjpaw_psl.1.0.0.UPF
     MD5 check sum: 42f43b795421b414b0dc916aa790dbcb
     Pseudo is Projector augmented-wave + core cor, Zval = 16.0
     Generated using "atomic" code by A. Dal Corso v.6.3
     Shape of augmentation charge: PSQ
     Using radial grid of 1191 points,  6 beta functions with: 
                l(1) =   0
                l(2) =   0
                l(3) =   1
                l(4) =   1
                l(5) =   2
                l(6) =   2
     Q(r) pseudized with 0 coefficients 


     PseudoPot. # 4 for Fe read from file:
     /rds/homes/b/bxp912/pp/Fe.pbe-spn-kjpaw_psl.1.0.0.UPF
     MD5 check sum: 42f43b795421b414b0dc916aa790dbcb
     Pseudo is Projector augmented-wave + core cor, Zval = 16.0
     Generated using "atomic" code by A. Dal Corso v.6.3
     Shape of augmentation charge: PSQ
     Using radial grid of 1191 points,  6 beta functions with: 
                l(1) =   0
                l(2) =   0
                l(3) =   1
                l(4) =   1
                l(5) =   2
                l(6) =   2
     Q(r) pseudized with 0 coefficients 


     atomic species   valence    mass     pseudopotential
        Fe1           16.00    55.84500     Fe( 1.00)
        Fe2           16.00    55.84500     Fe( 1.00)
        Fe3           16.00    55.84500     Fe( 1.00)
        Fe4           16.00    55.84500     Fe( 1.00)

     Starting magnetic structure 
     atomic species   magnetization
        Fe1          0.100
        Fe2         -0.100
        Fe3          0.100
        Fe4         -0.100

      4 Sym. Ops., with inversion, found



   Cartesian axes

     site n.     atom                  positions (alat units)
         1           Fe1 tau(   1) = (   0.0000000   0.0000000   0.0000000  )
         2           Fe2 tau(   2) = (   0.2500026   0.2636272   0.0020834  )
         3           Fe3 tau(   3) = (   0.2500039   0.0021969   0.2500005  )
         4           Fe4 tau(   4) = (   0.0000000   0.2658227   0.2520899  )
         5           Fe1 tau(   5) = (   0.0000000   0.0043937   0.5000051  )
         6           Fe2 tau(   6) = (   0.2500054   0.2680237   0.5020885  )
         7           Fe3 tau(   7) = (   0.2500039   0.0065906   0.7500086  )
         8           Fe4 tau(   8) = (   0.0000000   0.2702163   0.7520860  )
         9           Fe1 tau(   9) = (   0.0000000   0.5272492   0.0041667  )
        10           Fe2 tau(  10) = (   0.2500026   0.7908712   0.0062500  )
        11           Fe3 tau(  11) = (   0.2500061   0.5294460   0.2541712  )
        12           Fe4 tau(  12) = (   0.0000000   0.7930695   0.2562566  )
        13           Fe1 tau(  13) = (   0.0000000   0.5316429   0.5041718  )
        14           Fe2 tau(  14) = (   0.2500054   0.7952622   0.5062551  )
        15           Fe3 tau(  15) = (   0.2500061   0.5338397   0.7541723  )
        16           Fe4 tau(  16) = (   0.0000000   0.7974632   0.7562526  )
        17           Fe1 tau(  17) = (   0.5000114   0.0000000   0.0000000  )
        18           Fe2 tau(  18) = (   0.7500200   0.2636272   0.0020834  )
        19           Fe3 tau(  19) = (   0.7500188   0.0021969   0.2500005  )
        20           Fe4 tau(  20) = (   0.5000114   0.2658217   0.2520879  )
        21           Fe1 tau(  21) = (   0.5000114   0.0043937   0.5000051  )
        22           Fe2 tau(  22) = (   0.7500172   0.2680237   0.5020885  )
        23           Fe3 tau(  23) = (   0.7500188   0.0065906   0.7500086  )
        24           Fe4 tau(  24) = (   0.5000114   0.2702154   0.7520879  )
        25           Fe1 tau(  25) = (   0.5000114   0.5272492   0.0041667  )
        26           Fe2 tau(  26) = (   0.7500200   0.7908712   0.0062500  )
        27           Fe3 tau(  27) = (   0.7500166   0.5294460   0.2541712  )
        28           Fe4 tau(  28) = (   0.5000114   0.7930705   0.2562546  )
        29           Fe1 tau(  29) = (   0.5000114   0.5316429   0.5041718  )
        30           Fe2 tau(  30) = (   0.7500172   0.7952622   0.5062551  )
        31           Fe3 tau(  31) = (   0.7500166   0.5338397   0.7541723  )
        32           Fe4 tau(  32) = (   0.5000114   0.7974642   0.7562547  )

     number of k points=   205  Marzari-Vanderbilt smearing, width (Ry)=  0.0400

     Number of k-points >= 100: set verbosity='high' to print them.

     Dense  grid:   343853 G-vectors     FFT dimensions: (  90,  96,  90)

     Smooth grid:   184593 G-vectors     FFT dimensions: (  72,  75,  72)

     Estimated max dynamical RAM per process >       1.21 GB

     Estimated total dynamical RAM >      48.54 GB
     Generating pointlists ...
     new r_m :   0.1458 (alat units)  1.8870 (a.u.) for type    1
     new r_m :   0.1458 (alat units)  1.8870 (a.u.) for type    2
     new r_m :   0.1458 (alat units)  1.8870 (a.u.) for type    3
     new r_m :   0.1458 (alat units)  1.8870 (a.u.) for type    4

     Check: negative/imaginary core charge=   -0.000006    0.000000

     Initial potential from superposition of free atoms

     starting charge  511.98600, renormalised to  512.00000
     Starting wfcs are  320 randomized atomic wfcs
     Checking if some PAW data can be deallocated... 

     total cpu time spent up to now is      137.7 secs

     Self-consistent Calculation

     iteration #  1     ecut=    71.00 Ry     beta= 0.10
     Davidson diagonalization with overlap
     ethr =  1.00E-02,  avg # of iterations =  3.7

     Threshold (ethr) on eigenvalues was too large:
     Diagonalizing with lowered threshold

     Davidson diagonalization with overlap
     ethr =  3.47E-04,  avg # of iterations =  4.0

     total cpu time spent up to now is     1753.2 secs

     total energy              =  -10536.53105886 Ry
     Harris-Foulkes estimate   =  -10536.93175939 Ry
     estimated scf accuracy    <       2.04811036 Ry

     total magnetization       =     0.15 Bohr mag/cell
     absolute magnetization    =    44.36 Bohr mag/cell

     iteration #  2     ecut=    71.00 Ry     beta= 0.10
     Davidson diagonalization with overlap
     ethr =  4.00E-04,  avg # of iterations =  1.0

     total cpu time spent up to now is     2133.7 secs

     total energy              =  -10536.26259943 Ry
     Harris-Foulkes estimate   =  -10536.58043601 Ry
     estimated scf accuracy    <       1.21047378 Ry

     total magnetization       =    -0.19 Bohr mag/cell
     absolute magnetization    =    45.02 Bohr mag/cell

     iteration #  3     ecut=    71.00 Ry     beta= 0.10
     Davidson diagonalization with overlap
     ethr =  2.36E-04,  avg # of iterations =  2.3

     total cpu time spent up to now is     2666.2 secs

     total energy              =  -10536.08306598 Ry
     Harris-Foulkes estimate   =  -10536.40682200 Ry
     estimated scf accuracy    <       2.69873301 Ry

     total magnetization       =     0.26 Bohr mag/cell
     absolute magnetization    =    45.41 Bohr mag/cell

     iteration #  4     ecut=    71.00 Ry     beta= 0.10
     Davidson diagonalization with overlap
     ethr =  2.36E-04,  avg # of iterations =  2.4

     total cpu time spent up to now is     3220.0 secs

     total energy              =  -10536.18384009 Ry
     Harris-Foulkes estimate   =  -10536.22798156 Ry
     estimated scf accuracy    <       0.66136578 Ry

     total magnetization       =     0.30 Bohr mag/cell
     absolute magnetization    =    46.33 Bohr mag/cell

     iteration #  5     ecut=    71.00 Ry     beta= 0.10
     Davidson diagonalization with overlap
     ethr =  1.29E-04,  avg # of iterations =  1.2

     total cpu time spent up to now is     3622.2 secs

     total energy              =  -10536.19526832 Ry
     Harris-Foulkes estimate   =  -10536.20698342 Ry
     estimated scf accuracy    <       0.08834334 Ry

     total magnetization       =     0.00 Bohr mag/cell
     absolute magnetization    =    46.49 Bohr mag/cell

     iteration #  6     ecut=    71.00 Ry     beta= 0.10
     Davidson diagonalization with overlap
     ethr =  1.73E-05,  avg # of iterations =  3.4

     total cpu time spent up to now is     4275.3 secs

     total energy              =  -10536.16961630 Ry
     Harris-Foulkes estimate   =  -10536.19840363 Ry
     estimated scf accuracy    <       0.06955999 Ry

     total magnetization       =    -0.12 Bohr mag/cell
     absolute magnetization    =    46.44 Bohr mag/cell

     iteration #  7     ecut=    71.00 Ry     beta= 0.10
     Davidson diagonalization with overlap
     ethr =  1.36E-05,  avg # of iterations =  4.0

     total cpu time spent up to now is     5260.3 secs

     total energy              =  -10536.18667460 Ry
     Harris-Foulkes estimate   =  -10536.19585683 Ry
     estimated scf accuracy    <       0.09000123 Ry

     total magnetization       =     0.04 Bohr mag/cell
     absolute magnetization    =    46.56 Bohr mag/cell

     iteration #  8     ecut=    71.00 Ry     beta= 0.10
     Davidson diagonalization with overlap
     ethr =  1.36E-05,  avg # of iterations =  2.0

     total cpu time spent up to now is     5772.0 secs

     total energy              =  -10536.18915076 Ry
     Harris-Foulkes estimate   =  -10536.19006278 Ry
     estimated scf accuracy    <       0.06113222 Ry

     total magnetization       =     0.01 Bohr mag/cell
     absolute magnetization    =    46.82 Bohr mag/cell

     iteration #  9     ecut=    71.00 Ry     beta= 0.10
     Davidson diagonalization with overlap
     ethr =  1.19E-05,  avg # of iterations =  1.0

     total cpu time spent up to now is     6155.8 secs

     total energy              =  -10536.19976164 Ry
     Harris-Foulkes estimate   =  -10536.18980964 Ry
     estimated scf accuracy    <       0.04854613 Ry

     total magnetization       =    -0.01 Bohr mag/cell
     absolute magnetization    =    46.87 Bohr mag/cell

     iteration # 10     ecut=    71.00 Ry     beta= 0.10
     Davidson diagonalization with overlap
     ethr =  9.48E-06,  avg # of iterations =  3.0

     total cpu time spent up to now is     6861.1 secs

     total energy              =  -10536.22742818 Ry
     Harris-Foulkes estimate   =  -10536.20546681 Ry
     estimated scf accuracy    <       0.03539308 Ry

     total magnetization       =    -0.11 Bohr mag/cell
     absolute magnetization    =    47.30 Bohr mag/cell

     iteration # 11     ecut=    71.00 Ry     beta= 0.10
     Davidson diagonalization with overlap
     ethr =  6.91E-06,  avg # of iterations =  2.7

     total cpu time spent up to now is     7584.2 secs

     total energy              =  -10536.24152424 Ry
     Harris-Foulkes estimate   =  -10536.23632118 Ry
     estimated scf accuracy    <       0.02842534 Ry

     total magnetization       =    -0.10 Bohr mag/cell
     absolute magnetization    =    47.92 Bohr mag/cell

     iteration # 12     ecut=    71.00 Ry     beta= 0.10
     Davidson diagonalization with overlap
     ethr =  5.55E-06,  avg # of iterations =  2.4

     total cpu time spent up to now is     8185.6 secs

     total energy              =  -10536.24523672 Ry
     Harris-Foulkes estimate   =  -10536.24501013 Ry
     estimated scf accuracy    <       0.00617618 Ry

     total magnetization       =    -0.01 Bohr mag/cell
     absolute magnetization    =    48.31 Bohr mag/cell

     iteration # 13     ecut=    71.00 Ry     beta= 0.10
     Davidson diagonalization with overlap
     ethr =  1.21E-06,  avg # of iterations =  2.9

     total cpu time spent up to now is     8808.7 secs

     total energy              =  -10536.24551819 Ry
     Harris-Foulkes estimate   =  -10536.24567209 Ry
     estimated scf accuracy    <       0.00233780 Ry

     total magnetization       =    -0.01 Bohr mag/cell
     absolute magnetization    =    48.42 Bohr mag/cell

     iteration # 14     ecut=    71.00 Ry     beta= 0.10
     Davidson diagonalization with overlap
     ethr =  4.57E-07,  avg # of iterations =  1.5

     total cpu time spent up to now is     9241.2 secs

     total energy              =  -10536.24556635 Ry
     Harris-Foulkes estimate   =  -10536.24559471 Ry
     estimated scf accuracy    <       0.00130457 Ry

     total magnetization       =    -0.02 Bohr mag/cell
     absolute magnetization    =    48.46 Bohr mag/cell

     iteration # 15     ecut=    71.00 Ry     beta= 0.10
     Davidson diagonalization with overlap
     ethr =  2.55E-07,  avg # of iterations =  2.2

     total cpu time spent up to now is     9763.0 secs

     total energy              =  -10536.24579133 Ry
     Harris-Foulkes estimate   =  -10536.24563333 Ry
     estimated scf accuracy    <       0.00087531 Ry

     total magnetization       =    -0.01 Bohr mag/cell
     absolute magnetization    =    48.54 Bohr mag/cell

     iteration # 16     ecut=    71.00 Ry     beta= 0.10
     Davidson diagonalization with overlap
     ethr =  1.71E-07,  avg # of iterations =  1.4

     total cpu time spent up to now is    10189.8 secs

     total energy              =  -10536.24584702 Ry
     Harris-Foulkes estimate   =  -10536.24583870 Ry
     estimated scf accuracy    <       0.00079753 Ry

     total magnetization       =    -0.00 Bohr mag/cell
     absolute magnetization    =    48.62 Bohr mag/cell

     iteration # 17     ecut=    71.00 Ry     beta= 0.10
     Davidson diagonalization with overlap
     ethr =  1.56E-07,  avg # of iterations =  1.1

     total cpu time spent up to now is    10600.8 secs

     total energy              =  -10536.24598989 Ry
     Harris-Foulkes estimate   =  -10536.24588927 Ry
     estimated scf accuracy    <       0.00069452 Ry

     total magnetization       =    -0.03 Bohr mag/cell
     absolute magnetization    =    48.66 Bohr mag/cell

     iteration # 18     ecut=    71.00 Ry     beta= 0.10
     Davidson diagonalization with overlap
     ethr =  1.36E-07,  avg # of iterations =  2.0

     total cpu time spent up to now is    11127.4 secs

     total energy              =  -10536.24615215 Ry
     Harris-Foulkes estimate   =  -10536.24605465 Ry
     estimated scf accuracy    <       0.00064839 Ry

     total magnetization       =    -0.01 Bohr mag/cell
     absolute magnetization    =    48.76 Bohr mag/cell

     iteration # 19     ecut=    71.00 Ry     beta= 0.10
     Davidson diagonalization with overlap
     c_bands:  1 eigenvalues not converged
     ethr =  1.27E-07,  avg # of iterations =  1.2

     total cpu time spent up to now is    11539.8 secs

     total energy              =  -10536.24625921 Ry
     Harris-Foulkes estimate   =  -10536.24618767 Ry
     estimated scf accuracy    <       0.00032352 Ry

     total magnetization       =    -0.01 Bohr mag/cell
     absolute magnetization    =    48.84 Bohr mag/cell

     iteration # 20     ecut=    71.00 Ry     beta= 0.10
     Davidson diagonalization with overlap
     ethr =  6.32E-08,  avg # of iterations =  2.3

     total cpu time spent up to now is    12081.4 secs

     total energy              =  -10536.24632916 Ry
     Harris-Foulkes estimate   =  -10536.24627413 Ry
     estimated scf accuracy    <       0.00027891 Ry

     total magnetization       =    -0.01 Bohr mag/cell
     absolute magnetization    =    48.90 Bohr mag/cell

     iteration # 21     ecut=    71.00 Ry     beta= 0.10
     Davidson diagonalization with overlap
     ethr =  5.45E-08,  avg # of iterations =  1.3

     total cpu time spent up to now is    12505.5 secs

     total energy              =  -10536.24643067 Ry
     Harris-Foulkes estimate   =  -10536.24634085 Ry
     estimated scf accuracy    <       0.00021786 Ry

     total magnetization       =    -0.01 Bohr mag/cell
     absolute magnetization    =    48.96 Bohr mag/cell

     iteration # 22     ecut=    71.00 Ry     beta= 0.10
     Davidson diagonalization with overlap
     ethr =  4.26E-08,  avg # of iterations =  3.2

     total cpu time spent up to now is    13185.5 secs

     total energy              =  -10536.24650060 Ry
     Harris-Foulkes estimate   =  -10536.24647628 Ry
     estimated scf accuracy    <       0.00016417 Ry

     total magnetization       =    -0.01 Bohr mag/cell
     absolute magnetization    =    49.11 Bohr mag/cell

     iteration # 23     ecut=    71.00 Ry     beta= 0.10
     Davidson diagonalization with overlap
     ethr =  3.21E-08,  avg # of iterations =  1.0

     total cpu time spent up to now is    13565.1 secs

     total energy              =  -10536.24651570 Ry
     Harris-Foulkes estimate   =  -10536.24651069 Ry
     estimated scf accuracy    <       0.00008823 Ry

     total magnetization       =    -0.01 Bohr mag/cell
     absolute magnetization    =    49.18 Bohr mag/cell

     iteration # 24     ecut=    71.00 Ry     beta= 0.10
     Davidson diagonalization with overlap
     ethr =  1.72E-08,  avg # of iterations =  2.6

     total cpu time spent up to now is    14141.3 secs

     total energy              =  -10536.24652622 Ry
     Harris-Foulkes estimate   =  -10536.24652314 Ry
     estimated scf accuracy    <       0.00013943 Ry

     total magnetization       =    -0.01 Bohr mag/cell
     absolute magnetization    =    49.22 Bohr mag/cell

     iteration # 25     ecut=    71.00 Ry     beta= 0.10
     Davidson diagonalization with overlap
     ethr =  1.72E-08,  avg # of iterations =  1.0

     total cpu time spent up to now is    14518.4 secs

     total energy              =  -10536.24653768 Ry
     Harris-Foulkes estimate   =  -10536.24653228 Ry
     estimated scf accuracy    <       0.00009570 Ry

     total magnetization       =    -0.01 Bohr mag/cell
     absolute magnetization    =    49.24 Bohr mag/cell

     iteration # 26     ecut=    71.00 Ry     beta= 0.10
     Davidson diagonalization with overlap
     ethr =  1.72E-08,  avg # of iterations =  1.8

     total cpu time spent up to now is    14989.8 secs

     total energy              =  -10536.24655184 Ry
     Harris-Foulkes estimate   =  -10536.24654612 Ry
     estimated scf accuracy    <       0.00005888 Ry

     total magnetization       =    -0.01 Bohr mag/cell
     absolute magnetization    =    49.31 Bohr mag/cell

     iteration # 27     ecut=    71.00 Ry     beta= 0.10
     Davidson diagonalization with overlap
     ethr =  1.15E-08,  avg # of iterations =  3.1

     total cpu time spent up to now is    15649.1 secs

     total energy              =  -10536.24656640 Ry
     Harris-Foulkes estimate   =  -10536.24656291 Ry
     estimated scf accuracy    <       0.00003527 Ry

     total magnetization       =    -0.01 Bohr mag/cell
     absolute magnetization    =    49.39 Bohr mag/cell

     iteration # 28     ecut=    71.00 Ry     beta= 0.10
     Davidson diagonalization with overlap
     ethr =  6.89E-09,  avg # of iterations =  1.1

     total cpu time spent up to now is    16049.7 secs

     total energy              =  -10536.24657232 Ry
     Harris-Foulkes estimate   =  -10536.24656831 Ry
     estimated scf accuracy    <       0.00002126 Ry

     total magnetization       =    -0.00 Bohr mag/cell
     absolute magnetization    =    49.42 Bohr mag/cell

     iteration # 29     ecut=    71.00 Ry     beta= 0.10
     Davidson diagonalization with overlap
     ethr =  4.15E-09,  avg # of iterations =  1.4

     total cpu time spent up to now is    16482.9 secs

     total energy              =  -10536.24657797 Ry
     Harris-Foulkes estimate   =  -10536.24657330 Ry
     estimated scf accuracy    <       0.00001694 Ry

     total magnetization       =    -0.01 Bohr mag/cell
     absolute magnetization    =    49.44 Bohr mag/cell

     iteration # 30     ecut=    71.00 Ry     beta= 0.10
     Davidson diagonalization with overlap
     ethr =  3.31E-09,  avg # of iterations =  2.8

     total cpu time spent up to now is    17097.5 secs

     total energy              =  -10536.24658111 Ry
     Harris-Foulkes estimate   =  -10536.24658010 Ry
     estimated scf accuracy    <       0.00000914 Ry

     total magnetization       =    -0.00 Bohr mag/cell
     absolute magnetization    =    49.47 Bohr mag/cell

     iteration # 31     ecut=    71.00 Ry     beta= 0.10
     Davidson diagonalization with overlap
     ethr =  1.78E-09,  avg # of iterations =  1.3

     total cpu time spent up to now is    17523.3 secs

     total energy              =  -10536.24658259 Ry
     Harris-Foulkes estimate   =  -10536.24658145 Ry
     estimated scf accuracy    <       0.00000598 Ry

     total magnetization       =    -0.00 Bohr mag/cell
     absolute magnetization    =    49.47 Bohr mag/cell

     iteration # 32     ecut=    71.00 Ry     beta= 0.10
     Davidson diagonalization with overlap
     ethr =  1.17E-09,  avg # of iterations =  2.7

     total cpu time spent up to now is    18102.9 secs

     total energy              =  -10536.24658522 Ry
     Harris-Foulkes estimate   =  -10536.24658323 Ry
     estimated scf accuracy    <       0.00000492 Ry

     total magnetization       =    -0.00 Bohr mag/cell
     absolute magnetization    =    49.50 Bohr mag/cell

     iteration # 33     ecut=    71.00 Ry     beta= 0.10
     Davidson diagonalization with overlap
     ethr =  9.61E-10,  avg # of iterations =  3.2

     total cpu time spent up to now is    18855.8 secs

     total energy              =  -10536.24658692 Ry
     Harris-Foulkes estimate   =  -10536.24658720 Ry
     estimated scf accuracy    <       0.00000258 Ry

     total magnetization       =    -0.00 Bohr mag/cell
     absolute magnetization    =    49.53 Bohr mag/cell

     iteration # 34     ecut=    71.00 Ry     beta= 0.10
     Davidson diagonalization with overlap
     ethr =  5.04E-10,  avg # of iterations =  1.1

     total cpu time spent up to now is    19252.7 secs

     total energy              =  -10536.24658756 Ry
     Harris-Foulkes estimate   =  -10536.24658710 Ry
     estimated scf accuracy    <       0.00000162 Ry

     total magnetization       =    -0.00 Bohr mag/cell
     absolute magnetization    =    49.53 Bohr mag/cell

     iteration # 35     ecut=    71.00 Ry     beta= 0.10
     Davidson diagonalization with overlap
     ethr =  3.16E-10,  avg # of iterations =  1.0
 
     Magnetic moment per site:
     atom:    1    charge:   14.3919    magn:    1.4903    constr:    0.0000
     atom:    2    charge:   14.3923    magn:   -1.4900    constr:    0.0000
     atom:    3    charge:   14.3916    magn:    1.4932    constr:    0.0000
     atom:    4    charge:   14.3922    magn:   -1.4955    constr:    0.0000
     atom:    5    charge:   14.3921    magn:    1.4909    constr:    0.0000
     atom:    6    charge:   14.3923    magn:   -1.4895    constr:    0.0000
     atom:    7    charge:   14.3916    magn:    1.4932    constr:    0.0000
     atom:    8    charge:   14.3918    magn:   -1.4935    constr:    0.0000
     atom:    9    charge:   14.3920    magn:    1.4912    constr:    0.0000
     atom:   10    charge:   14.3923    magn:   -1.4900    constr:    0.0000
     atom:   11    charge:   14.3917    magn:    1.4924    constr:    0.0000
     atom:   12    charge:   14.3918    magn:   -1.4935    constr:    0.0000
     atom:   13    charge:   14.3921    magn:    1.4918    constr:    0.0000
     atom:   14    charge:   14.3923    magn:   -1.4895    constr:    0.0000
     atom:   15    charge:   14.3917    magn:    1.4924    constr:    0.0000
     atom:   16    charge:   14.3922    magn:   -1.4955    constr:    0.0000
     atom:   17    charge:   14.3919    magn:    1.4913    constr:    0.0000
     atom:   18    charge:   14.3923    magn:   -1.4900    constr:    0.0000
     atom:   19    charge:   14.3916    magn:    1.4932    constr:    0.0000
     atom:   20    charge:   14.3920    magn:   -1.4937    constr:    0.0000
     atom:   21    charge:   14.3921    magn:    1.4916    constr:    0.0000
     atom:   22    charge:   14.3923    magn:   -1.4895    constr:    0.0000
     atom:   23    charge:   14.3916    magn:    1.4932    constr:    0.0000
     atom:   24    charge:   14.3918    magn:   -1.4945    constr:    0.0000
     atom:   25    charge:   14.3920    magn:    1.4906    constr:    0.0000
     atom:   26    charge:   14.3923    magn:   -1.4900    constr:    0.0000
     atom:   27    charge:   14.3917    magn:    1.4924    constr:    0.0000
     atom:   28    charge:   14.3918    magn:   -1.4945    constr:    0.0000
     atom:   29    charge:   14.3920    magn:    1.4906    constr:    0.0000
     atom:   30    charge:   14.3923    magn:   -1.4895    constr:    0.0000
     atom:   31    charge:   14.3917    magn:    1.4924    constr:    0.0000
     atom:   32    charge:   14.3920    magn:   -1.4937    constr:    0.0000

     total cpu time spent up to now is    19642.6 secs

     End of self-consistent calculation

     Number of k-points >= 100: set verbosity='high' to print the bands.

     the Fermi energy is    20.1190 ev

!    total energy              =  -10536.24658794 Ry
     Harris-Foulkes estimate   =  -10536.24658768 Ry
     estimated scf accuracy    <       0.00000090 Ry

     total all-electron energy =    -81457.735646 Ry

     The total energy is the sum of the following terms:

     one-electron contribution =   -3292.67685731 Ry
     hartree contribution      =    1996.67467788 Ry
     xc contribution           =    -886.96328402 Ry
     ewald contribution        =   -5703.73502588 Ry
     one-center paw contrib.   =   -2649.56039007 Ry
     smearing contrib. (-TS)   =       0.01429147 Ry

     total magnetization       =    -0.00 Bohr mag/cell
     absolute magnetization    =    49.54 Bohr mag/cell

     convergence has been achieved in  35 iterations

     Forces acting on atoms (cartesian axes, Ry/au):

     atom    1 type  1   force =     0.00000000    0.00000000    0.00000000
     atom    2 type  2   force =     0.00011982   -0.00001029    0.00000181
     atom    3 type  3   force =     0.00022917   -0.00000181    0.00007788
     atom    4 type  4   force =     0.00000000   -0.00014567   -0.00022313
     atom    5 type  1   force =     0.00000000    0.00000000    0.00000000
     atom    6 type  2   force =     0.00010192   -0.00018801   -0.00009700
     atom    7 type  3   force =     0.00022917    0.00000181   -0.00007788
     atom    8 type  4   force =     0.00000000   -0.00018146    0.00021734
     atom    9 type  1   force =     0.00000000    0.00000000    0.00000000
     atom   10 type  2   force =     0.00011982    0.00001029   -0.00000181
     atom   11 type  3   force =     0.00004132   -0.00006763   -0.00004155
     atom   12 type  4   force =     0.00000000    0.00018146   -0.00021734
     atom   13 type  1   force =     0.00000000    0.00000000    0.00000000
     atom   14 type  2   force =     0.00010192    0.00018801    0.00009700
     atom   15 type  3   force =     0.00004132    0.00006763    0.00004155
     atom   16 type  4   force =     0.00000000    0.00014567    0.00022313
     atom   17 type  1   force =     0.00000000    0.00000000    0.00000000
     atom   18 type  2   force =    -0.00011982   -0.00001029    0.00000181
     atom   19 type  3   force =    -0.00022917   -0.00000181    0.00007788
     atom   20 type  4   force =     0.00000000    0.00004470   -0.00003657
     atom   21 type  1   force =     0.00000000    0.00000000    0.00000000
     atom   22 type  2   force =    -0.00010192   -0.00018801   -0.00009700
     atom   23 type  3   force =    -0.00022917    0.00000181   -0.00007788
     atom   24 type  4   force =     0.00000000    0.00010490    0.00025013
     atom   25 type  1   force =     0.00000000    0.00000000    0.00000000
     atom   26 type  2   force =    -0.00011982    0.00001029   -0.00000181
     atom   27 type  3   force =    -0.00004132   -0.00006763   -0.00004155
     atom   28 type  4   force =     0.00000000   -0.00010490   -0.00025013
     atom   29 type  1   force =     0.00000000    0.00000000    0.00000000
     atom   30 type  2   force =    -0.00010192    0.00018801    0.00009700
     atom   31 type  3   force =    -0.00004132    0.00006763    0.00004155
     atom   32 type  4   force =     0.00000000   -0.00004470    0.00003657

     Total force =     0.001000     Total SCF correction =     0.005947
     SCF correction compared to forces is large: reduce conv_thr to get better values


     Computing stress (Cartesian axis) and pressure

          total   stress  (Ry/bohr**3)                   (kbar)     P=    1.32
   0.00000394   0.00000000   0.00000000          0.58      0.00      0.00
   0.00000000   0.00001159  -0.00021053          0.00      1.71    -30.97
   0.00000000  -0.00021053   0.00001146          0.00    -30.97      1.69


     Writing output data file IiHHzJrQmhNXYRJw.save/
-------------------------------------------------------
Primary job  terminated normally, but 1 process returned
a non-zero exit code.. Per user-direction, the job has been aborted.
-------------------------------------------------------
--------------------------------------------------------------------------
mpirun detected that one or more processes exited with non-zero status, thus causing
the job to be terminated. The first process to do so was:

  Process name: [[14106,1],0]
  Exit code:    38
--------------------------------------------------------------------------
