--------------------------------------------------------------------------
WARNING: No preset parameters were found for the device that Open MPI
detected:

  Local host:            bear-pg0206u13b
  Device name:           mlx5_0
  Device vendor ID:      0x02c9
  Device vendor part ID: 4123

Default device parameters will be used, which may result in lower
performance.  You can edit any of the files specified by the
btl_openib_device_param_files MCA parameter to set values for your
device.

NOTE: You can turn off this warning by setting the MCA parameter
      btl_openib_warn_no_device_params_found to 0.
--------------------------------------------------------------------------
--------------------------------------------------------------------------
WARNING: There was an error initializing an OpenFabrics device.

  Local host:   bear-pg0206u13b
  Local device: mlx5_0
--------------------------------------------------------------------------

     Program PWSCF v.6.3 starts on 12Oct2020 at 18:21: 4 

     This program is part of the open-source Quantum ESPRESSO suite
     for quantum simulation of materials; please cite
         "P. Giannozzi et al., J. Phys.:Condens. Matter 21 395502 (2009);
         "P. Giannozzi et al., J. Phys.:Condens. Matter 29 465901 (2017);
          URL http://www.quantum-espresso.org", 
     in publications or presentations arising from this work. More details at
     http://www.quantum-espresso.org/quote

     Parallel version (MPI & OpenMP), running on      40 processor cores
     Number of MPI processes:                40
     Threads/MPI process:                     1

     MPI processes distributed on     1 nodes
     R & G space division:  proc/nbgrp/npool/nimage =      40
     Reading input from wd/ec/ec_4_002.in
Warning: card &IONS ignored
Warning: card ION_DYNAMICS = 'BFGS', ignored
Warning: card / ignored
Warning: card &CELL ignored
Warning: card CELL_DYNAMICS = 'BFGS', ignored
Warning: card CELL_FACTOR = 2.0, ignored
Warning: card PRESS = 0.0, ignored
Warning: card / ignored

     Current dimensions of program PWSCF are:
     Max number of different atomic species (ntypx) = 10
     Max number of k-points (npk) =  40000
     Max angular momentum in pseudopotentials (lmaxx) =  3
               file Fe.pbe-spn-kjpaw_psl.1.0.0.UPF: wavefunction(s)  3P 3D renormalized
               file Fe.pbe-spn-kjpaw_psl.1.0.0.UPF: wavefunction(s)  3P 3D renormalized
               file Fe.pbe-spn-kjpaw_psl.1.0.0.UPF: wavefunction(s)  3P 3D renormalized
               file Fe.pbe-spn-kjpaw_psl.1.0.0.UPF: wavefunction(s)  3P 3D renormalized

     Subspace diagonalization in iterative solution of the eigenvalue problem:
     a serial algorithm will be used

     Found symmetry operation: I + (  0.0000  0.0000 -0.5000)
     This is a supercell, fractional translations are disabled
 
     Parallelization info
     --------------------
     sticks:   dense  smooth     PW     G-vecs:    dense   smooth      PW
     Min         150      99     27                 8593     4615     664
     Max         151     100     28                 8599     4620     668
     Sum        6035    3993   1103               343849   184703   26615
 


     bravais-lattice index     =            0
     lattice parameter (alat)  =      12.9382  a.u.
     unit-cell volume          =    2283.7593 (a.u.)^3
     number of atoms/cell      =           32
     number of atomic types    =            4
     number of electrons       =       512.00
     number of Kohn-Sham states=          307
     kinetic-energy cutoff     =      71.0000  Ry
     charge density cutoff     =     430.0000  Ry
     convergence threshold     =      1.0E-06
     mixing beta               =       0.1000
     number of iterations used =           10  plain     mixing
     Exchange-correlation      = SLA PW PBX PBC ( 1  4  3  4 0 0)

     celldm(1)=  12.938187  celldm(2)=   0.000000  celldm(3)=   0.000000
     celldm(4)=   0.000000  celldm(5)=   0.000000  celldm(6)=   0.000000

     crystal axes: (cart. coord. in units of alat)
               a(1) = (   1.000001   0.000000   0.000000 )  
               a(2) = (   0.000000   1.054475   0.001667 )  
               a(3) = (   0.000000   0.001757   0.999988 )  

     reciprocal axes: (cart. coord. in units 2 pi/alat)
               b(1) = (  0.999999  0.000000  0.000000 )  
               b(2) = (  0.000000  0.948342 -0.001667 )  
               b(3) = (  0.000000 -0.001581  1.000015 )  


     PseudoPot. # 1 for Fe read from file:
     /rds/homes/b/bxp912/pp/Fe.pbe-spn-kjpaw_psl.1.0.0.UPF
     MD5 check sum: 42f43b795421b414b0dc916aa790dbcb
     Pseudo is Projector augmented-wave + core cor, Zval = 16.0
     Generated using "atomic" code by A. Dal Corso v.6.3
     Shape of augmentation charge: PSQ
     Using radial grid of 1191 points,  6 beta functions with: 
                l(1) =   0
                l(2) =   0
                l(3) =   1
                l(4) =   1
                l(5) =   2
                l(6) =   2
     Q(r) pseudized with 0 coefficients 


     PseudoPot. # 2 for Fe read from file:
     /rds/homes/b/bxp912/pp/Fe.pbe-spn-kjpaw_psl.1.0.0.UPF
     MD5 check sum: 42f43b795421b414b0dc916aa790dbcb
     Pseudo is Projector augmented-wave + core cor, Zval = 16.0
     Generated using "atomic" code by A. Dal Corso v.6.3
     Shape of augmentation charge: PSQ
     Using radial grid of 1191 points,  6 beta functions with: 
                l(1) =   0
                l(2) =   0
                l(3) =   1
                l(4) =   1
                l(5) =   2
                l(6) =   2
     Q(r) pseudized with 0 coefficients 


     PseudoPot. # 3 for Fe read from file:
     /rds/homes/b/bxp912/pp/Fe.pbe-spn-kjpaw_psl.1.0.0.UPF
     MD5 check sum: 42f43b795421b414b0dc916aa790dbcb
     Pseudo is Projector augmented-wave + core cor, Zval = 16.0
     Generated using "atomic" code by A. Dal Corso v.6.3
     Shape of augmentation charge: PSQ
     Using radial grid of 1191 points,  6 beta functions with: 
                l(1) =   0
                l(2) =   0
                l(3) =   1
                l(4) =   1
                l(5) =   2
                l(6) =   2
     Q(r) pseudized with 0 coefficients 


     PseudoPot. # 4 for Fe read from file:
     /rds/homes/b/bxp912/pp/Fe.pbe-spn-kjpaw_psl.1.0.0.UPF
     MD5 check sum: 42f43b795421b414b0dc916aa790dbcb
     Pseudo is Projector augmented-wave + core cor, Zval = 16.0
     Generated using "atomic" code by A. Dal Corso v.6.3
     Shape of augmentation charge: PSQ
     Using radial grid of 1191 points,  6 beta functions with: 
                l(1) =   0
                l(2) =   0
                l(3) =   1
                l(4) =   1
                l(5) =   2
                l(6) =   2
     Q(r) pseudized with 0 coefficients 


     atomic species   valence    mass     pseudopotential
        Fe1           16.00    55.84500     Fe( 1.00)
        Fe2           16.00    55.84500     Fe( 1.00)
        Fe3           16.00    55.84500     Fe( 1.00)
        Fe4           16.00    55.84500     Fe( 1.00)

     Starting magnetic structure 
     atomic species   magnetization
        Fe1          0.100
        Fe2         -0.100
        Fe3          0.100
        Fe4         -0.100

      4 Sym. Ops., with inversion, found



   Cartesian axes

     site n.     atom                  positions (alat units)
         1           Fe1 tau(   1) = (   0.0000000   0.0000000   0.0000000  )
         2           Fe2 tau(   2) = (   0.2499971   0.2636213   0.0004167  )
         3           Fe3 tau(   3) = (   0.2499984   0.0004394   0.2499950  )
         4           Fe4 tau(   4) = (   0.0000000   0.2640593   0.2504176  )
         5           Fe1 tau(   5) = (   0.0000000   0.0008787   0.4999940  )
         6           Fe2 tau(   6) = (   0.2499999   0.2645029   0.5004106  )
         7           Fe3 tau(   7) = (   0.2499984   0.0013181   0.7499919  )
         8           Fe4 tau(   8) = (   0.0000000   0.2649380   0.7504026  )
         9           Fe1 tau(   9) = (   0.0000000   0.5272374   0.0008333  )
        10           Fe2 tau(  10) = (   0.2499971   0.7908537   0.0012500  )
        11           Fe3 tau(  11) = (   0.2500006   0.5276768   0.2508323  )
        12           Fe4 tau(  12) = (   0.0000000   0.7912944   0.2512510  )
        13           Fe1 tau(  13) = (   0.0000000   0.5281162   0.5008273  )
        14           Fe2 tau(  14) = (   0.2499999   0.7917296   0.5012439  )
        15           Fe3 tau(  15) = (   0.2500006   0.5285555   0.7508223  )
        16           Fe4 tau(  16) = (   0.0000000   0.7921731   0.7512359  )
        17           Fe1 tau(  17) = (   0.5000003   0.0000000   0.0000000  )
        18           Fe2 tau(  18) = (   0.7500033   0.2636213   0.0004167  )
        19           Fe3 tau(  19) = (   0.7500021   0.0004394   0.2499950  )
        20           Fe4 tau(  20) = (   0.5000003   0.2640583   0.2504156  )
        21           Fe1 tau(  21) = (   0.5000003   0.0008787   0.4999940  )
        22           Fe2 tau(  22) = (   0.7500005   0.2645029   0.5004106  )
        23           Fe3 tau(  23) = (   0.7500021   0.0013181   0.7499919  )
        24           Fe4 tau(  24) = (   0.5000003   0.2649370   0.7504046  )
        25           Fe1 tau(  25) = (   0.5000003   0.5272374   0.0008333  )
        26           Fe2 tau(  26) = (   0.7500033   0.7908537   0.0012500  )
        27           Fe3 tau(  27) = (   0.7499999   0.5276768   0.2508323  )
        28           Fe4 tau(  28) = (   0.5000003   0.7912954   0.2512490  )
        29           Fe1 tau(  29) = (   0.5000003   0.5281162   0.5008273  )
        30           Fe2 tau(  30) = (   0.7500005   0.7917296   0.5012439  )
        31           Fe3 tau(  31) = (   0.7499999   0.5285555   0.7508223  )
        32           Fe4 tau(  32) = (   0.5000003   0.7921741   0.7512379  )

     number of k points=   205  Marzari-Vanderbilt smearing, width (Ry)=  0.0400

     Number of k-points >= 100: set verbosity='high' to print them.

     Dense  grid:   343849 G-vectors     FFT dimensions: (  90,  96,  90)

     Smooth grid:   184703 G-vectors     FFT dimensions: (  72,  75,  72)

     Estimated max dynamical RAM per process >       1.21 GB

     Estimated total dynamical RAM >      48.54 GB
     Generating pointlists ...
     new r_m :   0.1458 (alat units)  1.8869 (a.u.) for type    1
     new r_m :   0.1458 (alat units)  1.8869 (a.u.) for type    2
     new r_m :   0.1458 (alat units)  1.8869 (a.u.) for type    3
     new r_m :   0.1458 (alat units)  1.8869 (a.u.) for type    4

     Check: negative/imaginary core charge=   -0.000006    0.000000

     Initial potential from superposition of free atoms

     starting charge  511.98600, renormalised to  512.00000
     Starting wfcs are  320 randomized atomic wfcs
     Checking if some PAW data can be deallocated... 

     total cpu time spent up to now is      137.5 secs

     Self-consistent Calculation

     iteration #  1     ecut=    71.00 Ry     beta= 0.10
     Davidson diagonalization with overlap
     ethr =  1.00E-02,  avg # of iterations =  3.6

     Threshold (ethr) on eigenvalues was too large:
     Diagonalizing with lowered threshold

     Davidson diagonalization with overlap
     ethr =  3.48E-04,  avg # of iterations =  4.0

     total cpu time spent up to now is     1733.2 secs

     total energy              =  -10536.53534951 Ry
     Harris-Foulkes estimate   =  -10536.93644027 Ry
     estimated scf accuracy    <       2.04987073 Ry

     total magnetization       =     0.16 Bohr mag/cell
     absolute magnetization    =    44.35 Bohr mag/cell

     iteration #  2     ecut=    71.00 Ry     beta= 0.10
     Davidson diagonalization with overlap
     ethr =  4.00E-04,  avg # of iterations =  1.0

     total cpu time spent up to now is     2114.3 secs

     total energy              =  -10536.26644427 Ry
     Harris-Foulkes estimate   =  -10536.58480177 Ry
     estimated scf accuracy    <       1.21106611 Ry

     total magnetization       =    -0.19 Bohr mag/cell
     absolute magnetization    =    45.01 Bohr mag/cell

     iteration #  3     ecut=    71.00 Ry     beta= 0.10
     Davidson diagonalization with overlap
     ethr =  2.37E-04,  avg # of iterations =  2.3

     total cpu time spent up to now is     2648.7 secs

     total energy              =  -10536.08713728 Ry
     Harris-Foulkes estimate   =  -10536.41083727 Ry
     estimated scf accuracy    <       2.69617510 Ry

     total magnetization       =     0.26 Bohr mag/cell
     absolute magnetization    =    45.40 Bohr mag/cell

     iteration #  4     ecut=    71.00 Ry     beta= 0.10
     Davidson diagonalization with overlap
     ethr =  2.37E-04,  avg # of iterations =  2.4

     total cpu time spent up to now is     3193.9 secs

     total energy              =  -10536.18781724 Ry
     Harris-Foulkes estimate   =  -10536.23194956 Ry
     estimated scf accuracy    <       0.66168272 Ry

     total magnetization       =     0.30 Bohr mag/cell
     absolute magnetization    =    46.33 Bohr mag/cell

     iteration #  5     ecut=    71.00 Ry     beta= 0.10
     Davidson diagonalization with overlap
     ethr =  1.29E-04,  avg # of iterations =  1.2

     total cpu time spent up to now is     3609.4 secs

     total energy              =  -10536.19928174 Ry
     Harris-Foulkes estimate   =  -10536.21098501 Ry
     estimated scf accuracy    <       0.08811585 Ry

     total magnetization       =     0.00 Bohr mag/cell
     absolute magnetization    =    46.49 Bohr mag/cell

     iteration #  6     ecut=    71.00 Ry     beta= 0.10
     Davidson diagonalization with overlap
     ethr =  1.72E-05,  avg # of iterations =  3.7

     total cpu time spent up to now is     4279.3 secs

     total energy              =  -10536.17365894 Ry
     Harris-Foulkes estimate   =  -10536.20243693 Ry
     estimated scf accuracy    <       0.06944722 Ry

     total magnetization       =    -0.12 Bohr mag/cell
     absolute magnetization    =    46.44 Bohr mag/cell

     iteration #  7     ecut=    71.00 Ry     beta= 0.10
     Davidson diagonalization with overlap
     ethr =  1.36E-05,  avg # of iterations =  3.8

     total cpu time spent up to now is     5234.2 secs

     total energy              =  -10536.19070388 Ry
     Harris-Foulkes estimate   =  -10536.19976477 Ry
     estimated scf accuracy    <       0.09036979 Ry

     total magnetization       =     0.04 Bohr mag/cell
     absolute magnetization    =    46.55 Bohr mag/cell

     iteration #  8     ecut=    71.00 Ry     beta= 0.10
     Davidson diagonalization with overlap
     ethr =  1.36E-05,  avg # of iterations =  2.0

     total cpu time spent up to now is     5743.8 secs

     total energy              =  -10536.19298929 Ry
     Harris-Foulkes estimate   =  -10536.19411196 Ry
     estimated scf accuracy    <       0.06256135 Ry

     total magnetization       =     0.01 Bohr mag/cell
     absolute magnetization    =    46.81 Bohr mag/cell

     iteration #  9     ecut=    71.00 Ry     beta= 0.10
     Davidson diagonalization with overlap
     ethr =  1.22E-05,  avg # of iterations =  1.0

     total cpu time spent up to now is     6120.8 secs

     total energy              =  -10536.20401128 Ry
     Harris-Foulkes estimate   =  -10536.19366793 Ry
     estimated scf accuracy    <       0.04833954 Ry

     total magnetization       =    -0.01 Bohr mag/cell
     absolute magnetization    =    46.86 Bohr mag/cell

     iteration # 10     ecut=    71.00 Ry     beta= 0.10
     Davidson diagonalization with overlap
     ethr =  9.44E-06,  avg # of iterations =  3.1

     total cpu time spent up to now is     6844.1 secs

     total energy              =  -10536.23176455 Ry
     Harris-Foulkes estimate   =  -10536.21008247 Ry
     estimated scf accuracy    <       0.03489402 Ry

     total magnetization       =    -0.11 Bohr mag/cell
     absolute magnetization    =    47.31 Bohr mag/cell

     iteration # 11     ecut=    71.00 Ry     beta= 0.10
     Davidson diagonalization with overlap
     ethr =  6.82E-06,  avg # of iterations =  2.5

     total cpu time spent up to now is     7534.4 secs

     total energy              =  -10536.24546083 Ry
     Harris-Foulkes estimate   =  -10536.24021011 Ry
     estimated scf accuracy    <       0.02803473 Ry

     total magnetization       =    -0.10 Bohr mag/cell
     absolute magnetization    =    47.91 Bohr mag/cell

     iteration # 12     ecut=    71.00 Ry     beta= 0.10
     Davidson diagonalization with overlap
     ethr =  5.48E-06,  avg # of iterations =  2.4

     total cpu time spent up to now is     8135.9 secs

     total energy              =  -10536.24910641 Ry
     Harris-Foulkes estimate   =  -10536.24887186 Ry
     estimated scf accuracy    <       0.00573628 Ry

     total magnetization       =    -0.01 Bohr mag/cell
     absolute magnetization    =    48.31 Bohr mag/cell

     iteration # 13     ecut=    71.00 Ry     beta= 0.10
     Davidson diagonalization with overlap
     ethr =  1.12E-06,  avg # of iterations =  2.9

     total cpu time spent up to now is     8749.3 secs

     total energy              =  -10536.24936378 Ry
     Harris-Foulkes estimate   =  -10536.24951435 Ry
     estimated scf accuracy    <       0.00220043 Ry

     total magnetization       =    -0.01 Bohr mag/cell
     absolute magnetization    =    48.42 Bohr mag/cell

     iteration # 14     ecut=    71.00 Ry     beta= 0.10
     Davidson diagonalization with overlap
     ethr =  4.30E-07,  avg # of iterations =  1.5

     total cpu time spent up to now is     9192.2 secs

     total energy              =  -10536.24942601 Ry
     Harris-Foulkes estimate   =  -10536.24943863 Ry
     estimated scf accuracy    <       0.00128713 Ry

     total magnetization       =    -0.02 Bohr mag/cell
     absolute magnetization    =    48.46 Bohr mag/cell

     iteration # 15     ecut=    71.00 Ry     beta= 0.10
     Davidson diagonalization with overlap
     ethr =  2.51E-07,  avg # of iterations =  2.1

     total cpu time spent up to now is     9693.5 secs

     total energy              =  -10536.24964437 Ry
     Harris-Foulkes estimate   =  -10536.24948622 Ry
     estimated scf accuracy    <       0.00087783 Ry

     total magnetization       =    -0.01 Bohr mag/cell
     absolute magnetization    =    48.53 Bohr mag/cell

     iteration # 16     ecut=    71.00 Ry     beta= 0.10
     Davidson diagonalization with overlap
     ethr =  1.71E-07,  avg # of iterations =  1.4

     total cpu time spent up to now is    10120.3 secs

     total energy              =  -10536.24970159 Ry
     Harris-Foulkes estimate   =  -10536.24969033 Ry
     estimated scf accuracy    <       0.00080281 Ry

     total magnetization       =    -0.00 Bohr mag/cell
     absolute magnetization    =    48.62 Bohr mag/cell

     iteration # 17     ecut=    71.00 Ry     beta= 0.10
     Davidson diagonalization with overlap
     ethr =  1.57E-07,  avg # of iterations =  1.1

     total cpu time spent up to now is    10521.5 secs

     total energy              =  -10536.24983748 Ry
     Harris-Foulkes estimate   =  -10536.24974354 Ry
     estimated scf accuracy    <       0.00069894 Ry

     total magnetization       =    -0.03 Bohr mag/cell
     absolute magnetization    =    48.66 Bohr mag/cell

     iteration # 18     ecut=    71.00 Ry     beta= 0.10
     Davidson diagonalization with overlap
     ethr =  1.37E-07,  avg # of iterations =  2.0

     total cpu time spent up to now is    11052.7 secs

     total energy              =  -10536.25000159 Ry
     Harris-Foulkes estimate   =  -10536.24990137 Ry
     estimated scf accuracy    <       0.00065561 Ry

     total magnetization       =    -0.01 Bohr mag/cell
     absolute magnetization    =    48.76 Bohr mag/cell

     iteration # 19     ecut=    71.00 Ry     beta= 0.10
     Davidson diagonalization with overlap
     ethr =  1.28E-07,  avg # of iterations =  1.3

     total cpu time spent up to now is    11457.9 secs

     total energy              =  -10536.25011131 Ry
     Harris-Foulkes estimate   =  -10536.25003878 Ry
     estimated scf accuracy    <       0.00032941 Ry

     total magnetization       =    -0.00 Bohr mag/cell
     absolute magnetization    =    48.84 Bohr mag/cell

     iteration # 20     ecut=    71.00 Ry     beta= 0.10
     Davidson diagonalization with overlap
     ethr =  6.43E-08,  avg # of iterations =  2.3

     total cpu time spent up to now is    11989.2 secs

     total energy              =  -10536.25018011 Ry
     Harris-Foulkes estimate   =  -10536.25012682 Ry
     estimated scf accuracy    <       0.00027936 Ry

     total magnetization       =    -0.01 Bohr mag/cell
     absolute magnetization    =    48.90 Bohr mag/cell

     iteration # 21     ecut=    71.00 Ry     beta= 0.10
     Davidson diagonalization with overlap
     ethr =  5.46E-08,  avg # of iterations =  1.4

     total cpu time spent up to now is    12414.2 secs

     total energy              =  -10536.25028409 Ry
     Harris-Foulkes estimate   =  -10536.25019194 Ry
     estimated scf accuracy    <       0.00021926 Ry

     total magnetization       =    -0.01 Bohr mag/cell
     absolute magnetization    =    48.95 Bohr mag/cell

     iteration # 22     ecut=    71.00 Ry     beta= 0.10
     Davidson diagonalization with overlap
     ethr =  4.28E-08,  avg # of iterations =  3.2

     total cpu time spent up to now is    13100.7 secs

     total energy              =  -10536.25035577 Ry
     Harris-Foulkes estimate   =  -10536.25033471 Ry
     estimated scf accuracy    <       0.00015539 Ry

     total magnetization       =    -0.01 Bohr mag/cell
     absolute magnetization    =    49.12 Bohr mag/cell

     iteration # 23     ecut=    71.00 Ry     beta= 0.10
     Davidson diagonalization with overlap
     ethr =  3.04E-08,  avg # of iterations =  1.0

     total cpu time spent up to now is    13495.1 secs

     total energy              =  -10536.25037012 Ry
     Harris-Foulkes estimate   =  -10536.25036457 Ry
     estimated scf accuracy    <       0.00008746 Ry

     total magnetization       =    -0.01 Bohr mag/cell
     absolute magnetization    =    49.18 Bohr mag/cell

     iteration # 24     ecut=    71.00 Ry     beta= 0.10
     Davidson diagonalization with overlap
     ethr =  1.71E-08,  avg # of iterations =  2.8

     total cpu time spent up to now is    14107.7 secs

     total energy              =  -10536.25037886 Ry
     Harris-Foulkes estimate   =  -10536.25037999 Ry
     estimated scf accuracy    <       0.00014640 Ry

     total magnetization       =    -0.01 Bohr mag/cell
     absolute magnetization    =    49.23 Bohr mag/cell

     iteration # 25     ecut=    71.00 Ry     beta= 0.10
     Davidson diagonalization with overlap
     ethr =  1.71E-08,  avg # of iterations =  1.0

     total cpu time spent up to now is    14498.5 secs

     total energy              =  -10536.25039206 Ry
     Harris-Foulkes estimate   =  -10536.25038586 Ry
     estimated scf accuracy    <       0.00009419 Ry

     total magnetization       =    -0.01 Bohr mag/cell
     absolute magnetization    =    49.24 Bohr mag/cell

     iteration # 26     ecut=    71.00 Ry     beta= 0.10
     Davidson diagonalization with overlap
     ethr =  1.71E-08,  avg # of iterations =  2.0

     total cpu time spent up to now is    14991.8 secs

     total energy              =  -10536.25040924 Ry
     Harris-Foulkes estimate   =  -10536.25040287 Ry
     estimated scf accuracy    <       0.00005772 Ry

     total magnetization       =    -0.00 Bohr mag/cell
     absolute magnetization    =    49.32 Bohr mag/cell

     iteration # 27     ecut=    71.00 Ry     beta= 0.10
     Davidson diagonalization with overlap
     ethr =  1.13E-08,  avg # of iterations =  2.8

     total cpu time spent up to now is    15610.7 secs

     total energy              =  -10536.25042139 Ry
     Harris-Foulkes estimate   =  -10536.25041768 Ry
     estimated scf accuracy    <       0.00003597 Ry

     total magnetization       =    -0.01 Bohr mag/cell
     absolute magnetization    =    49.39 Bohr mag/cell

     iteration # 28     ecut=    71.00 Ry     beta= 0.10
     Davidson diagonalization with overlap
     ethr =  7.03E-09,  avg # of iterations =  1.6

     total cpu time spent up to now is    16068.4 secs

     total energy              =  -10536.25042760 Ry
     Harris-Foulkes estimate   =  -10536.25042343 Ry
     estimated scf accuracy    <       0.00002075 Ry

     total magnetization       =    -0.00 Bohr mag/cell
     absolute magnetization    =    49.42 Bohr mag/cell

     iteration # 29     ecut=    71.00 Ry     beta= 0.10
     Davidson diagonalization with overlap
     ethr =  4.05E-09,  avg # of iterations =  1.6

     total cpu time spent up to now is    16527.5 secs

     total energy              =  -10536.25043158 Ry
     Harris-Foulkes estimate   =  -10536.25042862 Ry
     estimated scf accuracy    <       0.00001622 Ry

     total magnetization       =    -0.01 Bohr mag/cell
     absolute magnetization    =    49.44 Bohr mag/cell

     iteration # 30     ecut=    71.00 Ry     beta= 0.10
     Davidson diagonalization with overlap
     ethr =  3.17E-09,  avg # of iterations =  2.7

     total cpu time spent up to now is    17125.9 secs

     total energy              =  -10536.25043465 Ry
     Harris-Foulkes estimate   =  -10536.25043348 Ry
     estimated scf accuracy    <       0.00000668 Ry

     total magnetization       =    -0.00 Bohr mag/cell
     absolute magnetization    =    49.46 Bohr mag/cell

     iteration # 31     ecut=    71.00 Ry     beta= 0.10
     Davidson diagonalization with overlap
     ethr =  1.30E-09,  avg # of iterations =  2.6

     total cpu time spent up to now is    17688.5 secs

     total energy              =  -10536.25043581 Ry
     Harris-Foulkes estimate   =  -10536.25043503 Ry
     estimated scf accuracy    <       0.00000633 Ry

     total magnetization       =    -0.00 Bohr mag/cell
     absolute magnetization    =    49.48 Bohr mag/cell

     iteration # 32     ecut=    71.00 Ry     beta= 0.10
     Davidson diagonalization with overlap
     ethr =  1.24E-09,  avg # of iterations =  2.5

     total cpu time spent up to now is    18248.7 secs

     total energy              =  -10536.25043774 Ry
     Harris-Foulkes estimate   =  -10536.25043641 Ry
     estimated scf accuracy    <       0.00000449 Ry

     total magnetization       =    -0.00 Bohr mag/cell
     absolute magnetization    =    49.50 Bohr mag/cell

     iteration # 33     ecut=    71.00 Ry     beta= 0.10
     Davidson diagonalization with overlap
     ethr =  8.77E-10,  avg # of iterations =  3.1

     total cpu time spent up to now is    18953.1 secs

     total energy              =  -10536.25043933 Ry
     Harris-Foulkes estimate   =  -10536.25043885 Ry
     estimated scf accuracy    <       0.00000256 Ry

     total magnetization       =    -0.00 Bohr mag/cell
     absolute magnetization    =    49.53 Bohr mag/cell

     iteration # 34     ecut=    71.00 Ry     beta= 0.10
     Davidson diagonalization with overlap
     ethr =  5.00E-10,  avg # of iterations =  2.1

     total cpu time spent up to now is    19476.0 secs

     total energy              =  -10536.25044016 Ry
     Harris-Foulkes estimate   =  -10536.25043969 Ry
     estimated scf accuracy    <       0.00000179 Ry

     total magnetization       =    -0.00 Bohr mag/cell
     absolute magnetization    =    49.54 Bohr mag/cell

     iteration # 35     ecut=    71.00 Ry     beta= 0.10
     Davidson diagonalization with overlap
     ethr =  3.49E-10,  avg # of iterations =  1.1

     total cpu time spent up to now is    19875.9 secs

     total energy              =  -10536.25044096 Ry
     Harris-Foulkes estimate   =  -10536.25044021 Ry
     estimated scf accuracy    <       0.00000144 Ry

     total magnetization       =    -0.00 Bohr mag/cell
     absolute magnetization    =    49.54 Bohr mag/cell

     iteration # 36     ecut=    71.00 Ry     beta= 0.10
     Davidson diagonalization with overlap
     ethr =  2.81E-10,  avg # of iterations =  2.0

     total cpu time spent up to now is    20383.2 secs

     total energy              =  -10536.25044159 Ry
     Harris-Foulkes estimate   =  -10536.25044108 Ry
     estimated scf accuracy    <       0.00000168 Ry

     total magnetization       =    -0.00 Bohr mag/cell
     absolute magnetization    =    49.54 Bohr mag/cell

     iteration # 37     ecut=    71.00 Ry     beta= 0.10
     Davidson diagonalization with overlap
     ethr =  2.81E-10,  avg # of iterations =  2.6
 
     Magnetic moment per site:
     atom:    1    charge:   14.3917    magn:    1.4905    constr:    0.0000
     atom:    2    charge:   14.3917    magn:   -1.4904    constr:    0.0000
     atom:    3    charge:   14.3910    magn:    1.4934    constr:    0.0000
     atom:    4    charge:   14.3913    magn:   -1.4955    constr:    0.0000
     atom:    5    charge:   14.3912    magn:    1.4913    constr:    0.0000
     atom:    6    charge:   14.3916    magn:   -1.4900    constr:    0.0000
     atom:    7    charge:   14.3910    magn:    1.4934    constr:    0.0000
     atom:    8    charge:   14.3917    magn:   -1.4936    constr:    0.0000
     atom:    9    charge:   14.3916    magn:    1.4914    constr:    0.0000
     atom:   10    charge:   14.3917    magn:   -1.4904    constr:    0.0000
     atom:   11    charge:   14.3913    magn:    1.4927    constr:    0.0000
     atom:   12    charge:   14.3917    magn:   -1.4936    constr:    0.0000
     atom:   13    charge:   14.3912    magn:    1.4920    constr:    0.0000
     atom:   14    charge:   14.3916    magn:   -1.4900    constr:    0.0000
     atom:   15    charge:   14.3913    magn:    1.4927    constr:    0.0000
     atom:   16    charge:   14.3913    magn:   -1.4955    constr:    0.0000
     atom:   17    charge:   14.3914    magn:    1.4915    constr:    0.0000
     atom:   18    charge:   14.3917    magn:   -1.4904    constr:    0.0000
     atom:   19    charge:   14.3910    magn:    1.4934    constr:    0.0000
     atom:   20    charge:   14.3916    magn:   -1.4939    constr:    0.0000
     atom:   21    charge:   14.3914    magn:    1.4918    constr:    0.0000
     atom:   22    charge:   14.3916    magn:   -1.4900    constr:    0.0000
     atom:   23    charge:   14.3910    magn:    1.4934    constr:    0.0000
     atom:   24    charge:   14.3918    magn:   -1.4944    constr:    0.0000
     atom:   25    charge:   14.3915    magn:    1.4910    constr:    0.0000
     atom:   26    charge:   14.3917    magn:   -1.4904    constr:    0.0000
     atom:   27    charge:   14.3913    magn:    1.4927    constr:    0.0000
     atom:   28    charge:   14.3918    magn:   -1.4944    constr:    0.0000
     atom:   29    charge:   14.3915    magn:    1.4909    constr:    0.0000
     atom:   30    charge:   14.3916    magn:   -1.4900    constr:    0.0000
     atom:   31    charge:   14.3913    magn:    1.4927    constr:    0.0000
     atom:   32    charge:   14.3916    magn:   -1.4939    constr:    0.0000

     total cpu time spent up to now is    20970.8 secs

     End of self-consistent calculation

     Number of k-points >= 100: set verbosity='high' to print the bands.

     the Fermi energy is    20.1183 ev

!    total energy              =  -10536.25044168 Ry
     Harris-Foulkes estimate   =  -10536.25044184 Ry
     estimated scf accuracy    <       0.00000087 Ry

     total all-electron energy =    -81457.739500 Ry

     The total energy is the sum of the following terms:

     one-electron contribution =   -3292.38213295 Ry
     hartree contribution      =    1996.51486602 Ry
     xc contribution           =    -886.95707355 Ry
     ewald contribution        =   -5703.87975164 Ry
     one-center paw contrib.   =   -2649.56079402 Ry
     smearing contrib. (-TS)   =       0.01444447 Ry

     total magnetization       =    -0.00 Bohr mag/cell
     absolute magnetization    =    49.54 Bohr mag/cell

     convergence has been achieved in  37 iterations

     Forces acting on atoms (cartesian axes, Ry/au):

     atom    1 type  1   force =     0.00000000    0.00000000    0.00000000
     atom    2 type  2   force =     0.00001482    0.00000580    0.00001309
     atom    3 type  3   force =     0.00003171    0.00000150    0.00002292
     atom    4 type  4   force =     0.00000000   -0.00005508    0.00001124
     atom    5 type  1   force =     0.00000000    0.00000000    0.00000000
     atom    6 type  2   force =    -0.00000176   -0.00002974   -0.00002269
     atom    7 type  3   force =     0.00003171   -0.00000150   -0.00002292
     atom    8 type  4   force =     0.00000000   -0.00004588   -0.00002453
     atom    9 type  1   force =     0.00000000    0.00000000    0.00000000
     atom   10 type  2   force =     0.00001482   -0.00000580   -0.00001309
     atom   11 type  3   force =    -0.00000120    0.00000360    0.00001617
     atom   12 type  4   force =     0.00000000    0.00004588    0.00002453
     atom   13 type  1   force =     0.00000000    0.00000000    0.00000000
     atom   14 type  2   force =    -0.00000176    0.00002974    0.00002269
     atom   15 type  3   force =    -0.00000120   -0.00000360   -0.00001617
     atom   16 type  4   force =     0.00000000    0.00005508   -0.00001124
     atom   17 type  1   force =     0.00000000    0.00000000    0.00000000
     atom   18 type  2   force =    -0.00001482    0.00000580    0.00001309
     atom   19 type  3   force =    -0.00003171    0.00000150    0.00002292
     atom   20 type  4   force =     0.00000000   -0.00001386    0.00002331
     atom   21 type  1   force =     0.00000000    0.00000000    0.00000000
     atom   22 type  2   force =     0.00000176   -0.00002974   -0.00002269
     atom   23 type  3   force =    -0.00003171   -0.00000150   -0.00002292
     atom   24 type  4   force =     0.00000000   -0.00000131    0.00001363
     atom   25 type  1   force =     0.00000000    0.00000000    0.00000000
     atom   26 type  2   force =    -0.00001482   -0.00000580   -0.00001309
     atom   27 type  3   force =     0.00000120    0.00000360    0.00001617
     atom   28 type  4   force =     0.00000000    0.00000131   -0.00001363
     atom   29 type  1   force =     0.00000000    0.00000000    0.00000000
     atom   30 type  2   force =     0.00000176    0.00002974    0.00002269
     atom   31 type  3   force =     0.00000120   -0.00000360   -0.00001617
     atom   32 type  4   force =     0.00000000    0.00001386   -0.00002331

     Total force =     0.000168     Total SCF correction =     0.004773
     SCF correction compared to forces is large: reduce conv_thr to get better values


     Computing stress (Cartesian axis) and pressure

          total   stress  (Ry/bohr**3)                   (kbar)     P=    0.28
   0.00000151   0.00000000   0.00000000          0.22      0.00      0.00
   0.00000000   0.00000232  -0.00004212          0.00      0.34     -6.20
   0.00000000  -0.00004212   0.00000182          0.00     -6.20      0.27


     Writing output data file ERAjqeEzFvDgijao.save/
-------------------------------------------------------
Primary job  terminated normally, but 1 process returned
a non-zero exit code.. Per user-direction, the job has been aborted.
-------------------------------------------------------
--------------------------------------------------------------------------
mpirun detected that one or more processes exited with non-zero status, thus causing
the job to be terminated. The first process to do so was:

  Process name: [[63020,1],0]
  Exit code:    38
--------------------------------------------------------------------------
