--------------------------------------------------------------------------
WARNING: No preset parameters were found for the device that Open MPI
detected:

  Local host:            bear-pg0206u37b
  Device name:           mlx5_0
  Device vendor ID:      0x02c9
  Device vendor part ID: 4123

Default device parameters will be used, which may result in lower
performance.  You can edit any of the files specified by the
btl_openib_device_param_files MCA parameter to set values for your
device.

NOTE: You can turn off this warning by setting the MCA parameter
      btl_openib_warn_no_device_params_found to 0.
--------------------------------------------------------------------------
--------------------------------------------------------------------------
WARNING: There was an error initializing an OpenFabrics device.

  Local host:   bear-pg0206u37b
  Local device: mlx5_0
--------------------------------------------------------------------------

     Program PWSCF v.6.3 starts on  2Nov2020 at  2:49:22 

     This program is part of the open-source Quantum ESPRESSO suite
     for quantum simulation of materials; please cite
         "P. Giannozzi et al., J. Phys.:Condens. Matter 21 395502 (2009);
         "P. Giannozzi et al., J. Phys.:Condens. Matter 29 465901 (2017);
          URL http://www.quantum-espresso.org", 
     in publications or presentations arising from this work. More details at
     http://www.quantum-espresso.org/quote

     Parallel version (MPI & OpenMP), running on      40 processor cores
     Number of MPI processes:                40
     Threads/MPI process:                     1

     MPI processes distributed on     1 nodes
     R & G space division:  proc/nbgrp/npool/nimage =      40
     Reading input from wd/ec/ec_1_002.in
Warning: card &IONS ignored
Warning: card ION_DYNAMICS = 'BFGS', ignored
Warning: card / ignored
Warning: card &CELL ignored
Warning: card CELL_DYNAMICS = 'BFGS', ignored
Warning: card CELL_FACTOR = 2.0, ignored
Warning: card PRESS = 0.0, ignored
Warning: card / ignored

     Current dimensions of program PWSCF are:
     Max number of different atomic species (ntypx) = 10
     Max number of k-points (npk) =  40000
     Max angular momentum in pseudopotentials (lmaxx) =  3
               file Fe.pbe-spn-kjpaw_psl.1.0.0.UPF: wavefunction(s)  3P 3D renormalized
               file Fe.pbe-spn-kjpaw_psl.1.0.0.UPF: wavefunction(s)  3P 3D renormalized

     Subspace diagonalization in iterative solution of the eigenvalue problem:
     a serial algorithm will be used

     Found symmetry operation: I + (  0.0000  0.0000 -0.5000)
     This is a supercell, fractional translations are disabled
 
     Parallelization info
     --------------------
     sticks:   dense  smooth     PW     G-vecs:    dense   smooth      PW
     Min          95      63     17                 4473     2401     357
     Max          96      64     18                 4480     2406     362
     Sum        3833    2537    717               179069    96121   14363
 


     bravais-lattice index     =            0
     lattice parameter (alat)  =      10.5935  a.u.
     unit-cell volume          =    1189.6255 (a.u.)^3
     number of atoms/cell      =           16
     number of atomic types    =            2
     number of electrons       =       256.00
     number of Kohn-Sham states=          154
     kinetic-energy cutoff     =      71.0000  Ry
     charge density cutoff     =     430.0000  Ry
     convergence threshold     =      1.0E-06
     mixing beta               =       0.1000
     number of iterations used =           10  plain     mixing
     Exchange-correlation      = SLA PW PBX PBC ( 1  4  3  4 0 0)

     celldm(1)=  10.593520  celldm(2)=   0.000000  celldm(3)=   0.000000
     celldm(4)=   0.000000  celldm(5)=   0.000000  celldm(6)=   0.000000

     crystal axes: (cart. coord. in units of alat)
               a(1) = (   1.000667   0.000000   0.000000 )  
               a(2) = (   0.000000   1.000000   0.000000 )  
               a(3) = (   0.000000   0.000000   1.000000 )  

     reciprocal axes: (cart. coord. in units 2 pi/alat)
               b(1) = (  0.999334  0.000000  0.000000 )  
               b(2) = (  0.000000  1.000000  0.000000 )  
               b(3) = (  0.000000  0.000000  1.000000 )  


     PseudoPot. # 1 for Fe read from file:
     /rds/homes/b/bxp912/pp/Fe.pbe-spn-kjpaw_psl.1.0.0.UPF
     MD5 check sum: 42f43b795421b414b0dc916aa790dbcb
     Pseudo is Projector augmented-wave + core cor, Zval = 16.0
     Generated using "atomic" code by A. Dal Corso v.6.3
     Shape of augmentation charge: PSQ
     Using radial grid of 1191 points,  6 beta functions with: 
                l(1) =   0
                l(2) =   0
                l(3) =   1
                l(4) =   1
                l(5) =   2
                l(6) =   2
     Q(r) pseudized with 0 coefficients 


     PseudoPot. # 2 for Fe read from file:
     /rds/homes/b/bxp912/pp/Fe.pbe-spn-kjpaw_psl.1.0.0.UPF
     MD5 check sum: 42f43b795421b414b0dc916aa790dbcb
     Pseudo is Projector augmented-wave + core cor, Zval = 16.0
     Generated using "atomic" code by A. Dal Corso v.6.3
     Shape of augmentation charge: PSQ
     Using radial grid of 1191 points,  6 beta functions with: 
                l(1) =   0
                l(2) =   0
                l(3) =   1
                l(4) =   1
                l(5) =   2
                l(6) =   2
     Q(r) pseudized with 0 coefficients 


     atomic species   valence    mass     pseudopotential
        Fe1           16.00    55.84500     Fe( 1.00)
        Fe2           16.00    55.84500     Fe( 1.00)

     Starting magnetic structure 
     atomic species   magnetization
        Fe1          0.100
        Fe2          0.100

     16 Sym. Ops., with inversion, found



   Cartesian axes

     site n.     atom                  positions (alat units)
         1           Fe1 tau(   1) = (   0.0000000   0.0000000   0.0000000  )
         2           Fe2 tau(   2) = (   0.2501671   0.2500004   0.2500004  )
         3           Fe1 tau(   3) = (   0.0000000   0.0000000   0.5000000  )
         4           Fe2 tau(   4) = (   0.2501671   0.2500004   0.7499996  )
         5           Fe1 tau(   5) = (   0.0000000   0.5000000   0.0000000  )
         6           Fe2 tau(   6) = (   0.2501671   0.7499996   0.2500004  )
         7           Fe1 tau(   7) = (   0.0000000   0.5000000   0.5000000  )
         8           Fe2 tau(   8) = (   0.2501671   0.7499996   0.7499996  )
         9           Fe1 tau(   9) = (   0.5003333   0.0000000   0.0000000  )
        10           Fe2 tau(  10) = (   0.7504996   0.2500004   0.2500004  )
        11           Fe1 tau(  11) = (   0.5003333   0.0000000   0.5000000  )
        12           Fe2 tau(  12) = (   0.7504996   0.2500004   0.7499996  )
        13           Fe1 tau(  13) = (   0.5003333   0.5000000   0.0000000  )
        14           Fe2 tau(  14) = (   0.7504996   0.7499996   0.2500004  )
        15           Fe1 tau(  15) = (   0.5003333   0.5000000   0.5000000  )
        16           Fe2 tau(  16) = (   0.7504996   0.7499996   0.7499996  )

     number of k points=    75  Marzari-Vanderbilt smearing, width (Ry)=  0.0400
                       cart. coord. in units 2pi/alat
        k(    1) = (   0.0555185   0.0555556   0.0555556), wk =   0.0109739
        k(    2) = (   0.0555185   0.0555556   0.1666667), wk =   0.0219479
        k(    3) = (   0.0555185   0.0555556   0.2777778), wk =   0.0219479
        k(    4) = (   0.0555185   0.0555556   0.3888889), wk =   0.0219479
        k(    5) = (   0.0555185   0.0555556  -0.5000000), wk =   0.0109739
        k(    6) = (   0.0555185   0.1666667   0.1666667), wk =   0.0109739
        k(    7) = (   0.0555185   0.1666667   0.2777778), wk =   0.0219479
        k(    8) = (   0.0555185   0.1666667   0.3888889), wk =   0.0219479
        k(    9) = (   0.0555185   0.1666667  -0.5000000), wk =   0.0109739
        k(   10) = (   0.0555185   0.2777778   0.2777778), wk =   0.0109739
        k(   11) = (   0.0555185   0.2777778   0.3888889), wk =   0.0219479
        k(   12) = (   0.0555185   0.2777778  -0.5000000), wk =   0.0109739
        k(   13) = (   0.0555185   0.3888889   0.3888889), wk =   0.0109739
        k(   14) = (   0.0555185   0.3888889  -0.5000000), wk =   0.0109739
        k(   15) = (   0.0555185  -0.5000000  -0.5000000), wk =   0.0027435
        k(   16) = (   0.1665556   0.0555556   0.0555556), wk =   0.0109739
        k(   17) = (   0.1665556   0.0555556   0.1666667), wk =   0.0219479
        k(   18) = (   0.1665556   0.0555556   0.2777778), wk =   0.0219479
        k(   19) = (   0.1665556   0.0555556   0.3888889), wk =   0.0219479
        k(   20) = (   0.1665556   0.0555556  -0.5000000), wk =   0.0109739
        k(   21) = (   0.1665556   0.1666667   0.1666667), wk =   0.0109739
        k(   22) = (   0.1665556   0.1666667   0.2777778), wk =   0.0219479
        k(   23) = (   0.1665556   0.1666667   0.3888889), wk =   0.0219479
        k(   24) = (   0.1665556   0.1666667  -0.5000000), wk =   0.0109739
        k(   25) = (   0.1665556   0.2777778   0.2777778), wk =   0.0109739
        k(   26) = (   0.1665556   0.2777778   0.3888889), wk =   0.0219479
        k(   27) = (   0.1665556   0.2777778  -0.5000000), wk =   0.0109739
        k(   28) = (   0.1665556   0.3888889   0.3888889), wk =   0.0109739
        k(   29) = (   0.1665556   0.3888889  -0.5000000), wk =   0.0109739
        k(   30) = (   0.1665556  -0.5000000  -0.5000000), wk =   0.0027435
        k(   31) = (   0.2775927   0.0555556   0.0555556), wk =   0.0109739
        k(   32) = (   0.2775927   0.0555556   0.1666667), wk =   0.0219479
        k(   33) = (   0.2775927   0.0555556   0.2777778), wk =   0.0219479
        k(   34) = (   0.2775927   0.0555556   0.3888889), wk =   0.0219479
        k(   35) = (   0.2775927   0.0555556  -0.5000000), wk =   0.0109739
        k(   36) = (   0.2775927   0.1666667   0.1666667), wk =   0.0109739
        k(   37) = (   0.2775927   0.1666667   0.2777778), wk =   0.0219479
        k(   38) = (   0.2775927   0.1666667   0.3888889), wk =   0.0219479
        k(   39) = (   0.2775927   0.1666667  -0.5000000), wk =   0.0109739
        k(   40) = (   0.2775927   0.2777778   0.2777778), wk =   0.0109739
        k(   41) = (   0.2775927   0.2777778   0.3888889), wk =   0.0219479
        k(   42) = (   0.2775927   0.2777778  -0.5000000), wk =   0.0109739
        k(   43) = (   0.2775927   0.3888889   0.3888889), wk =   0.0109739
        k(   44) = (   0.2775927   0.3888889  -0.5000000), wk =   0.0109739
        k(   45) = (   0.2775927  -0.5000000  -0.5000000), wk =   0.0027435
        k(   46) = (   0.3886298   0.0555556   0.0555556), wk =   0.0109739
        k(   47) = (   0.3886298   0.0555556   0.1666667), wk =   0.0219479
        k(   48) = (   0.3886298   0.0555556   0.2777778), wk =   0.0219479
        k(   49) = (   0.3886298   0.0555556   0.3888889), wk =   0.0219479
        k(   50) = (   0.3886298   0.0555556  -0.5000000), wk =   0.0109739
        k(   51) = (   0.3886298   0.1666667   0.1666667), wk =   0.0109739
        k(   52) = (   0.3886298   0.1666667   0.2777778), wk =   0.0219479
        k(   53) = (   0.3886298   0.1666667   0.3888889), wk =   0.0219479
        k(   54) = (   0.3886298   0.1666667  -0.5000000), wk =   0.0109739
        k(   55) = (   0.3886298   0.2777778   0.2777778), wk =   0.0109739
        k(   56) = (   0.3886298   0.2777778   0.3888889), wk =   0.0219479
        k(   57) = (   0.3886298   0.2777778  -0.5000000), wk =   0.0109739
        k(   58) = (   0.3886298   0.3888889   0.3888889), wk =   0.0109739
        k(   59) = (   0.3886298   0.3888889  -0.5000000), wk =   0.0109739
        k(   60) = (   0.3886298  -0.5000000  -0.5000000), wk =   0.0027435
        k(   61) = (  -0.4996669   0.0555556   0.0555556), wk =   0.0054870
        k(   62) = (  -0.4996669   0.0555556   0.1666667), wk =   0.0109739
        k(   63) = (  -0.4996669   0.0555556   0.2777778), wk =   0.0109739
        k(   64) = (  -0.4996669   0.0555556   0.3888889), wk =   0.0109739
        k(   65) = (  -0.4996669   0.0555556  -0.5000000), wk =   0.0054870
        k(   66) = (  -0.4996669   0.1666667   0.1666667), wk =   0.0054870
        k(   67) = (  -0.4996669   0.1666667   0.2777778), wk =   0.0109739
        k(   68) = (  -0.4996669   0.1666667   0.3888889), wk =   0.0109739
        k(   69) = (  -0.4996669   0.1666667  -0.5000000), wk =   0.0054870
        k(   70) = (  -0.4996669   0.2777778   0.2777778), wk =   0.0054870
        k(   71) = (  -0.4996669   0.2777778   0.3888889), wk =   0.0109739
        k(   72) = (  -0.4996669   0.2777778  -0.5000000), wk =   0.0054870
        k(   73) = (  -0.4996669   0.3888889   0.3888889), wk =   0.0054870
        k(   74) = (  -0.4996669   0.3888889  -0.5000000), wk =   0.0054870
        k(   75) = (  -0.4996669  -0.5000000  -0.5000000), wk =   0.0013717

     Dense  grid:   179069 G-vectors     FFT dimensions: (  72,  72,  72)

     Smooth grid:    96121 G-vectors     FFT dimensions: (  60,  60,  60)

     Estimated max dynamical RAM per process >     144.89 MB

     Estimated total dynamical RAM >       5.66 GB
     Generating pointlists ...
     new r_m :   0.1787 (alat units)  1.8926 (a.u.) for type    1
     new r_m :   0.1787 (alat units)  1.8926 (a.u.) for type    2

     Check: negative/imaginary core charge=   -0.000006    0.000000

     Initial potential from superposition of free atoms

     starting charge  255.99300, renormalised to  256.00000
     Starting wfcs are  160 randomized atomic wfcs
     Checking if some PAW data can be deallocated... 

     total cpu time spent up to now is       15.4 secs

     Self-consistent Calculation

     iteration #  1     ecut=    71.00 Ry     beta= 0.10
     Davidson diagonalization with overlap
     ethr =  1.00E-02,  avg # of iterations =  3.3

     Threshold (ethr) on eigenvalues was too large:
     Diagonalizing with lowered threshold

     Davidson diagonalization with overlap
     ethr =  2.80E-04,  avg # of iterations =  3.4

     total cpu time spent up to now is      129.5 secs

     total energy              =   -5268.16618310 Ry
     Harris-Foulkes estimate   =   -5268.31131544 Ry
     estimated scf accuracy    <       0.81317217 Ry

     total magnetization       =    28.03 Bohr mag/cell
     absolute magnetization    =    28.38 Bohr mag/cell

     iteration #  2     ecut=    71.00 Ry     beta= 0.10
     Davidson diagonalization with overlap
     ethr =  3.18E-04,  avg # of iterations =  1.0

     total cpu time spent up to now is      163.0 secs

     total energy              =   -5268.05088050 Ry
     Harris-Foulkes estimate   =   -5268.18384174 Ry
     estimated scf accuracy    <       0.48299978 Ry

     total magnetization       =    28.66 Bohr mag/cell
     absolute magnetization    =    28.94 Bohr mag/cell

     iteration #  3     ecut=    71.00 Ry     beta= 0.10
     Davidson diagonalization with overlap
     ethr =  1.89E-04,  avg # of iterations =  2.6

     total cpu time spent up to now is      210.7 secs

     total energy              =   -5268.04220869 Ry
     Harris-Foulkes estimate   =   -5268.10399607 Ry
     estimated scf accuracy    <       0.55916117 Ry

     total magnetization       =    29.50 Bohr mag/cell
     absolute magnetization    =    29.83 Bohr mag/cell

     iteration #  4     ecut=    71.00 Ry     beta= 0.10
     Davidson diagonalization with overlap
     ethr =  1.89E-04,  avg # of iterations =  1.3

     total cpu time spent up to now is      246.2 secs

     total energy              =   -5268.06912188 Ry
     Harris-Foulkes estimate   =   -5268.07139694 Ry
     estimated scf accuracy    <       0.15782459 Ry

     total magnetization       =    30.22 Bohr mag/cell
     absolute magnetization    =    30.59 Bohr mag/cell

     iteration #  5     ecut=    71.00 Ry     beta= 0.10
     Davidson diagonalization with overlap
     ethr =  6.17E-05,  avg # of iterations =  1.4

     total cpu time spent up to now is      282.6 secs

     total energy              =   -5268.08931079 Ry
     Harris-Foulkes estimate   =   -5268.07265976 Ry
     estimated scf accuracy    <       0.11173215 Ry

     total magnetization       =    30.31 Bohr mag/cell
     absolute magnetization    =    30.70 Bohr mag/cell

     iteration #  6     ecut=    71.00 Ry     beta= 0.10
     Davidson diagonalization with overlap
     ethr =  4.36E-05,  avg # of iterations =  3.2

     total cpu time spent up to now is      344.2 secs

     total energy              =   -5268.14739316 Ry
     Harris-Foulkes estimate   =   -5268.13173276 Ry
     estimated scf accuracy    <       0.14688933 Ry

     total magnetization       =    30.95 Bohr mag/cell
     absolute magnetization    =    31.67 Bohr mag/cell

     iteration #  7     ecut=    71.00 Ry     beta= 0.10
     Davidson diagonalization with overlap
     ethr =  4.36E-05,  avg # of iterations =  2.0

     total cpu time spent up to now is      386.9 secs

     total energy              =   -5268.15207708 Ry
     Harris-Foulkes estimate   =   -5268.15429663 Ry
     estimated scf accuracy    <       0.10650851 Ry

     total magnetization       =    31.43 Bohr mag/cell
     absolute magnetization    =    32.34 Bohr mag/cell

     iteration #  8     ecut=    71.00 Ry     beta= 0.10
     Davidson diagonalization with overlap
     ethr =  4.16E-05,  avg # of iterations =  1.0

     negative rho (up, down):  0.000E+00 2.250E-03

     total cpu time spent up to now is      420.4 secs

     total energy              =   -5268.16749071 Ry
     Harris-Foulkes estimate   =   -5268.15317048 Ry
     estimated scf accuracy    <       0.08220028 Ry

     total magnetization       =    31.55 Bohr mag/cell
     absolute magnetization    =    32.51 Bohr mag/cell

     iteration #  9     ecut=    71.00 Ry     beta= 0.10
     Davidson diagonalization with overlap
     ethr =  3.21E-05,  avg # of iterations =  2.7

     negative rho (up, down):  0.000E+00 2.369E-03

     total cpu time spent up to now is      477.0 secs

     total energy              =   -5268.18956606 Ry
     Harris-Foulkes estimate   =   -5268.19278224 Ry
     estimated scf accuracy    <       0.02362011 Ry

     total magnetization       =    32.48 Bohr mag/cell
     absolute magnetization    =    33.97 Bohr mag/cell

     iteration # 10     ecut=    71.00 Ry     beta= 0.10
     Davidson diagonalization with overlap
     ethr =  9.23E-06,  avg # of iterations =  1.5

     negative rho (up, down):  0.000E+00 2.477E-03

     total cpu time spent up to now is      514.7 secs

     total energy              =   -5268.18875107 Ry
     Harris-Foulkes estimate   =   -5268.19016393 Ry
     estimated scf accuracy    <       0.00642762 Ry

     total magnetization       =    32.58 Bohr mag/cell
     absolute magnetization    =    34.13 Bohr mag/cell

     iteration # 11     ecut=    71.00 Ry     beta= 0.10
     Davidson diagonalization with overlap
     ethr =  2.51E-06,  avg # of iterations =  2.4

     negative rho (up, down):  0.000E+00 2.584E-03

     total cpu time spent up to now is      560.4 secs

     total energy              =   -5268.18891190 Ry
     Harris-Foulkes estimate   =   -5268.18909457 Ry
     estimated scf accuracy    <       0.00118887 Ry

     total magnetization       =    32.67 Bohr mag/cell
     absolute magnetization    =    34.30 Bohr mag/cell

     iteration # 12     ecut=    71.00 Ry     beta= 0.10
     Davidson diagonalization with overlap
     ethr =  4.64E-07,  avg # of iterations =  2.2

     negative rho (up, down):  0.000E+00 2.648E-03

     total cpu time spent up to now is      603.1 secs

     total energy              =   -5268.18898655 Ry
     Harris-Foulkes estimate   =   -5268.18897937 Ry
     estimated scf accuracy    <       0.00059372 Ry

     total magnetization       =    32.72 Bohr mag/cell
     absolute magnetization    =    34.38 Bohr mag/cell

     iteration # 13     ecut=    71.00 Ry     beta= 0.10
     Davidson diagonalization with overlap
     ethr =  2.32E-07,  avg # of iterations =  2.9

     negative rho (up, down):  0.000E+00 2.448E-03

     total cpu time spent up to now is      653.9 secs

     total energy              =   -5268.18935252 Ry
     Harris-Foulkes estimate   =   -5268.18907327 Ry
     estimated scf accuracy    <       0.00088120 Ry

     total magnetization       =    32.78 Bohr mag/cell
     absolute magnetization    =    34.49 Bohr mag/cell

     iteration # 14     ecut=    71.00 Ry     beta= 0.10
     Davidson diagonalization with overlap
     ethr =  2.32E-07,  avg # of iterations =  3.1

     negative rho (up, down):  0.000E+00 2.458E-03

     total cpu time spent up to now is      712.9 secs

     total energy              =   -5268.18960284 Ry
     Harris-Foulkes estimate   =   -5268.18954370 Ry
     estimated scf accuracy    <       0.00034040 Ry

     total magnetization       =    32.79 Bohr mag/cell
     absolute magnetization    =    34.50 Bohr mag/cell

     iteration # 15     ecut=    71.00 Ry     beta= 0.10
     Davidson diagonalization with overlap
     ethr =  1.33E-07,  avg # of iterations =  1.2

     negative rho (up, down):  0.000E+00 2.475E-03

     total cpu time spent up to now is      748.1 secs

     total energy              =   -5268.18963368 Ry
     Harris-Foulkes estimate   =   -5268.18962264 Ry
     estimated scf accuracy    <       0.00011554 Ry

     total magnetization       =    32.82 Bohr mag/cell
     absolute magnetization    =    34.55 Bohr mag/cell

     iteration # 16     ecut=    71.00 Ry     beta= 0.10
     Davidson diagonalization with overlap
     ethr =  4.51E-08,  avg # of iterations =  2.4

     negative rho (up, down):  0.000E+00 2.378E-03

     total cpu time spent up to now is      796.1 secs

     total energy              =   -5268.18966701 Ry
     Harris-Foulkes estimate   =   -5268.18964938 Ry
     estimated scf accuracy    <       0.00006838 Ry

     total magnetization       =    32.84 Bohr mag/cell
     absolute magnetization    =    34.59 Bohr mag/cell

     iteration # 17     ecut=    71.00 Ry     beta= 0.10
     Davidson diagonalization with overlap
     ethr =  2.67E-08,  avg # of iterations =  2.6

     negative rho (up, down):  0.000E+00 2.393E-03

     total cpu time spent up to now is      849.8 secs

     total energy              =   -5268.18970543 Ry
     Harris-Foulkes estimate   =   -5268.18969409 Ry
     estimated scf accuracy    <       0.00004704 Ry

     total magnetization       =    32.85 Bohr mag/cell
     absolute magnetization    =    34.60 Bohr mag/cell

     iteration # 18     ecut=    71.00 Ry     beta= 0.10
     Davidson diagonalization with overlap
     ethr =  1.84E-08,  avg # of iterations =  1.3

     negative rho (up, down):  0.000E+00 2.461E-03

     total cpu time spent up to now is      886.0 secs

     total energy              =   -5268.18970412 Ry
     Harris-Foulkes estimate   =   -5268.18970745 Ry
     estimated scf accuracy    <       0.00003039 Ry

     total magnetization       =    32.87 Bohr mag/cell
     absolute magnetization    =    34.62 Bohr mag/cell

     iteration # 19     ecut=    71.00 Ry     beta= 0.10
     Davidson diagonalization with overlap
     ethr =  1.19E-08,  avg # of iterations =  3.3

     negative rho (up, down):  0.000E+00 2.462E-03

     total cpu time spent up to now is      945.6 secs

     total energy              =   -5268.18971800 Ry
     Harris-Foulkes estimate   =   -5268.18971489 Ry
     estimated scf accuracy    <       0.00000857 Ry

     total magnetization       =    32.89 Bohr mag/cell
     absolute magnetization    =    34.66 Bohr mag/cell

     iteration # 20     ecut=    71.00 Ry     beta= 0.10
     Davidson diagonalization with overlap
     ethr =  3.35E-09,  avg # of iterations =  1.0

     negative rho (up, down):  0.000E+00 2.466E-03

     total cpu time spent up to now is      981.2 secs

     total energy              =   -5268.18971975 Ry
     Harris-Foulkes estimate   =   -5268.18971841 Ry
     estimated scf accuracy    <       0.00000492 Ry

     total magnetization       =    32.90 Bohr mag/cell
     absolute magnetization    =    34.67 Bohr mag/cell

     iteration # 21     ecut=    71.00 Ry     beta= 0.10
     Davidson diagonalization with overlap
     ethr =  1.92E-09,  avg # of iterations =  1.4

     negative rho (up, down):  0.000E+00 2.463E-03

     total cpu time spent up to now is     1017.9 secs

     total energy              =   -5268.18972171 Ry
     Harris-Foulkes estimate   =   -5268.18971994 Ry
     estimated scf accuracy    <       0.00000373 Ry

     total magnetization       =    32.90 Bohr mag/cell
     absolute magnetization    =    34.67 Bohr mag/cell

     iteration # 22     ecut=    71.00 Ry     beta= 0.10
     Davidson diagonalization with overlap
     ethr =  1.46E-09,  avg # of iterations =  1.6

     negative rho (up, down):  0.000E+00 2.459E-03

     total cpu time spent up to now is     1055.6 secs

     total energy              =   -5268.18972344 Ry
     Harris-Foulkes estimate   =   -5268.18972194 Ry
     estimated scf accuracy    <       0.00000326 Ry

     total magnetization       =    32.91 Bohr mag/cell
     absolute magnetization    =    34.68 Bohr mag/cell

     iteration # 23     ecut=    71.00 Ry     beta= 0.10
     Davidson diagonalization with overlap
     ethr =  1.27E-09,  avg # of iterations =  2.8

     negative rho (up, down):  0.000E+00 2.470E-03
 
     Magnetic moment per site:
     atom:    1    charge:   14.3668    magn:    2.0998    constr:    0.0000
     atom:    2    charge:   14.3668    magn:    2.1024    constr:    0.0000
     atom:    3    charge:   14.3671    magn:    2.1007    constr:    0.0000
     atom:    4    charge:   14.3668    magn:    2.1024    constr:    0.0000
     atom:    5    charge:   14.3671    magn:    2.1007    constr:    0.0000
     atom:    6    charge:   14.3668    magn:    2.1024    constr:    0.0000
     atom:    7    charge:   14.3674    magn:    2.1013    constr:    0.0000
     atom:    8    charge:   14.3668    magn:    2.1024    constr:    0.0000
     atom:    9    charge:   14.3668    magn:    2.0988    constr:    0.0000
     atom:   10    charge:   14.3668    magn:    2.1024    constr:    0.0000
     atom:   11    charge:   14.3671    magn:    2.0995    constr:    0.0000
     atom:   12    charge:   14.3668    magn:    2.1024    constr:    0.0000
     atom:   13    charge:   14.3671    magn:    2.0995    constr:    0.0000
     atom:   14    charge:   14.3668    magn:    2.1024    constr:    0.0000
     atom:   15    charge:   14.3671    magn:    2.1003    constr:    0.0000
     atom:   16    charge:   14.3668    magn:    2.1024    constr:    0.0000

     total cpu time spent up to now is     1108.5 secs

     End of self-consistent calculation

     Number of k-points >= 100: set verbosity='high' to print the bands.

     the Fermi energy is    18.9583 ev

!    total energy              =   -5268.18972623 Ry
     Harris-Foulkes estimate   =   -5268.18972404 Ry
     estimated scf accuracy    <       0.00000087 Ry

     total all-electron energy =    -40728.934255 Ry

     The total energy is the sum of the following terms:

     one-electron contribution =   -1708.41868562 Ry
     hartree contribution      =    1022.63261169 Ry
     xc contribution           =    -444.25233788 Ry
     ewald contribution        =   -2813.60485340 Ry
     one-center paw contrib.   =   -1324.67093486 Ry
     smearing contrib. (-TS)   =       0.12447384 Ry

     total magnetization       =    32.91 Bohr mag/cell
     absolute magnetization    =    34.68 Bohr mag/cell

     convergence has been achieved in  23 iterations

     negative rho (up, down):  0.000E+00 2.470E-03

     Forces acting on atoms (cartesian axes, Ry/au):

     atom    1 type  1   force =     0.00000000    0.00000000   -0.00000000
     atom    2 type  2   force =    -0.00006035    0.00009631    0.00009631
     atom    3 type  1   force =     0.00000000    0.00000000    0.00000000
     atom    4 type  2   force =    -0.00006035    0.00009631   -0.00009631
     atom    5 type  1   force =     0.00000000    0.00000000    0.00000000
     atom    6 type  2   force =    -0.00006035   -0.00009631    0.00009631
     atom    7 type  1   force =     0.00000000    0.00000000    0.00000000
     atom    8 type  2   force =    -0.00006035   -0.00009631   -0.00009631
     atom    9 type  1   force =     0.00000000    0.00000000    0.00000000
     atom   10 type  2   force =     0.00006035    0.00009631    0.00009631
     atom   11 type  1   force =     0.00000000    0.00000000    0.00000000
     atom   12 type  2   force =     0.00006035    0.00009631   -0.00009631
     atom   13 type  1   force =     0.00000000    0.00000000    0.00000000
     atom   14 type  2   force =     0.00006035   -0.00009631    0.00009631
     atom   15 type  1   force =     0.00000000    0.00000000    0.00000000
     atom   16 type  2   force =     0.00006035   -0.00009631   -0.00009631

     Total force =     0.000421     Total SCF correction =     0.005771
     SCF correction compared to forces is large: reduce conv_thr to get better values


     Computing stress (Cartesian axis) and pressure


     negative rho (up, down):  0.000E+00 2.470E-03
          total   stress  (Ry/bohr**3)                   (kbar)     P=   -4.43
  -0.00003423   0.00000000   0.00000000         -5.03      0.00      0.00
   0.00000000  -0.00002809   0.00000000          0.00     -4.13      0.00
   0.00000000   0.00000000  -0.00002809          0.00      0.00     -4.13


     Writing output data file cqwbOUoFCtqAuTQq.save/
 
     init_run     :     13.05s CPU     13.67s WALL (       1 calls)
     electrons    :   1059.02s CPU   1093.19s WALL (       1 calls)
     forces       :      4.76s CPU      5.17s WALL (       1 calls)
     stress       :     13.12s CPU     13.27s WALL (       1 calls)

     Called by init_run:
     wfcinit      :     12.57s CPU     13.09s WALL (       1 calls)
     potinit      :      0.23s CPU      0.25s WALL (       1 calls)
     hinit0       :      0.15s CPU      0.16s WALL (       1 calls)

     Called by electrons:
     c_bands      :    953.17s CPU    981.31s WALL (      24 calls)
     sum_band     :    101.07s CPU    106.51s WALL (      24 calls)
     v_of_rho     :      0.37s CPU      0.37s WALL (      24 calls)
     newd         :      0.75s CPU      0.96s WALL (      24 calls)
     PAW_pot      :      3.59s CPU      3.87s WALL (      24 calls)
     mix_rho      :      0.14s CPU      0.15s WALL (      24 calls)

     Called by c_bands:
     init_us_2    :      5.42s CPU      5.51s WALL (    7650 calls)
     cegterg      :    926.41s CPU    954.22s WALL (    3600 calls)

     Called by sum_band:
     sum_band:bec :      1.50s CPU      1.52s WALL (    3600 calls)
     addusdens    :      1.25s CPU      1.43s WALL (      24 calls)

     Called by *egterg:
     h_psi        :    403.11s CPU    420.07s WALL (   11513 calls)
     s_psi        :     22.26s CPU     22.39s WALL (   11513 calls)
     g_psi        :      0.91s CPU      0.93s WALL (    7763 calls)
     cdiaghg      :    406.80s CPU    408.19s WALL (   11213 calls)

     Called by h_psi:
     h_psi:pot    :    400.57s CPU    417.50s WALL (   11513 calls)
     h_psi:calbec :     32.56s CPU     38.09s WALL (   11513 calls)
     vloc_psi     :    345.83s CPU    357.10s WALL (   11513 calls)
     add_vuspsi   :     22.07s CPU     22.24s WALL (   11513 calls)

     General routines
     calbec       :     49.29s CPU     57.88s WALL (   15863 calls)
     fft          :      0.42s CPU      0.44s WALL (     642 calls)
     ffts         :      0.06s CPU      0.25s WALL (      96 calls)
     fftw         :    401.86s CPU    414.84s WALL ( 3008008 calls)
     interpolate  :      0.09s CPU      0.18s WALL (      48 calls)
 
     Parallel routines
     fft_scatt_xy :     26.60s CPU     27.49s WALL ( 3008746 calls)
     fft_scatt_yz :    270.46s CPU    279.43s WALL ( 3008746 calls)
 
     PWSCF        : 18m19.72s CPU    19m22.48s WALL

 
   This run was terminated on:   3: 8:44   2Nov2020            

=------------------------------------------------------------------------------=
   JOB DONE.
=------------------------------------------------------------------------------=
