--------------------------------------------------------------------------
WARNING: No preset parameters were found for the device that Open MPI
detected:

  Local host:            bear-pg0206u26a
  Device name:           mlx5_0
  Device vendor ID:      0x02c9
  Device vendor part ID: 4123

Default device parameters will be used, which may result in lower
performance.  You can edit any of the files specified by the
btl_openib_device_param_files MCA parameter to set values for your
device.

NOTE: You can turn off this warning by setting the MCA parameter
      btl_openib_warn_no_device_params_found to 0.
--------------------------------------------------------------------------
--------------------------------------------------------------------------
WARNING: There was an error initializing an OpenFabrics device.

  Local host:   bear-pg0206u26a
  Local device: mlx5_0
--------------------------------------------------------------------------

     Program PWSCF v.6.3 starts on  2Nov2020 at 14:55:45 

     This program is part of the open-source Quantum ESPRESSO suite
     for quantum simulation of materials; please cite
         "P. Giannozzi et al., J. Phys.:Condens. Matter 21 395502 (2009);
         "P. Giannozzi et al., J. Phys.:Condens. Matter 29 465901 (2017);
          URL http://www.quantum-espresso.org", 
     in publications or presentations arising from this work. More details at
     http://www.quantum-espresso.org/quote

     Parallel version (MPI & OpenMP), running on      40 processor cores
     Number of MPI processes:                40
     Threads/MPI process:                     1

     MPI processes distributed on     1 nodes
     R & G space division:  proc/nbgrp/npool/nimage =      40
     Reading input from wd/ec/ec_6_004.in
Warning: card &IONS ignored
Warning: card ION_DYNAMICS = 'BFGS', ignored
Warning: card / ignored
Warning: card &CELL ignored
Warning: card CELL_DYNAMICS = 'BFGS', ignored
Warning: card CELL_FACTOR = 2.0, ignored
Warning: card PRESS = 0.0, ignored
Warning: card / ignored

     Current dimensions of program PWSCF are:
     Max number of different atomic species (ntypx) = 10
     Max number of k-points (npk) =  40000
     Max angular momentum in pseudopotentials (lmaxx) =  3
               file Fe.pbe-spn-kjpaw_psl.1.0.0.UPF: wavefunction(s)  3P 3D renormalized
               file Fe.pbe-spn-kjpaw_psl.1.0.0.UPF: wavefunction(s)  3P 3D renormalized

     Subspace diagonalization in iterative solution of the eigenvalue problem:
     a serial algorithm will be used

     Found symmetry operation: I + (  0.0000  0.0000  0.5000)
     This is a supercell, fractional translations are disabled
 
     Parallelization info
     --------------------
     sticks:   dense  smooth     PW     G-vecs:    dense   smooth      PW
     Min          95      63     17                 4473     2401     355
     Max          97      64     18                 4476     2404     360
     Sum        3837    2541    717               178985    96089   14315
 


     bravais-lattice index     =            0
     lattice parameter (alat)  =      10.5935  a.u.
     unit-cell volume          =    1188.8329 (a.u.)^3
     number of atoms/cell      =           16
     number of atomic types    =            2
     number of electrons       =       256.00
     number of Kohn-Sham states=          154
     kinetic-energy cutoff     =      71.0000  Ry
     charge density cutoff     =     430.0000  Ry
     convergence threshold     =      1.0E-06
     mixing beta               =       0.1000
     number of iterations used =           10  plain     mixing
     Exchange-correlation      = SLA PW PBX PBC ( 1  4  3  4 0 0)

     celldm(1)=  10.593520  celldm(2)=   0.000000  celldm(3)=   0.000000
     celldm(4)=   0.000000  celldm(5)=   0.000000  celldm(6)=   0.000000

     crystal axes: (cart. coord. in units of alat)
               a(1) = (   1.000001   0.002000   0.000000 )  
               a(2) = (   0.002000   1.000001   0.000000 )  
               a(3) = (   0.000000   0.000000   1.000001 )  

     reciprocal axes: (cart. coord. in units 2 pi/alat)
               b(1) = (  1.000003 -0.002000  0.000000 )  
               b(2) = ( -0.002000  1.000003  0.000000 )  
               b(3) = (  0.000000  0.000000  0.999999 )  


     PseudoPot. # 1 for Fe read from file:
     /rds/homes/b/bxp912/pp/Fe.pbe-spn-kjpaw_psl.1.0.0.UPF
     MD5 check sum: 42f43b795421b414b0dc916aa790dbcb
     Pseudo is Projector augmented-wave + core cor, Zval = 16.0
     Generated using "atomic" code by A. Dal Corso v.6.3
     Shape of augmentation charge: PSQ
     Using radial grid of 1191 points,  6 beta functions with: 
                l(1) =   0
                l(2) =   0
                l(3) =   1
                l(4) =   1
                l(5) =   2
                l(6) =   2
     Q(r) pseudized with 0 coefficients 


     PseudoPot. # 2 for Fe read from file:
     /rds/homes/b/bxp912/pp/Fe.pbe-spn-kjpaw_psl.1.0.0.UPF
     MD5 check sum: 42f43b795421b414b0dc916aa790dbcb
     Pseudo is Projector augmented-wave + core cor, Zval = 16.0
     Generated using "atomic" code by A. Dal Corso v.6.3
     Shape of augmentation charge: PSQ
     Using radial grid of 1191 points,  6 beta functions with: 
                l(1) =   0
                l(2) =   0
                l(3) =   1
                l(4) =   1
                l(5) =   2
                l(6) =   2
     Q(r) pseudized with 0 coefficients 


     atomic species   valence    mass     pseudopotential
        Fe1           16.00    55.84500     Fe( 1.00)
        Fe2           16.00    55.84500     Fe( 1.00)

     Starting magnetic structure 
     atomic species   magnetization
        Fe1          0.100
        Fe2          0.100

      8 Sym. Ops., with inversion, found



   Cartesian axes

     site n.     atom                  positions (alat units)
         1           Fe1 tau(   1) = (   0.0000000   0.0000000   0.0000000  )
         2           Fe2 tau(   2) = (   0.2505008   0.2505008   0.2500008  )
         3           Fe1 tau(   3) = (   0.0000000   0.0000000   0.5000007  )
         4           Fe2 tau(   4) = (   0.2505008   0.2505008   0.7500006  )
         5           Fe1 tau(   5) = (   0.0010000   0.5000007   0.0000000  )
         6           Fe2 tau(   6) = (   0.2515008   0.7505006   0.2500008  )
         7           Fe1 tau(   7) = (   0.0010000   0.5000007   0.5000007  )
         8           Fe2 tau(   8) = (   0.2515008   0.7505006   0.7500006  )
         9           Fe1 tau(   9) = (   0.5000007   0.0010000   0.0000000  )
        10           Fe2 tau(  10) = (   0.7505006   0.2515008   0.2500008  )
        11           Fe1 tau(  11) = (   0.5000007   0.0010000   0.5000007  )
        12           Fe2 tau(  12) = (   0.7505006   0.2515008   0.7500006  )
        13           Fe1 tau(  13) = (   0.5010007   0.5010007   0.0000000  )
        14           Fe2 tau(  14) = (   0.7515006   0.7515006   0.2500008  )
        15           Fe1 tau(  15) = (   0.5010007   0.5010007   0.5000007  )
        16           Fe2 tau(  16) = (   0.7515006   0.7515006   0.7500006  )

     number of k points=   125  Marzari-Vanderbilt smearing, width (Ry)=  0.0400

     Number of k-points >= 100: set verbosity='high' to print them.

     Dense  grid:   178985 G-vectors     FFT dimensions: (  72,  72,  72)

     Smooth grid:    96089 G-vectors     FFT dimensions: (  60,  60,  60)

     Estimated max dynamical RAM per process >     215.38 MB

     Estimated total dynamical RAM >       8.41 GB
     Generating pointlists ...
     new r_m :   0.1784 (alat units)  1.8897 (a.u.) for type    1
     new r_m :   0.1784 (alat units)  1.8897 (a.u.) for type    2

     Check: negative/imaginary core charge=   -0.000006    0.000000

     Initial potential from superposition of free atoms

     starting charge  255.99300, renormalised to  256.00000
     Starting wfcs are  160 randomized atomic wfcs
     Checking if some PAW data can be deallocated... 

     total cpu time spent up to now is       23.5 secs

     Self-consistent Calculation

     iteration #  1     ecut=    71.00 Ry     beta= 0.10
     Davidson diagonalization with overlap
     ethr =  1.00E-02,  avg # of iterations =  3.4

     Threshold (ethr) on eigenvalues was too large:
     Diagonalizing with lowered threshold

     Davidson diagonalization with overlap
     ethr =  2.16E-04,  avg # of iterations =  3.6

     total cpu time spent up to now is      215.3 secs

     total energy              =   -5268.02492968 Ry
     Harris-Foulkes estimate   =   -5268.09756811 Ry
     estimated scf accuracy    <       0.63340360 Ry

     total magnetization       =    27.93 Bohr mag/cell
     absolute magnetization    =    28.05 Bohr mag/cell

     iteration #  2     ecut=    71.00 Ry     beta= 0.10
     Davidson diagonalization with overlap
     ethr =  2.47E-04,  avg # of iterations =  1.0

     total cpu time spent up to now is      270.4 secs

     total energy              =   -5267.99343041 Ry
     Harris-Foulkes estimate   =   -5268.03912364 Ry
     estimated scf accuracy    <       0.38579879 Ry

     total magnetization       =    28.58 Bohr mag/cell
     absolute magnetization    =    28.72 Bohr mag/cell

     iteration #  3     ecut=    71.00 Ry     beta= 0.10
     Davidson diagonalization with overlap
     ethr =  1.51E-04,  avg # of iterations =  2.4

     total cpu time spent up to now is      344.8 secs

     total energy              =   -5268.02042357 Ry
     Harris-Foulkes estimate   =   -5268.03023504 Ry
     estimated scf accuracy    <       0.39931802 Ry

     total magnetization       =    29.35 Bohr mag/cell
     absolute magnetization    =    29.62 Bohr mag/cell

     iteration #  4     ecut=    71.00 Ry     beta= 0.10
     Davidson diagonalization with overlap
     ethr =  1.51E-04,  avg # of iterations =  1.5

     total cpu time spent up to now is      406.0 secs

     total energy              =   -5268.04503355 Ry
     Harris-Foulkes estimate   =   -5268.04195638 Ry
     estimated scf accuracy    <       0.13122602 Ry

     total magnetization       =    30.13 Bohr mag/cell
     absolute magnetization    =    30.45 Bohr mag/cell

     iteration #  5     ecut=    71.00 Ry     beta= 0.10
     Davidson diagonalization with overlap
     ethr =  5.13E-05,  avg # of iterations =  1.6

     total cpu time spent up to now is      467.8 secs

     total energy              =   -5268.10631282 Ry
     Harris-Foulkes estimate   =   -5268.04782357 Ry
     estimated scf accuracy    <       0.10602366 Ry

     total magnetization       =    30.21 Bohr mag/cell
     absolute magnetization    =    30.56 Bohr mag/cell

     iteration #  6     ecut=    71.00 Ry     beta= 0.10
     Davidson diagonalization with overlap
     ethr =  4.14E-05,  avg # of iterations =  3.2

     negative rho (up, down):  0.000E+00 7.214E-04

     total cpu time spent up to now is      568.9 secs

     total energy              =   -5268.16114331 Ry
     Harris-Foulkes estimate   =   -5268.14080428 Ry
     estimated scf accuracy    <       0.13399152 Ry

     total magnetization       =    31.01 Bohr mag/cell
     absolute magnetization    =    31.75 Bohr mag/cell

     iteration #  7     ecut=    71.00 Ry     beta= 0.10
     Davidson diagonalization with overlap
     ethr =  4.14E-05,  avg # of iterations =  2.7

     negative rho (up, down):  0.000E+00 1.213E-03

     total cpu time spent up to now is      653.8 secs

     total energy              =   -5268.17783766 Ry
     Harris-Foulkes estimate   =   -5268.17687707 Ry
     estimated scf accuracy    <       0.04217513 Ry

     total magnetization       =    31.85 Bohr mag/cell
     absolute magnetization    =    32.99 Bohr mag/cell

     iteration #  8     ecut=    71.00 Ry     beta= 0.10
     Davidson diagonalization with overlap
     ethr =  1.65E-05,  avg # of iterations =  1.3

     negative rho (up, down):  0.000E+00 1.292E-03

     total cpu time spent up to now is      712.4 secs

     total energy              =   -5268.17909809 Ry
     Harris-Foulkes estimate   =   -5268.17958830 Ry
     estimated scf accuracy    <       0.02732876 Ry

     total magnetization       =    32.02 Bohr mag/cell
     absolute magnetization    =    33.23 Bohr mag/cell

     iteration #  9     ecut=    71.00 Ry     beta= 0.10
     Davidson diagonalization with overlap
     ethr =  1.07E-05,  avg # of iterations =  2.1

     negative rho (up, down):  0.000E+00 1.812E-03

     total cpu time spent up to now is      785.3 secs

     total energy              =   -5268.18546992 Ry
     Harris-Foulkes estimate   =   -5268.18132356 Ry
     estimated scf accuracy    <       0.01396337 Ry

     total magnetization       =    32.26 Bohr mag/cell
     absolute magnetization    =    33.60 Bohr mag/cell

     iteration # 10     ecut=    71.00 Ry     beta= 0.10
     Davidson diagonalization with overlap
     ethr =  5.45E-06,  avg # of iterations =  1.3

     negative rho (up, down):  0.000E+00 2.417E-03

     total cpu time spent up to now is      844.7 secs

     total energy              =   -5268.18769120 Ry
     Harris-Foulkes estimate   =   -5268.18613574 Ry
     estimated scf accuracy    <       0.00647675 Ry

     total magnetization       =    32.43 Bohr mag/cell
     absolute magnetization    =    33.87 Bohr mag/cell

     iteration # 11     ecut=    71.00 Ry     beta= 0.10
     Davidson diagonalization with overlap
     ethr =  2.53E-06,  avg # of iterations =  3.4

     negative rho (up, down):  0.000E+00 2.363E-03

     total cpu time spent up to now is      938.2 secs

     total energy              =   -5268.18863341 Ry
     Harris-Foulkes estimate   =   -5268.18861847 Ry
     estimated scf accuracy    <       0.00137055 Ry

     total magnetization       =    32.63 Bohr mag/cell
     absolute magnetization    =    34.25 Bohr mag/cell

     iteration # 12     ecut=    71.00 Ry     beta= 0.10
     Davidson diagonalization with overlap
     ethr =  5.35E-07,  avg # of iterations =  1.2

     negative rho (up, down):  0.000E+00 2.320E-03

     total cpu time spent up to now is      995.9 secs

     total energy              =   -5268.18892365 Ry
     Harris-Foulkes estimate   =   -5268.18866771 Ry
     estimated scf accuracy    <       0.00094298 Ry

     total magnetization       =    32.65 Bohr mag/cell
     absolute magnetization    =    34.27 Bohr mag/cell

     iteration # 13     ecut=    71.00 Ry     beta= 0.10
     Davidson diagonalization with overlap
     ethr =  3.68E-07,  avg # of iterations =  2.5

     negative rho (up, down):  0.000E+00 2.405E-03

     total cpu time spent up to now is     1073.1 secs

     total energy              =   -5268.18921267 Ry
     Harris-Foulkes estimate   =   -5268.18905654 Ry
     estimated scf accuracy    <       0.00120471 Ry

     total magnetization       =    32.72 Bohr mag/cell
     absolute magnetization    =    34.38 Bohr mag/cell

     iteration # 14     ecut=    71.00 Ry     beta= 0.10
     Davidson diagonalization with overlap
     ethr =  3.68E-07,  avg # of iterations =  2.0

     negative rho (up, down):  0.000E+00 2.451E-03

     total cpu time spent up to now is     1147.4 secs

     total energy              =   -5268.18927793 Ry
     Harris-Foulkes estimate   =   -5268.18929245 Ry
     estimated scf accuracy    <       0.00062656 Ry

     total magnetization       =    32.79 Bohr mag/cell
     absolute magnetization    =    34.50 Bohr mag/cell

     iteration # 15     ecut=    71.00 Ry     beta= 0.10
     Davidson diagonalization with overlap
     ethr =  2.45E-07,  avg # of iterations =  1.4

     negative rho (up, down):  0.000E+00 2.350E-03

     total cpu time spent up to now is     1207.1 secs

     total energy              =   -5268.18934111 Ry
     Harris-Foulkes estimate   =   -5268.18931268 Ry
     estimated scf accuracy    <       0.00010528 Ry

     total magnetization       =    32.81 Bohr mag/cell
     absolute magnetization    =    34.55 Bohr mag/cell

     iteration # 16     ecut=    71.00 Ry     beta= 0.10
     Davidson diagonalization with overlap
     ethr =  4.11E-08,  avg # of iterations =  3.1

     negative rho (up, down):  0.000E+00 2.429E-03

     total cpu time spent up to now is     1298.6 secs

     total energy              =   -5268.18937032 Ry
     Harris-Foulkes estimate   =   -5268.18936231 Ry
     estimated scf accuracy    <       0.00016165 Ry

     total magnetization       =    32.82 Bohr mag/cell
     absolute magnetization    =    34.54 Bohr mag/cell

     iteration # 17     ecut=    71.00 Ry     beta= 0.10
     Davidson diagonalization with overlap
     ethr =  4.11E-08,  avg # of iterations =  2.6

     negative rho (up, down):  0.000E+00 2.419E-03

     total cpu time spent up to now is     1384.3 secs

     total energy              =   -5268.18941052 Ry
     Harris-Foulkes estimate   =   -5268.18940554 Ry
     estimated scf accuracy    <       0.00003234 Ry

     total magnetization       =    32.87 Bohr mag/cell
     absolute magnetization    =    34.62 Bohr mag/cell

     iteration # 18     ecut=    71.00 Ry     beta= 0.10
     Davidson diagonalization with overlap
     ethr =  1.26E-08,  avg # of iterations =  2.0

     negative rho (up, down):  0.000E+00 2.413E-03

     total cpu time spent up to now is     1451.2 secs

     total energy              =   -5268.18941485 Ry
     Harris-Foulkes estimate   =   -5268.18941273 Ry
     estimated scf accuracy    <       0.00001747 Ry

     total magnetization       =    32.87 Bohr mag/cell
     absolute magnetization    =    34.63 Bohr mag/cell

     iteration # 19     ecut=    71.00 Ry     beta= 0.10
     Davidson diagonalization with overlap
     ethr =  6.82E-09,  avg # of iterations =  1.2

     negative rho (up, down):  0.000E+00 2.422E-03

     total cpu time spent up to now is     1508.7 secs

     total energy              =   -5268.18941498 Ry
     Harris-Foulkes estimate   =   -5268.18941541 Ry
     estimated scf accuracy    <       0.00001102 Ry

     total magnetization       =    32.88 Bohr mag/cell
     absolute magnetization    =    34.64 Bohr mag/cell

     iteration # 20     ecut=    71.00 Ry     beta= 0.10
     Davidson diagonalization with overlap
     ethr =  4.31E-09,  avg # of iterations =  3.1

     negative rho (up, down):  0.000E+00 2.431E-03

     total cpu time spent up to now is     1604.7 secs

     total energy              =   -5268.18941895 Ry
     Harris-Foulkes estimate   =   -5268.18941869 Ry
     estimated scf accuracy    <       0.00000207 Ry

     total magnetization       =    32.90 Bohr mag/cell
     absolute magnetization    =    34.66 Bohr mag/cell

     iteration # 21     ecut=    71.00 Ry     beta= 0.10
     Davidson diagonalization with overlap
     ethr =  8.10E-10,  avg # of iterations =  1.6

     negative rho (up, down):  0.000E+00 2.434E-03

     total cpu time spent up to now is     1668.2 secs

     total energy              =   -5268.18941922 Ry
     Harris-Foulkes estimate   =   -5268.18941909 Ry
     estimated scf accuracy    <       0.00000124 Ry

     total magnetization       =    32.90 Bohr mag/cell
     absolute magnetization    =    34.66 Bohr mag/cell

     iteration # 22     ecut=    71.00 Ry     beta= 0.10
     Davidson diagonalization with overlap
     ethr =  4.84E-10,  avg # of iterations =  1.0

     negative rho (up, down):  0.000E+00 2.462E-03
 
     Magnetic moment per site:
     atom:    1    charge:   14.3583    magn:    2.0994    constr:    0.0000
     atom:    2    charge:   14.3582    magn:    2.1004    constr:    0.0000
     atom:    3    charge:   14.3583    magn:    2.1002    constr:    0.0000
     atom:    4    charge:   14.3582    magn:    2.1004    constr:    0.0000
     atom:    5    charge:   14.3583    magn:    2.0994    constr:    0.0000
     atom:    6    charge:   14.3582    magn:    2.1007    constr:    0.0000
     atom:    7    charge:   14.3582    magn:    2.0999    constr:    0.0000
     atom:    8    charge:   14.3582    magn:    2.1007    constr:    0.0000
     atom:    9    charge:   14.3583    magn:    2.0994    constr:    0.0000
     atom:   10    charge:   14.3582    magn:    2.1007    constr:    0.0000
     atom:   11    charge:   14.3582    magn:    2.0999    constr:    0.0000
     atom:   12    charge:   14.3582    magn:    2.1007    constr:    0.0000
     atom:   13    charge:   14.3583    magn:    2.0992    constr:    0.0000
     atom:   14    charge:   14.3582    magn:    2.1004    constr:    0.0000
     atom:   15    charge:   14.3581    magn:    2.0999    constr:    0.0000
     atom:   16    charge:   14.3582    magn:    2.1004    constr:    0.0000

     total cpu time spent up to now is     1723.2 secs

     End of self-consistent calculation

     Number of k-points >= 100: set verbosity='high' to print the bands.

     the Fermi energy is    18.9745 ev

!    total energy              =   -5268.18941983 Ry
     Harris-Foulkes estimate   =   -5268.18941925 Ry
     estimated scf accuracy    <       0.00000087 Ry

     total all-electron energy =    -40728.933949 Ry

     The total energy is the sum of the following terms:

     one-electron contribution =   -1707.43668257 Ry
     hartree contribution      =    1022.27897186 Ry
     xc contribution           =    -444.25935309 Ry
     ewald contribution        =   -2814.22538987 Ry
     one-center paw contrib.   =   -1324.67110772 Ry
     smearing contrib. (-TS)   =       0.12414156 Ry

     total magnetization       =    32.90 Bohr mag/cell
     absolute magnetization    =    34.66 Bohr mag/cell

     convergence has been achieved in  22 iterations

     negative rho (up, down):  0.000E+00 2.462E-03

     Forces acting on atoms (cartesian axes, Ry/au):

     atom    1 type  1   force =     0.00000000    0.00000000    0.00000000
     atom    2 type  2   force =     0.00007789    0.00007789   -0.00011839
     atom    3 type  1   force =     0.00000000    0.00000000    0.00000000
     atom    4 type  2   force =     0.00007789    0.00007789    0.00011839
     atom    5 type  1   force =     0.00000000    0.00000000    0.00000000
     atom    6 type  2   force =     0.00045991   -0.00045991    0.00025942
     atom    7 type  1   force =     0.00000000    0.00000000    0.00000000
     atom    8 type  2   force =     0.00045991   -0.00045991   -0.00025942
     atom    9 type  1   force =     0.00000000    0.00000000    0.00000000
     atom   10 type  2   force =    -0.00045991    0.00045991    0.00025942
     atom   11 type  1   force =     0.00000000    0.00000000    0.00000000
     atom   12 type  2   force =    -0.00045991    0.00045991   -0.00025942
     atom   13 type  1   force =     0.00000000    0.00000000    0.00000000
     atom   14 type  2   force =    -0.00007789   -0.00007789   -0.00011839
     atom   15 type  1   force =     0.00000000    0.00000000    0.00000000
     atom   16 type  2   force =    -0.00007789   -0.00007789    0.00011839

     Total force =     0.001437     Total SCF correction =     0.005121
     SCF correction compared to forces is large: reduce conv_thr to get better values


     Computing stress (Cartesian axis) and pressure


     negative rho (up, down):  0.000E+00 2.462E-03
          total   stress  (Ry/bohr**3)                   (kbar)     P=   -3.15
  -0.00002153  -0.00003703   0.00000000         -3.17     -5.45      0.00
  -0.00003703  -0.00002153   0.00000000         -5.45     -3.17      0.00
   0.00000000   0.00000000  -0.00002116          0.00      0.00     -3.11


     Writing output data file ozdLhJtUFyMkYtix.save/
 
     init_run     :     21.27s CPU     22.21s WALL (       1 calls)
     electrons    :   1647.89s CPU   1699.76s WALL (       1 calls)
     forces       :      7.66s CPU      8.32s WALL (       1 calls)
     stress       :     20.16s CPU     20.38s WALL (       1 calls)

     Called by init_run:
     wfcinit      :     20.78s CPU     21.67s WALL (       1 calls)
     potinit      :      0.20s CPU      0.22s WALL (       1 calls)
     hinit0       :      0.18s CPU      0.19s WALL (       1 calls)

     Called by electrons:
     c_bands      :   1485.75s CPU   1529.03s WALL (      23 calls)
     sum_band     :    157.63s CPU    165.61s WALL (      23 calls)
     v_of_rho     :      0.35s CPU      0.35s WALL (      23 calls)
     newd         :      0.71s CPU      0.92s WALL (      23 calls)
     PAW_pot      :      3.40s CPU      3.72s WALL (      23 calls)
     mix_rho      :      0.13s CPU      0.14s WALL (      23 calls)

     Called by c_bands:
     init_us_2    :      8.23s CPU      8.33s WALL (   12250 calls)
     cegterg      :   1444.49s CPU   1487.32s WALL (    5750 calls)

     Called by sum_band:
     sum_band:bec :      2.21s CPU      2.24s WALL (    5750 calls)
     addusdens    :      1.12s CPU      1.31s WALL (      23 calls)

     Called by *egterg:
     h_psi        :    623.38s CPU    649.63s WALL (   18355 calls)
     s_psi        :     32.74s CPU     32.95s WALL (   18355 calls)
     g_psi        :      1.31s CPU      1.33s WALL (   12355 calls)
     cdiaghg      :    644.34s CPU    646.96s WALL (   17855 calls)

     Called by h_psi:
     h_psi:pot    :    620.08s CPU    646.28s WALL (   18355 calls)
     h_psi:calbec :     51.25s CPU     59.27s WALL (   18355 calls)
     vloc_psi     :    535.18s CPU    553.11s WALL (   18355 calls)
     add_vuspsi   :     33.50s CPU     33.79s WALL (   18355 calls)

     General routines
     calbec       :     78.44s CPU     90.89s WALL (   25355 calls)
     fft          :      0.38s CPU      0.41s WALL (     617 calls)
     ffts         :      0.06s CPU      0.23s WALL (      92 calls)
     fftw         :    623.81s CPU    644.46s WALL ( 4764260 calls)
     interpolate  :      0.07s CPU      0.15s WALL (      46 calls)
 
     Parallel routines
     fft_scatt_xy :     40.84s CPU     42.13s WALL ( 4764969 calls)
     fft_scatt_yz :    419.73s CPU    434.16s WALL ( 4764969 calls)
 
     PWSCF        : 28m31.93s CPU    30m13.66s WALL

 
   This run was terminated on:  15:25:59   2Nov2020            

=------------------------------------------------------------------------------=
   JOB DONE.
=------------------------------------------------------------------------------=
