--------------------------------------------------------------------------
WARNING: There was an error initializing an OpenFabrics device.

  Local host:   bear-pg0206u39a
  Local device: mlx5_0
--------------------------------------------------------------------------
--------------------------------------------------------------------------
WARNING: No preset parameters were found for the device that Open MPI
detected:

  Local host:            bear-pg0206u39a
  Device name:           mlx5_0
  Device vendor ID:      0x02c9
  Device vendor part ID: 4123

Default device parameters will be used, which may result in lower
performance.  You can edit any of the files specified by the
btl_openib_device_param_files MCA parameter to set values for your
device.

NOTE: You can turn off this warning by setting the MCA parameter
      btl_openib_warn_no_device_params_found to 0.
--------------------------------------------------------------------------

     Program PWSCF v.6.3 starts on 10Sep2020 at  3:40: 1 

     This program is part of the open-source Quantum ESPRESSO suite
     for quantum simulation of materials; please cite
         "P. Giannozzi et al., J. Phys.:Condens. Matter 21 395502 (2009);
         "P. Giannozzi et al., J. Phys.:Condens. Matter 29 465901 (2017);
          URL http://www.quantum-espresso.org", 
     in publications or presentations arising from this work. More details at
     http://www.quantum-espresso.org/quote

     Parallel version (MPI & OpenMP), running on      40 processor cores
     Number of MPI processes:                40
     Threads/MPI process:                     1

     MPI processes distributed on     1 nodes
     R & G space division:  proc/nbgrp/npool/nimage =      40
     Reading input from wd/ec/ec_7_005.in
Warning: card &IONS ignored
Warning: card ION_DYNAMICS = 'BFGS', ignored
Warning: card / ignored
Warning: card &CELL ignored
Warning: card CELL_DYNAMICS = 'BFGS', ignored
Warning: card CELL_FACTOR = 2.0, ignored
Warning: card PRESS = 0.0, ignored
Warning: card / ignored

     Current dimensions of program PWSCF are:
     Max number of different atomic species (ntypx) = 10
     Max number of k-points (npk) =  40000
     Max angular momentum in pseudopotentials (lmaxx) =  3
               file Fe.pbe-spn-kjpaw_psl.1.0.0.UPF: wavefunction(s)  3P 3D renormalized
               file Fe.pbe-spn-kjpaw_psl.1.0.0.UPF: wavefunction(s)  3P 3D renormalized

     Subspace diagonalization in iterative solution of the eigenvalue problem:
     a serial algorithm will be used

     Found symmetry operation: I + (  0.0000  0.0000  0.5000)
     This is a supercell, fractional translations are disabled
 
     Parallelization info
     --------------------
     sticks:   dense  smooth     PW     G-vecs:    dense   smooth      PW
     Min          95      63     17                 4471     2401     355
     Max          96      64     18                 4476     2406     360
     Sum        3839    2549    713               178983    96149   14307
 


     bravais-lattice index     =            0
     lattice parameter (alat)  =      10.5935  a.u.
     unit-cell volume          =    1188.8329 (a.u.)^3
     number of atoms/cell      =           16
     number of atomic types    =            2
     number of electrons       =       256.00
     number of Kohn-Sham states=          154
     kinetic-energy cutoff     =      71.0000  Ry
     charge density cutoff     =     430.0000  Ry
     convergence threshold     =      1.0E-06
     mixing beta               =       0.1000
     number of iterations used =           10  plain     mixing
     Exchange-correlation      = SLA PW PBX PBC ( 1  4  3  4 0 0)

     celldm(1)=  10.593520  celldm(2)=   0.000000  celldm(3)=   0.000000
     celldm(4)=   0.000000  celldm(5)=   0.000000  celldm(6)=   0.000000

     crystal axes: (cart. coord. in units of alat)
               a(1) = (   1.003337   0.000000   0.000000 )  
               a(2) = (   0.000000   0.996670   0.000000 )  
               a(3) = (   0.000000   0.000000   1.000004 )  

     reciprocal axes: (cart. coord. in units 2 pi/alat)
               b(1) = (  0.996674  0.000000  0.000000 )  
               b(2) = (  0.000000  1.003341  0.000000 )  
               b(3) = (  0.000000  0.000000  0.999996 )  


     PseudoPot. # 1 for Fe read from file:
     /rds/homes/b/bxp912/pp/Fe.pbe-spn-kjpaw_psl.1.0.0.UPF
     MD5 check sum: 42f43b795421b414b0dc916aa790dbcb
     Pseudo is Projector augmented-wave + core cor, Zval = 16.0
     Generated using "atomic" code by A. Dal Corso v.6.3
     Shape of augmentation charge: PSQ
     Using radial grid of 1191 points,  6 beta functions with: 
                l(1) =   0
                l(2) =   0
                l(3) =   1
                l(4) =   1
                l(5) =   2
                l(6) =   2
     Q(r) pseudized with 0 coefficients 


     PseudoPot. # 2 for Fe read from file:
     /rds/homes/b/bxp912/pp/Fe.pbe-spn-kjpaw_psl.1.0.0.UPF
     MD5 check sum: 42f43b795421b414b0dc916aa790dbcb
     Pseudo is Projector augmented-wave + core cor, Zval = 16.0
     Generated using "atomic" code by A. Dal Corso v.6.3
     Shape of augmentation charge: PSQ
     Using radial grid of 1191 points,  6 beta functions with: 
                l(1) =   0
                l(2) =   0
                l(3) =   1
                l(4) =   1
                l(5) =   2
                l(6) =   2
     Q(r) pseudized with 0 coefficients 


     atomic species   valence    mass     pseudopotential
        Fe1           16.00    55.84500     Fe( 1.00)
        Fe2           16.00    55.84500     Fe( 1.00)

     Starting magnetic structure 
     atomic species   magnetization
        Fe1          0.100
        Fe2          0.100

      8 Sym. Ops., with inversion, found



   Cartesian axes

     site n.     atom                  positions (alat units)
         1           Fe1 tau(   1) = (   0.0000000   0.0000000   0.0000000  )
         2           Fe2 tau(   2) = (   0.2508347   0.2491680   0.2500014  )
         3           Fe1 tau(   3) = (   0.0000000   0.0000000   0.5000019  )
         4           Fe2 tau(   4) = (   0.2508347   0.2491680   0.7500023  )
         5           Fe1 tau(   5) = (   0.0000000   0.4983352   0.0000000  )
         6           Fe2 tau(   6) = (   0.2508347   0.7475023   0.2500014  )
         7           Fe1 tau(   7) = (   0.0000000   0.4983352   0.5000019  )
         8           Fe2 tau(   8) = (   0.2508347   0.7475023   0.7500023  )
         9           Fe1 tau(   9) = (   0.5016685   0.0000000   0.0000000  )
        10           Fe2 tau(  10) = (   0.7525024   0.2491680   0.2500014  )
        11           Fe1 tau(  11) = (   0.5016685   0.0000000   0.5000019  )
        12           Fe2 tau(  12) = (   0.7525024   0.2491680   0.7500023  )
        13           Fe1 tau(  13) = (   0.5016685   0.4983352   0.0000000  )
        14           Fe2 tau(  14) = (   0.7525024   0.7475023   0.2500014  )
        15           Fe1 tau(  15) = (   0.5016685   0.4983352   0.5000019  )
        16           Fe2 tau(  16) = (   0.7525024   0.7475023   0.7500023  )

     number of k points=   125  Marzari-Vanderbilt smearing, width (Ry)=  0.0400

     Number of k-points >= 100: set verbosity='high' to print them.

     Dense  grid:   178983 G-vectors     FFT dimensions: (  72,  72,  72)

     Smooth grid:    96149 G-vectors     FFT dimensions: (  60,  60,  60)

     Estimated max dynamical RAM per process >     215.38 MB

     Estimated total dynamical RAM >       8.41 GB
     Generating pointlists ...
     new r_m :   0.1786 (alat units)  1.8922 (a.u.) for type    1
     new r_m :   0.1786 (alat units)  1.8922 (a.u.) for type    2

     Check: negative/imaginary core charge=   -0.000006    0.000000

     Initial potential from superposition of free atoms

     starting charge  255.99300, renormalised to  256.00000
     Starting wfcs are  160 randomized atomic wfcs
     Checking if some PAW data can be deallocated... 

     total cpu time spent up to now is       23.5 secs

     Self-consistent Calculation

     iteration #  1     ecut=    71.00 Ry     beta= 0.10
     Davidson diagonalization with overlap
     ethr =  1.00E-02,  avg # of iterations =  3.3

     Threshold (ethr) on eigenvalues was too large:
     Diagonalizing with lowered threshold

     Davidson diagonalization with overlap
     ethr =  2.83E-04,  avg # of iterations =  3.4

     total cpu time spent up to now is      209.0 secs

     total energy              =   -5268.17613884 Ry
     Harris-Foulkes estimate   =   -5268.32777965 Ry
     estimated scf accuracy    <       0.82024011 Ry

     total magnetization       =    28.04 Bohr mag/cell
     absolute magnetization    =    28.41 Bohr mag/cell

     iteration #  2     ecut=    71.00 Ry     beta= 0.10
     Davidson diagonalization with overlap
     ethr =  3.20E-04,  avg # of iterations =  1.0

     total cpu time spent up to now is      264.6 secs

     total energy              =   -5268.06986981 Ry
     Harris-Foulkes estimate   =   -5268.19490355 Ry
     estimated scf accuracy    <       0.49746167 Ry

     total magnetization       =    28.67 Bohr mag/cell
     absolute magnetization    =    28.95 Bohr mag/cell

     iteration #  3     ecut=    71.00 Ry     beta= 0.10
     Davidson diagonalization with overlap
     ethr =  1.94E-04,  avg # of iterations =  2.5

     total cpu time spent up to now is      340.0 secs

     total energy              =   -5268.03744619 Ry
     Harris-Foulkes estimate   =   -5268.11652025 Ry
     estimated scf accuracy    <       0.56978720 Ry

     total magnetization       =    29.37 Bohr mag/cell
     absolute magnetization    =    29.71 Bohr mag/cell

     iteration #  4     ecut=    71.00 Ry     beta= 0.10
     Davidson diagonalization with overlap
     ethr =  1.94E-04,  avg # of iterations =  2.1

     total cpu time spent up to now is      409.4 secs

     total energy              =   -5268.06935997 Ry
     Harris-Foulkes estimate   =   -5268.07295467 Ry
     estimated scf accuracy    <       0.17567368 Ry

     total magnetization       =    30.20 Bohr mag/cell
     absolute magnetization    =    30.59 Bohr mag/cell

     iteration #  5     ecut=    71.00 Ry     beta= 0.10
     Davidson diagonalization with overlap
     ethr =  6.86E-05,  avg # of iterations =  1.4

     total cpu time spent up to now is      471.0 secs

     total energy              =   -5268.08821196 Ry
     Harris-Foulkes estimate   =   -5268.07349620 Ry
     estimated scf accuracy    <       0.11141263 Ry

     total magnetization       =    30.30 Bohr mag/cell
     absolute magnetization    =    30.69 Bohr mag/cell

     iteration #  6     ecut=    71.00 Ry     beta= 0.10
     Davidson diagonalization with overlap
     ethr =  4.35E-05,  avg # of iterations =  3.3

     total cpu time spent up to now is      575.6 secs

     total energy              =   -5268.14475276 Ry
     Harris-Foulkes estimate   =   -5268.12714446 Ry
     estimated scf accuracy    <       0.13322425 Ry

     total magnetization       =    30.92 Bohr mag/cell
     absolute magnetization    =    31.63 Bohr mag/cell

     iteration #  7     ecut=    71.00 Ry     beta= 0.10
     Davidson diagonalization with overlap
     ethr =  4.35E-05,  avg # of iterations =  2.0

     total cpu time spent up to now is      646.7 secs

     total energy              =   -5268.15289072 Ry
     Harris-Foulkes estimate   =   -5268.15261546 Ry
     estimated scf accuracy    <       0.09943155 Ry

     total magnetization       =    31.45 Bohr mag/cell
     absolute magnetization    =    32.36 Bohr mag/cell

     iteration #  8     ecut=    71.00 Ry     beta= 0.10
     Davidson diagonalization with overlap
     ethr =  3.88E-05,  avg # of iterations =  1.0

     negative rho (up, down):  0.000E+00 1.476E-03

     total cpu time spent up to now is      703.2 secs

     total energy              =   -5268.17012328 Ry
     Harris-Foulkes estimate   =   -5268.15418166 Ry
     estimated scf accuracy    <       0.07820791 Ry

     total magnetization       =    31.59 Bohr mag/cell
     absolute magnetization    =    32.56 Bohr mag/cell

     iteration #  9     ecut=    71.00 Ry     beta= 0.10
     Davidson diagonalization with overlap
     ethr =  3.05E-05,  avg # of iterations =  2.7

     negative rho (up, down):  0.000E+00 2.154E-03

     total cpu time spent up to now is      791.9 secs

     total energy              =   -5268.18836666 Ry
     Harris-Foulkes estimate   =   -5268.18381320 Ry
     estimated scf accuracy    <       0.03845826 Ry

     total magnetization       =    32.25 Bohr mag/cell
     absolute magnetization    =    33.59 Bohr mag/cell

     iteration # 10     ecut=    71.00 Ry     beta= 0.10
     Davidson diagonalization with overlap
     ethr =  1.50E-05,  avg # of iterations =  1.1

     negative rho (up, down):  0.000E+00 2.503E-03

     total cpu time spent up to now is      849.5 secs

     total energy              =   -5268.18759584 Ry
     Harris-Foulkes estimate   =   -5268.19006360 Ry
     estimated scf accuracy    <       0.01634666 Ry

     total magnetization       =    32.48 Bohr mag/cell
     absolute magnetization    =    33.92 Bohr mag/cell

     iteration # 11     ecut=    71.00 Ry     beta= 0.10
     Davidson diagonalization with overlap
     ethr =  6.39E-06,  avg # of iterations =  3.0

     negative rho (up, down):  0.000E+00 2.553E-03

     total cpu time spent up to now is      933.2 secs

     total energy              =   -5268.18857659 Ry
     Harris-Foulkes estimate   =   -5268.18875443 Ry
     estimated scf accuracy    <       0.00163565 Ry

     total magnetization       =    32.65 Bohr mag/cell
     absolute magnetization    =    34.26 Bohr mag/cell

     iteration # 12     ecut=    71.00 Ry     beta= 0.10
     Davidson diagonalization with overlap
     ethr =  6.39E-07,  avg # of iterations =  2.8

     negative rho (up, down):  0.000E+00 2.585E-03

     total cpu time spent up to now is     1013.4 secs

     total energy              =   -5268.18886520 Ry
     Harris-Foulkes estimate   =   -5268.18869715 Ry
     estimated scf accuracy    <       0.00084048 Ry

     total magnetization       =    32.69 Bohr mag/cell
     absolute magnetization    =    34.33 Bohr mag/cell

     iteration # 13     ecut=    71.00 Ry     beta= 0.10
     Davidson diagonalization with overlap
     ethr =  3.28E-07,  avg # of iterations =  1.9

     negative rho (up, down):  0.000E+00 2.563E-03

     total cpu time spent up to now is     1080.2 secs

     total energy              =   -5268.18881682 Ry
     Harris-Foulkes estimate   =   -5268.18892504 Ry
     estimated scf accuracy    <       0.00078228 Ry

     total magnetization       =    32.72 Bohr mag/cell
     absolute magnetization    =    34.39 Bohr mag/cell

     iteration # 14     ecut=    71.00 Ry     beta= 0.10
     Davidson diagonalization with overlap
     ethr =  3.06E-07,  avg # of iterations =  2.4

     negative rho (up, down):  0.000E+00 2.449E-03

     total cpu time spent up to now is     1162.5 secs

     total energy              =   -5268.18908726 Ry
     Harris-Foulkes estimate   =   -5268.18890125 Ry
     estimated scf accuracy    <       0.00071851 Ry

     total magnetization       =    32.76 Bohr mag/cell
     absolute magnetization    =    34.47 Bohr mag/cell

     iteration # 15     ecut=    71.00 Ry     beta= 0.10
     Davidson diagonalization with overlap
     ethr =  2.81E-07,  avg # of iterations =  2.0

     negative rho (up, down):  0.000E+00 2.500E-03

     total cpu time spent up to now is     1234.7 secs

     total energy              =   -5268.18920096 Ry
     Harris-Foulkes estimate   =   -5268.18916644 Ry
     estimated scf accuracy    <       0.00020437 Ry

     total magnetization       =    32.78 Bohr mag/cell
     absolute magnetization    =    34.49 Bohr mag/cell

     iteration # 16     ecut=    71.00 Ry     beta= 0.10
     Davidson diagonalization with overlap
     ethr =  7.98E-08,  avg # of iterations =  2.8

     negative rho (up, down):  0.000E+00 2.475E-03

     total cpu time spent up to now is     1319.1 secs

     total energy              =   -5268.18926570 Ry
     Harris-Foulkes estimate   =   -5268.18922562 Ry
     estimated scf accuracy    <       0.00010324 Ry

     total magnetization       =    32.82 Bohr mag/cell
     absolute magnetization    =    34.56 Bohr mag/cell

     iteration # 17     ecut=    71.00 Ry     beta= 0.10
     Davidson diagonalization with overlap
     ethr =  4.03E-08,  avg # of iterations =  1.7

     negative rho (up, down):  0.000E+00 2.474E-03

     total cpu time spent up to now is     1384.5 secs

     total energy              =   -5268.18930932 Ry
     Harris-Foulkes estimate   =   -5268.18927140 Ry
     estimated scf accuracy    <       0.00007391 Ry

     total magnetization       =    32.83 Bohr mag/cell
     absolute magnetization    =    34.57 Bohr mag/cell

     iteration # 18     ecut=    71.00 Ry     beta= 0.10
     Davidson diagonalization with overlap
     ethr =  2.89E-08,  avg # of iterations =  2.7

     negative rho (up, down):  0.000E+00 2.462E-03

     total cpu time spent up to now is     1468.8 secs

     total energy              =   -5268.18932853 Ry
     Harris-Foulkes estimate   =   -5268.18931901 Ry
     estimated scf accuracy    <       0.00005114 Ry

     total magnetization       =    32.85 Bohr mag/cell
     absolute magnetization    =    34.61 Bohr mag/cell

     iteration # 19     ecut=    71.00 Ry     beta= 0.10
     Davidson diagonalization with overlap
     ethr =  2.00E-08,  avg # of iterations =  2.7

     negative rho (up, down):  0.000E+00 2.443E-03

     total cpu time spent up to now is     1553.5 secs

     total energy              =   -5268.18934320 Ry
     Harris-Foulkes estimate   =   -5268.18933738 Ry
     estimated scf accuracy    <       0.00002062 Ry

     total magnetization       =    32.87 Bohr mag/cell
     absolute magnetization    =    34.64 Bohr mag/cell

     iteration # 20     ecut=    71.00 Ry     beta= 0.10
     Davidson diagonalization with overlap
     ethr =  8.06E-09,  avg # of iterations =  2.0

     negative rho (up, down):  0.000E+00 2.422E-03

     total cpu time spent up to now is     1623.5 secs

     total energy              =   -5268.18934862 Ry
     Harris-Foulkes estimate   =   -5268.18934463 Ry
     estimated scf accuracy    <       0.00001408 Ry

     total magnetization       =    32.87 Bohr mag/cell
     absolute magnetization    =    34.64 Bohr mag/cell

     iteration # 21     ecut=    71.00 Ry     beta= 0.10
     Davidson diagonalization with overlap
     ethr =  5.50E-09,  avg # of iterations =  2.5

     negative rho (up, down):  0.000E+00 2.419E-03

     total cpu time spent up to now is     1705.3 secs

     total energy              =   -5268.18935206 Ry
     Harris-Foulkes estimate   =   -5268.18935118 Ry
     estimated scf accuracy    <       0.00000769 Ry

     total magnetization       =    32.88 Bohr mag/cell
     absolute magnetization    =    34.64 Bohr mag/cell

     iteration # 22     ecut=    71.00 Ry     beta= 0.10
     Davidson diagonalization with overlap
     ethr =  3.00E-09,  avg # of iterations =  2.2

     negative rho (up, down):  0.000E+00 2.432E-03

     total cpu time spent up to now is     1777.1 secs

     total energy              =   -5268.18935344 Ry
     Harris-Foulkes estimate   =   -5268.18935303 Ry
     estimated scf accuracy    <       0.00000476 Ry

     total magnetization       =    32.89 Bohr mag/cell
     absolute magnetization    =    34.65 Bohr mag/cell

     iteration # 23     ecut=    71.00 Ry     beta= 0.10
     Davidson diagonalization with overlap
     ethr =  1.86E-09,  avg # of iterations =  2.5

     negative rho (up, down):  0.000E+00 2.452E-03

     total cpu time spent up to now is     1854.9 secs

     total energy              =   -5268.18935405 Ry
     Harris-Foulkes estimate   =   -5268.18935394 Ry
     estimated scf accuracy    <       0.00000290 Ry

     total magnetization       =    32.89 Bohr mag/cell
     absolute magnetization    =    34.66 Bohr mag/cell

     iteration # 24     ecut=    71.00 Ry     beta= 0.10
     Davidson diagonalization with overlap
     ethr =  1.13E-09,  avg # of iterations =  2.6

     negative rho (up, down):  0.000E+00 2.463E-03
 
     Magnetic moment per site:
     atom:    1    charge:   14.3666    magn:    2.0995    constr:    0.0000
     atom:    2    charge:   14.3664    magn:    2.1017    constr:    0.0000
     atom:    3    charge:   14.3665    magn:    2.1001    constr:    0.0000
     atom:    4    charge:   14.3664    magn:    2.1017    constr:    0.0000
     atom:    5    charge:   14.3666    magn:    2.1001    constr:    0.0000
     atom:    6    charge:   14.3664    magn:    2.1017    constr:    0.0000
     atom:    7    charge:   14.3665    magn:    2.1003    constr:    0.0000
     atom:    8    charge:   14.3664    magn:    2.1017    constr:    0.0000
     atom:    9    charge:   14.3667    magn:    2.0985    constr:    0.0000
     atom:   10    charge:   14.3664    magn:    2.1017    constr:    0.0000
     atom:   11    charge:   14.3664    magn:    2.0989    constr:    0.0000
     atom:   12    charge:   14.3664    magn:    2.1017    constr:    0.0000
     atom:   13    charge:   14.3664    magn:    2.0989    constr:    0.0000
     atom:   14    charge:   14.3664    magn:    2.1017    constr:    0.0000
     atom:   15    charge:   14.3665    magn:    2.0993    constr:    0.0000
     atom:   16    charge:   14.3664    magn:    2.1017    constr:    0.0000

     total cpu time spent up to now is     1938.7 secs

     End of self-consistent calculation

     Number of k-points >= 100: set verbosity='high' to print the bands.

     the Fermi energy is    18.9744 ev

!    total energy              =   -5268.18935648 Ry
     Harris-Foulkes estimate   =   -5268.18935473 Ry
     estimated scf accuracy    <       0.00000053 Ry

     total all-electron energy =    -40728.933885 Ry

     The total energy is the sum of the following terms:

     one-electron contribution =   -1707.43745529 Ry
     hartree contribution      =    1022.28403400 Ry
     xc contribution           =    -444.26060059 Ry
     ewald contribution        =   -2814.22827283 Ry
     one-center paw contrib.   =   -1324.67111425 Ry
     smearing contrib. (-TS)   =       0.12405247 Ry

     total magnetization       =    32.90 Bohr mag/cell
     absolute magnetization    =    34.66 Bohr mag/cell

     convergence has been achieved in  24 iterations

     negative rho (up, down):  0.000E+00 2.463E-03

     Forces acting on atoms (cartesian axes, Ry/au):

     atom    1 type  1   force =     0.00000000    0.00000000    0.00000000
     atom    2 type  2   force =    -0.00003285    0.00017442    0.00004873
     atom    3 type  1   force =     0.00000000    0.00000000    0.00000000
     atom    4 type  2   force =    -0.00003285    0.00017442   -0.00004873
     atom    5 type  1   force =     0.00000000    0.00000000    0.00000000
     atom    6 type  2   force =    -0.00003285   -0.00017442    0.00004873
     atom    7 type  1   force =     0.00000000    0.00000000    0.00000000
     atom    8 type  2   force =    -0.00003285   -0.00017442   -0.00004873
     atom    9 type  1   force =     0.00000000    0.00000000    0.00000000
     atom   10 type  2   force =     0.00003285    0.00017442    0.00004873
     atom   11 type  1   force =     0.00000000    0.00000000    0.00000000
     atom   12 type  2   force =     0.00003285    0.00017442   -0.00004873
     atom   13 type  1   force =     0.00000000    0.00000000    0.00000000
     atom   14 type  2   force =     0.00003285   -0.00017442    0.00004873
     atom   15 type  1   force =     0.00000000    0.00000000    0.00000000
     atom   16 type  2   force =     0.00003285   -0.00017442   -0.00004873

     Total force =     0.000521     Total SCF correction =     0.004490
     SCF correction compared to forces is large: reduce conv_thr to get better values


     Computing stress (Cartesian axis) and pressure


     negative rho (up, down):  0.000E+00 2.463E-03
          total   stress  (Ry/bohr**3)                   (kbar)     P=   -1.90
  -0.00004226   0.00000000   0.00000000         -6.22      0.00      0.00
   0.00000000   0.00001663   0.00000000          0.00      2.45      0.00
   0.00000000   0.00000000  -0.00001312          0.00      0.00     -1.93


     Writing output data file jhRDIfzHtOkOKWDE.save/
 
     init_run     :     21.20s CPU     22.12s WALL (       1 calls)
     electrons    :   1859.21s CPU   1915.23s WALL (       1 calls)
     forces       :      7.67s CPU      8.34s WALL (       1 calls)
     stress       :     21.49s CPU     21.70s WALL (       1 calls)

     Called by init_run:
     wfcinit      :     20.74s CPU     21.58s WALL (       1 calls)
     potinit      :      0.20s CPU      0.22s WALL (       1 calls)
     hinit0       :      0.15s CPU      0.16s WALL (       1 calls)

     Called by electrons:
     c_bands      :   1676.19s CPU   1722.70s WALL (      25 calls)
     sum_band     :    178.01s CPU    186.89s WALL (      25 calls)
     v_of_rho     :      0.38s CPU      0.39s WALL (      25 calls)
     newd         :      0.80s CPU      1.02s WALL (      25 calls)
     PAW_pot      :      3.77s CPU      4.08s WALL (      25 calls)
     mix_rho      :      0.14s CPU      0.15s WALL (      25 calls)

     Called by c_bands:
     init_us_2    :      9.47s CPU      9.58s WALL (   13250 calls)
     cegterg      :   1630.05s CPU   1676.08s WALL (    6250 calls)

     Called by sum_band:
     sum_band:bec :      2.65s CPU      2.69s WALL (    6250 calls)
     addusdens    :      1.23s CPU      1.42s WALL (      25 calls)

     Called by *egterg:
     h_psi        :    690.73s CPU    719.06s WALL (   20912 calls)
     s_psi        :     38.10s CPU     38.38s WALL (   20912 calls)
     g_psi        :      1.58s CPU      1.60s WALL (   14412 calls)
     cdiaghg      :    737.01s CPU    739.43s WALL (   20412 calls)

     Called by h_psi:
     h_psi:pot    :    687.07s CPU    715.37s WALL (   20912 calls)
     h_psi:calbec :     56.48s CPU     65.43s WALL (   20912 calls)
     vloc_psi     :    591.75s CPU    610.85s WALL (   20912 calls)
     add_vuspsi   :     38.66s CPU     38.95s WALL (   20912 calls)

     General routines
     calbec       :     85.48s CPU     99.37s WALL (   28412 calls)
     fft          :      0.43s CPU      0.46s WALL (     667 calls)
     ffts         :      0.07s CPU      0.27s WALL (     100 calls)
     fftw         :    692.74s CPU    714.96s WALL ( 5195180 calls)
     interpolate  :      0.08s CPU      0.16s WALL (      50 calls)
 
     Parallel routines
     fft_scatt_xy :     45.03s CPU     46.37s WALL ( 5195947 calls)
     fft_scatt_yz :    465.65s CPU    480.91s WALL ( 5195947 calls)
 
     PWSCF        : 32m 4.96s CPU    33m52.06s WALL

 
   This run was terminated on:   4:13:53  10Sep2020            

=------------------------------------------------------------------------------=
   JOB DONE.
=------------------------------------------------------------------------------=
