--------------------------------------------------------------------------
WARNING: There was an error initializing an OpenFabrics device.

  Local host:   bear-pg0211u09a
  Local device: mlx5_0
--------------------------------------------------------------------------

     Program PWSCF v.6.3 starts on 10Oct2020 at 11:55:20 

     This program is part of the open-source Quantum ESPRESSO suite
     for quantum simulation of materials; please cite
         "P. Giannozzi et al., J. Phys.:Condens. Matter 21 395502 (2009);
         "P. Giannozzi et al., J. Phys.:Condens. Matter 29 465901 (2017);
          URL http://www.quantum-espresso.org", 
     in publications or presentations arising from this work. More details at
     http://www.quantum-espresso.org/quote

     Parallel version (MPI & OpenMP), running on      40 processor cores
     Number of MPI processes:                40
     Threads/MPI process:                     1

     MPI processes distributed on     1 nodes
     R & G space division:  proc/nbgrp/npool/nimage =      40
     Reading input from wd/ec/ec_1_005.in
Warning: card &IONS ignored
Warning: card ION_DYNAMICS = 'BFGS', ignored
Warning: card / ignored
Warning: card &CELL ignored
Warning: card CELL_DYNAMICS = 'BFGS', ignored
Warning: card CELL_FACTOR = 2.0, ignored
Warning: card PRESS = 0.0, ignored
Warning: card / ignored

     Current dimensions of program PWSCF are:
     Max number of different atomic species (ntypx) = 10
     Max number of k-points (npk) =  40000
     Max angular momentum in pseudopotentials (lmaxx) =  3
               file Fe.pbe-spn-kjpaw_psl.1.0.0.UPF: wavefunction(s)  3P 3D renormalized
               file Fe.pbe-spn-kjpaw_psl.1.0.0.UPF: wavefunction(s)  3P 3D renormalized
               file Fe.pbe-spn-kjpaw_psl.1.0.0.UPF: wavefunction(s)  3P 3D renormalized
               file Fe.pbe-spn-kjpaw_psl.1.0.0.UPF: wavefunction(s)  3P 3D renormalized

     Subspace diagonalization in iterative solution of the eigenvalue problem:
     a serial algorithm will be used

     Found symmetry operation: I + (  0.0000  0.0000 -0.5000)
     This is a supercell, fractional translations are disabled
 
     Parallelization info
     --------------------
     sticks:   dense  smooth     PW     G-vecs:    dense   smooth      PW
     Min         151     100     27                 8651     4644     667
     Max         152     102     28                 8656     4646     670
     Sum        6075    4013   1115               346107   185809   26775
 


     bravais-lattice index     =            0
     lattice parameter (alat)  =      12.9382  a.u.
     unit-cell volume          =    2298.9844 (a.u.)^3
     number of atoms/cell      =           32
     number of atomic types    =            4
     number of electrons       =       512.00
     number of Kohn-Sham states=          307
     kinetic-energy cutoff     =      71.0000  Ry
     charge density cutoff     =     430.0000  Ry
     convergence threshold     =      1.0E-06
     mixing beta               =       0.1000
     number of iterations used =           10  plain     mixing
     Exchange-correlation      = SLA PW PBX PBC ( 1  4  3  4 0 0)

     celldm(1)=  12.938187  celldm(2)=   0.000000  celldm(3)=   0.000000
     celldm(4)=   0.000000  celldm(5)=   0.000000  celldm(6)=   0.000000

     crystal axes: (cart. coord. in units of alat)
               a(1) = (   1.006667   0.000000   0.000000 )  
               a(2) = (   0.000000   1.054474   0.000000 )  
               a(3) = (   0.000000   0.000000   0.999987 )  

     reciprocal axes: (cart. coord. in units 2 pi/alat)
               b(1) = (  0.993377  0.000000  0.000000 )  
               b(2) = (  0.000000  0.948340  0.000000 )  
               b(3) = (  0.000000  0.000000  1.000013 )  


     PseudoPot. # 1 for Fe read from file:
     /rds/homes/b/bxp912/pp/Fe.pbe-spn-kjpaw_psl.1.0.0.UPF
     MD5 check sum: 42f43b795421b414b0dc916aa790dbcb
     Pseudo is Projector augmented-wave + core cor, Zval = 16.0
     Generated using "atomic" code by A. Dal Corso v.6.3
     Shape of augmentation charge: PSQ
     Using radial grid of 1191 points,  6 beta functions with: 
                l(1) =   0
                l(2) =   0
                l(3) =   1
                l(4) =   1
                l(5) =   2
                l(6) =   2
     Q(r) pseudized with 0 coefficients 


     PseudoPot. # 2 for Fe read from file:
     /rds/homes/b/bxp912/pp/Fe.pbe-spn-kjpaw_psl.1.0.0.UPF
     MD5 check sum: 42f43b795421b414b0dc916aa790dbcb
     Pseudo is Projector augmented-wave + core cor, Zval = 16.0
     Generated using "atomic" code by A. Dal Corso v.6.3
     Shape of augmentation charge: PSQ
     Using radial grid of 1191 points,  6 beta functions with: 
                l(1) =   0
                l(2) =   0
                l(3) =   1
                l(4) =   1
                l(5) =   2
                l(6) =   2
     Q(r) pseudized with 0 coefficients 


     PseudoPot. # 3 for Fe read from file:
     /rds/homes/b/bxp912/pp/Fe.pbe-spn-kjpaw_psl.1.0.0.UPF
     MD5 check sum: 42f43b795421b414b0dc916aa790dbcb
     Pseudo is Projector augmented-wave + core cor, Zval = 16.0
     Generated using "atomic" code by A. Dal Corso v.6.3
     Shape of augmentation charge: PSQ
     Using radial grid of 1191 points,  6 beta functions with: 
                l(1) =   0
                l(2) =   0
                l(3) =   1
                l(4) =   1
                l(5) =   2
                l(6) =   2
     Q(r) pseudized with 0 coefficients 


     PseudoPot. # 4 for Fe read from file:
     /rds/homes/b/bxp912/pp/Fe.pbe-spn-kjpaw_psl.1.0.0.UPF
     MD5 check sum: 42f43b795421b414b0dc916aa790dbcb
     Pseudo is Projector augmented-wave + core cor, Zval = 16.0
     Generated using "atomic" code by A. Dal Corso v.6.3
     Shape of augmentation charge: PSQ
     Using radial grid of 1191 points,  6 beta functions with: 
                l(1) =   0
                l(2) =   0
                l(3) =   1
                l(4) =   1
                l(5) =   2
                l(6) =   2
     Q(r) pseudized with 0 coefficients 


     atomic species   valence    mass     pseudopotential
        Fe1           16.00    55.84500     Fe( 1.00)
        Fe2           16.00    55.84500     Fe( 1.00)
        Fe3           16.00    55.84500     Fe( 1.00)
        Fe4           16.00    55.84500     Fe( 1.00)

     Starting magnetic structure 
     atomic species   magnetization
        Fe1          0.100
        Fe2         -0.100
        Fe3          0.100
        Fe4         -0.100

      8 Sym. Ops., with inversion, found



   Cartesian axes

     site n.     atom                  positions (alat units)
         1           Fe1 tau(   1) = (   0.0000000   0.0000000   0.0000000  )
         2           Fe2 tau(   2) = (   0.2516635   0.2636211   0.0000000  )
         3           Fe3 tau(   3) = (   0.2516648   0.0000000   0.2499947  )
         4           Fe4 tau(   4) = (   0.0000000   0.2636197   0.2500008  )
         5           Fe1 tau(   5) = (   0.0000000   0.0000000   0.4999935  )
         6           Fe2 tau(   6) = (   0.2516663   0.2636239   0.4999935  )
         7           Fe3 tau(   7) = (   0.2516648   0.0000000   0.7499912  )
         8           Fe4 tau(   8) = (   0.0000000   0.2636197   0.7499852  )
         9           Fe1 tau(   9) = (   0.0000000   0.5272369   0.0000000  )
        10           Fe2 tau(  10) = (   0.2516635   0.7908529   0.0000000  )
        11           Fe3 tau(  11) = (   0.2516670   0.5272369   0.2499987  )
        12           Fe4 tau(  12) = (   0.0000000   0.7908543   0.2500008  )
        13           Fe1 tau(  13) = (   0.0000000   0.5272369   0.4999935  )
        14           Fe2 tau(  14) = (   0.2516663   0.7908501   0.4999935  )
        15           Fe3 tau(  15) = (   0.2516670   0.5272369   0.7499882  )
        16           Fe4 tau(  16) = (   0.0000000   0.7908543   0.7499852  )
        17           Fe1 tau(  17) = (   0.5033331   0.0000000   0.0000000  )
        18           Fe2 tau(  18) = (   0.7550027   0.2636211   0.0000000  )
        19           Fe3 tau(  19) = (   0.7550015   0.0000000   0.2499947  )
        20           Fe4 tau(  20) = (   0.5033331   0.2636187   0.2499987  )
        21           Fe1 tau(  21) = (   0.5033331   0.0000000   0.4999935  )
        22           Fe2 tau(  22) = (   0.7549998   0.2636239   0.4999935  )
        23           Fe3 tau(  23) = (   0.7550015   0.0000000   0.7499912  )
        24           Fe4 tau(  24) = (   0.5033331   0.2636187   0.7499872  )
        25           Fe1 tau(  25) = (   0.5033331   0.5272369   0.0000000  )
        26           Fe2 tau(  26) = (   0.7550027   0.7908529   0.0000000  )
        27           Fe3 tau(  27) = (   0.7549992   0.5272369   0.2499987  )
        28           Fe4 tau(  28) = (   0.5033331   0.7908553   0.2499987  )
        29           Fe1 tau(  29) = (   0.5033331   0.5272369   0.4999935  )
        30           Fe2 tau(  30) = (   0.7549998   0.7908501   0.4999935  )
        31           Fe3 tau(  31) = (   0.7549992   0.5272369   0.7499882  )
        32           Fe4 tau(  32) = (   0.5033331   0.7908553   0.7499872  )

     number of k points=   125  Marzari-Vanderbilt smearing, width (Ry)=  0.0400

     Number of k-points >= 100: set verbosity='high' to print them.

     Dense  grid:   346107 G-vectors     FFT dimensions: (  90,  96,  90)

     Smooth grid:   185809 G-vectors     FFT dimensions: (  72,  75,  72)

     Estimated max dynamical RAM per process >     815.91 MB

     Estimated total dynamical RAM >      31.87 GB
     Generating pointlists ...
     new r_m :   0.1463 (alat units)  1.8932 (a.u.) for type    1
     new r_m :   0.1463 (alat units)  1.8932 (a.u.) for type    2
     new r_m :   0.1463 (alat units)  1.8932 (a.u.) for type    3
     new r_m :   0.1463 (alat units)  1.8932 (a.u.) for type    4

     Check: negative/imaginary core charge=   -0.000006    0.000000

     Initial potential from superposition of free atoms

     starting charge  511.98600, renormalised to  512.00000
     Starting wfcs are  320 randomized atomic wfcs
     Checking if some PAW data can be deallocated... 

     total cpu time spent up to now is       86.2 secs

     Self-consistent Calculation

     iteration #  1     ecut=    71.00 Ry     beta= 0.10
     Davidson diagonalization with overlap
     ethr =  1.00E-02,  avg # of iterations =  3.6

     Threshold (ethr) on eigenvalues was too large:
     Diagonalizing with lowered threshold

     Davidson diagonalization with overlap
     ethr =  3.14E-04,  avg # of iterations =  3.9

     total cpu time spent up to now is     1015.6 secs

     total energy              =  -10536.43241580 Ry
     Harris-Foulkes estimate   =  -10536.77023800 Ry
     estimated scf accuracy    <       1.85732123 Ry

     total magnetization       =     0.24 Bohr mag/cell
     absolute magnetization    =    44.44 Bohr mag/cell

     iteration #  2     ecut=    71.00 Ry     beta= 0.10
     Davidson diagonalization with overlap
     ethr =  3.63E-04,  avg # of iterations =  1.0

     total cpu time spent up to now is     1246.7 secs

     total energy              =  -10536.21873187 Ry
     Harris-Foulkes estimate   =  -10536.47782627 Ry
     estimated scf accuracy    <       1.10547673 Ry

     total magnetization       =    -0.12 Bohr mag/cell
     absolute magnetization    =    45.17 Bohr mag/cell

     iteration #  3     ecut=    71.00 Ry     beta= 0.10
     Davidson diagonalization with overlap
     ethr =  2.16E-04,  avg # of iterations =  2.3

     total cpu time spent up to now is     1564.9 secs

     total energy              =  -10536.08282446 Ry
     Harris-Foulkes estimate   =  -10536.35592945 Ry
     estimated scf accuracy    <       2.69417697 Ry

     total magnetization       =     0.24 Bohr mag/cell
     absolute magnetization    =    45.56 Bohr mag/cell

     iteration #  4     ecut=    71.00 Ry     beta= 0.10
     Davidson diagonalization with overlap
     ethr =  2.16E-04,  avg # of iterations =  2.4

     total cpu time spent up to now is     1882.4 secs

     total energy              =  -10536.18427193 Ry
     Harris-Foulkes estimate   =  -10536.21608874 Ry
     estimated scf accuracy    <       0.52784241 Ry

     total magnetization       =     0.36 Bohr mag/cell
     absolute magnetization    =    46.59 Bohr mag/cell

     iteration #  5     ecut=    71.00 Ry     beta= 0.10
     Davidson diagonalization with overlap
     ethr =  1.03E-04,  avg # of iterations =  1.2

     total cpu time spent up to now is     2127.8 secs

     total energy              =  -10536.19560898 Ry
     Harris-Foulkes estimate   =  -10536.20398797 Ry
     estimated scf accuracy    <       0.08396707 Ry

     total magnetization       =     0.03 Bohr mag/cell
     absolute magnetization    =    46.74 Bohr mag/cell

     iteration #  6     ecut=    71.00 Ry     beta= 0.10
     Davidson diagonalization with overlap
     ethr =  1.64E-05,  avg # of iterations =  3.5

     total cpu time spent up to now is     2520.6 secs

     total energy              =  -10536.18610148 Ry
     Harris-Foulkes estimate   =  -10536.19892522 Ry
     estimated scf accuracy    <       0.06924964 Ry

     total magnetization       =    -0.10 Bohr mag/cell
     absolute magnetization    =    46.70 Bohr mag/cell

     iteration #  7     ecut=    71.00 Ry     beta= 0.10
     Davidson diagonalization with overlap
     ethr =  1.35E-05,  avg # of iterations =  3.8

     total cpu time spent up to now is     3078.2 secs

     total energy              =  -10536.20315930 Ry
     Harris-Foulkes estimate   =  -10536.20681065 Ry
     estimated scf accuracy    <       0.09427115 Ry

     total magnetization       =     0.05 Bohr mag/cell
     absolute magnetization    =    46.87 Bohr mag/cell

     iteration #  8     ecut=    71.00 Ry     beta= 0.10
     Davidson diagonalization with overlap
     ethr =  1.35E-05,  avg # of iterations =  2.0

     total cpu time spent up to now is     3382.2 secs

     total energy              =  -10536.20455415 Ry
     Harris-Foulkes estimate   =  -10536.20724112 Ry
     estimated scf accuracy    <       0.07019282 Ry

     total magnetization       =     0.05 Bohr mag/cell
     absolute magnetization    =    47.15 Bohr mag/cell

     iteration #  9     ecut=    71.00 Ry     beta= 0.10
     Davidson diagonalization with overlap
     ethr =  1.35E-05,  avg # of iterations =  1.0

     total cpu time spent up to now is     3611.0 secs

     total energy              =  -10536.21360279 Ry
     Harris-Foulkes estimate   =  -10536.20586728 Ry
     estimated scf accuracy    <       0.03855687 Ry

     total magnetization       =     0.02 Bohr mag/cell
     absolute magnetization    =    47.28 Bohr mag/cell

     iteration # 10     ecut=    71.00 Ry     beta= 0.10
     Davidson diagonalization with overlap
     ethr =  7.53E-06,  avg # of iterations =  2.3

     total cpu time spent up to now is     3926.6 secs

     total energy              =  -10536.23712267 Ry
     Harris-Foulkes estimate   =  -10536.21547811 Ry
     estimated scf accuracy    <       0.03247416 Ry

     total magnetization       =    -0.07 Bohr mag/cell
     absolute magnetization    =    47.54 Bohr mag/cell

     iteration # 11     ecut=    71.00 Ry     beta= 0.10
     Davidson diagonalization with overlap
     ethr =  6.34E-06,  avg # of iterations =  3.8

     total cpu time spent up to now is     4480.3 secs

     total energy              =  -10536.25162697 Ry
     Harris-Foulkes estimate   =  -10536.24947702 Ry
     estimated scf accuracy    <       0.02665722 Ry

     total magnetization       =    -0.13 Bohr mag/cell
     absolute magnetization    =    48.42 Bohr mag/cell

     iteration # 12     ecut=    71.00 Ry     beta= 0.10
     Davidson diagonalization with overlap
     ethr =  5.21E-06,  avg # of iterations =  1.2

     total cpu time spent up to now is     4724.8 secs

     total energy              =  -10536.25261537 Ry
     Harris-Foulkes estimate   =  -10536.25287877 Ry
     estimated scf accuracy    <       0.00939938 Ry

     total magnetization       =    -0.04 Bohr mag/cell
     absolute magnetization    =    48.68 Bohr mag/cell

     iteration # 13     ecut=    71.00 Ry     beta= 0.10
     Davidson diagonalization with overlap
     ethr =  1.84E-06,  avg # of iterations =  2.7

     total cpu time spent up to now is     5093.5 secs

     total energy              =  -10536.25338331 Ry
     Harris-Foulkes estimate   =  -10536.25338439 Ry
     estimated scf accuracy    <       0.00201034 Ry

     total magnetization       =    -0.01 Bohr mag/cell
     absolute magnetization    =    48.85 Bohr mag/cell

     iteration # 14     ecut=    71.00 Ry     beta= 0.10
     Davidson diagonalization with overlap
     ethr =  3.93E-07,  avg # of iterations =  1.3

     total cpu time spent up to now is     5340.5 secs

     total energy              =  -10536.25351209 Ry
     Harris-Foulkes estimate   =  -10536.25343463 Ry
     estimated scf accuracy    <       0.00129427 Ry

     total magnetization       =    -0.02 Bohr mag/cell
     absolute magnetization    =    48.88 Bohr mag/cell

     iteration # 15     ecut=    71.00 Ry     beta= 0.10
     Davidson diagonalization with overlap
     ethr =  2.53E-07,  avg # of iterations =  1.0

     total cpu time spent up to now is     5572.1 secs

     total energy              =  -10536.25370813 Ry
     Harris-Foulkes estimate   =  -10536.25354598 Ry
     estimated scf accuracy    <       0.00093613 Ry

     total magnetization       =    -0.01 Bohr mag/cell
     absolute magnetization    =    48.95 Bohr mag/cell

     iteration # 16     ecut=    71.00 Ry     beta= 0.10
     Davidson diagonalization with overlap
     ethr =  1.83E-07,  avg # of iterations =  1.5

     total cpu time spent up to now is     5831.1 secs

     total energy              =  -10536.25380865 Ry
     Harris-Foulkes estimate   =  -10536.25376427 Ry
     estimated scf accuracy    <       0.00079815 Ry

     total magnetization       =     0.00 Bohr mag/cell
     absolute magnetization    =    49.06 Bohr mag/cell

     iteration # 17     ecut=    71.00 Ry     beta= 0.10
     Davidson diagonalization with overlap
     ethr =  1.56E-07,  avg # of iterations =  1.4

     total cpu time spent up to now is     6089.8 secs

     total energy              =  -10536.25392972 Ry
     Harris-Foulkes estimate   =  -10536.25385158 Ry
     estimated scf accuracy    <       0.00058019 Ry

     total magnetization       =    -0.03 Bohr mag/cell
     absolute magnetization    =    49.13 Bohr mag/cell

     iteration # 18     ecut=    71.00 Ry     beta= 0.10
     Davidson diagonalization with overlap
     ethr =  1.13E-07,  avg # of iterations =  1.5

     total cpu time spent up to now is     6352.5 secs

     total energy              =  -10536.25408174 Ry
     Harris-Foulkes estimate   =  -10536.25395567 Ry
     estimated scf accuracy    <       0.00044953 Ry

     total magnetization       =    -0.01 Bohr mag/cell
     absolute magnetization    =    49.19 Bohr mag/cell

     iteration # 19     ecut=    71.00 Ry     beta= 0.10
     Davidson diagonalization with overlap
     ethr =  8.78E-08,  avg # of iterations =  2.4

     total cpu time spent up to now is     6676.2 secs

     total energy              =  -10536.25419156 Ry
     Harris-Foulkes estimate   =  -10536.25410854 Ry
     estimated scf accuracy    <       0.00034905 Ry

     total magnetization       =    -0.00 Bohr mag/cell
     absolute magnetization    =    49.28 Bohr mag/cell

     iteration # 20     ecut=    71.00 Ry     beta= 0.10
     Davidson diagonalization with overlap
     ethr =  6.82E-08,  avg # of iterations =  1.9

     total cpu time spent up to now is     6967.0 secs

     total energy              =  -10536.25433741 Ry
     Harris-Foulkes estimate   =  -10536.25420964 Ry
     estimated scf accuracy    <       0.00040656 Ry

     total magnetization       =    -0.01 Bohr mag/cell
     absolute magnetization    =    49.35 Bohr mag/cell

     iteration # 21     ecut=    71.00 Ry     beta= 0.10
     Davidson diagonalization with overlap
     ethr =  6.82E-08,  avg # of iterations =  3.1

     total cpu time spent up to now is     7368.7 secs

     total energy              =  -10536.25443096 Ry
     Harris-Foulkes estimate   =  -10536.25442065 Ry
     estimated scf accuracy    <       0.00016035 Ry

     total magnetization       =    -0.01 Bohr mag/cell
     absolute magnetization    =    49.58 Bohr mag/cell

     iteration # 22     ecut=    71.00 Ry     beta= 0.10
     Davidson diagonalization with overlap
     ethr =  3.13E-08,  avg # of iterations =  1.0

     total cpu time spent up to now is     7596.6 secs

     total energy              =  -10536.25445605 Ry
     Harris-Foulkes estimate   =  -10536.25443844 Ry
     estimated scf accuracy    <       0.00014050 Ry

     total magnetization       =    -0.01 Bohr mag/cell
     absolute magnetization    =    49.61 Bohr mag/cell

     iteration # 23     ecut=    71.00 Ry     beta= 0.10
     Davidson diagonalization with overlap
     ethr =  2.74E-08,  avg # of iterations =  1.0

     total cpu time spent up to now is     7827.9 secs

     total energy              =  -10536.25447421 Ry
     Harris-Foulkes estimate   =  -10536.25446287 Ry
     estimated scf accuracy    <       0.00008662 Ry

     total magnetization       =    -0.00 Bohr mag/cell
     absolute magnetization    =    49.66 Bohr mag/cell

     iteration # 24     ecut=    71.00 Ry     beta= 0.10
     Davidson diagonalization with overlap
     ethr =  1.69E-08,  avg # of iterations =  1.7

     total cpu time spent up to now is     8097.8 secs

     total energy              =  -10536.25448746 Ry
     Harris-Foulkes estimate   =  -10536.25447904 Ry
     estimated scf accuracy    <       0.00009290 Ry

     total magnetization       =    -0.01 Bohr mag/cell
     absolute magnetization    =    49.71 Bohr mag/cell

     iteration # 25     ecut=    71.00 Ry     beta= 0.10
     Davidson diagonalization with overlap
     ethr =  1.69E-08,  avg # of iterations =  2.6

     total cpu time spent up to now is     8439.2 secs

     total energy              =  -10536.25449860 Ry
     Harris-Foulkes estimate   =  -10536.25449826 Ry
     estimated scf accuracy    <       0.00008647 Ry

     total magnetization       =    -0.00 Bohr mag/cell
     absolute magnetization    =    49.79 Bohr mag/cell

     iteration # 26     ecut=    71.00 Ry     beta= 0.10
     Davidson diagonalization with overlap
     ethr =  1.69E-08,  avg # of iterations =  1.2

     total cpu time spent up to now is     8679.5 secs

     total energy              =  -10536.25450424 Ry
     Harris-Foulkes estimate   =  -10536.25450367 Ry
     estimated scf accuracy    <       0.00006752 Ry

     total magnetization       =    -0.00 Bohr mag/cell
     absolute magnetization    =    49.82 Bohr mag/cell

     iteration # 27     ecut=    71.00 Ry     beta= 0.10
     Davidson diagonalization with overlap
     ethr =  1.32E-08,  avg # of iterations =  3.0

     total cpu time spent up to now is     9051.9 secs

     total energy              =  -10536.25451864 Ry
     Harris-Foulkes estimate   =  -10536.25451495 Ry
     estimated scf accuracy    <       0.00002734 Ry

     total magnetization       =    -0.00 Bohr mag/cell
     absolute magnetization    =    49.91 Bohr mag/cell

     iteration # 28     ecut=    71.00 Ry     beta= 0.10
     Davidson diagonalization with overlap
     ethr =  5.34E-09,  avg # of iterations =  1.4

     total cpu time spent up to now is     9310.2 secs

     total energy              =  -10536.25452408 Ry
     Harris-Foulkes estimate   =  -10536.25452009 Ry
     estimated scf accuracy    <       0.00001856 Ry

     total magnetization       =    -0.00 Bohr mag/cell
     absolute magnetization    =    49.93 Bohr mag/cell

     iteration # 29     ecut=    71.00 Ry     beta= 0.10
     Davidson diagonalization with overlap
     ethr =  3.63E-09,  avg # of iterations =  1.6

     total cpu time spent up to now is     9585.4 secs

     total energy              =  -10536.25452794 Ry
     Harris-Foulkes estimate   =  -10536.25452473 Ry
     estimated scf accuracy    <       0.00001216 Ry

     total magnetization       =    -0.00 Bohr mag/cell
     absolute magnetization    =    49.94 Bohr mag/cell

     iteration # 30     ecut=    71.00 Ry     beta= 0.10
     Davidson diagonalization with overlap
     ethr =  2.38E-09,  avg # of iterations =  1.8

     total cpu time spent up to now is     9868.2 secs

     total energy              =  -10536.25453143 Ry
     Harris-Foulkes estimate   =  -10536.25452857 Ry
     estimated scf accuracy    <       0.00001280 Ry

     total magnetization       =    -0.00 Bohr mag/cell
     absolute magnetization    =    49.96 Bohr mag/cell

     iteration # 31     ecut=    71.00 Ry     beta= 0.10
     Davidson diagonalization with overlap
     ethr =  2.38E-09,  avg # of iterations =  2.9

     total cpu time spent up to now is    10243.4 secs

     total energy              =  -10536.25453397 Ry
     Harris-Foulkes estimate   =  -10536.25453321 Ry
     estimated scf accuracy    <       0.00001113 Ry

     total magnetization       =    -0.00 Bohr mag/cell
     absolute magnetization    =    49.99 Bohr mag/cell

     iteration # 32     ecut=    71.00 Ry     beta= 0.10
     Davidson diagonalization with overlap
     ethr =  2.17E-09,  avg # of iterations =  1.6

     total cpu time spent up to now is    10510.8 secs

     total energy              =  -10536.25453607 Ry
     Harris-Foulkes estimate   =  -10536.25453480 Ry
     estimated scf accuracy    <       0.00000401 Ry

     total magnetization       =    -0.00 Bohr mag/cell
     absolute magnetization    =    50.01 Bohr mag/cell

     iteration # 33     ecut=    71.00 Ry     beta= 0.10
     Davidson diagonalization with overlap
     ethr =  7.84E-10,  avg # of iterations =  2.9

     total cpu time spent up to now is    10871.3 secs

     total energy              =  -10536.25453740 Ry
     Harris-Foulkes estimate   =  -10536.25453634 Ry
     estimated scf accuracy    <       0.00000291 Ry

     total magnetization       =    -0.00 Bohr mag/cell
     absolute magnetization    =    50.02 Bohr mag/cell

     iteration # 34     ecut=    71.00 Ry     beta= 0.10
     Davidson diagonalization with overlap
     ethr =  5.68E-10,  avg # of iterations =  1.6

     total cpu time spent up to now is    11140.9 secs

     total energy              =  -10536.25453801 Ry
     Harris-Foulkes estimate   =  -10536.25453754 Ry
     estimated scf accuracy    <       0.00000284 Ry

     total magnetization       =    -0.00 Bohr mag/cell
     absolute magnetization    =    50.03 Bohr mag/cell

     iteration # 35     ecut=    71.00 Ry     beta= 0.10
     Davidson diagonalization with overlap
     ethr =  5.55E-10,  avg # of iterations =  1.6

     total cpu time spent up to now is    11414.2 secs

     total energy              =  -10536.25453891 Ry
     Harris-Foulkes estimate   =  -10536.25453820 Ry
     estimated scf accuracy    <       0.00000277 Ry

     total magnetization       =    -0.00 Bohr mag/cell
     absolute magnetization    =    50.03 Bohr mag/cell

     iteration # 36     ecut=    71.00 Ry     beta= 0.10
     Davidson diagonalization with overlap
     ethr =  5.41E-10,  avg # of iterations =  1.2

     total cpu time spent up to now is    11658.0 secs

     total energy              =  -10536.25453951 Ry
     Harris-Foulkes estimate   =  -10536.25453906 Ry
     estimated scf accuracy    <       0.00000106 Ry

     total magnetization       =    -0.00 Bohr mag/cell
     absolute magnetization    =    50.04 Bohr mag/cell

     iteration # 37     ecut=    71.00 Ry     beta= 0.10
     Davidson diagonalization with overlap
     ethr =  2.07E-10,  avg # of iterations =  3.1

     total cpu time spent up to now is    12039.9 secs

     total energy              =  -10536.25453968 Ry
     Harris-Foulkes estimate   =  -10536.25453965 Ry
     estimated scf accuracy    <       0.00000139 Ry

     total magnetization       =    -0.00 Bohr mag/cell
     absolute magnetization    =    50.04 Bohr mag/cell

     iteration # 38     ecut=    71.00 Ry     beta= 0.10
     Davidson diagonalization with overlap
     ethr =  2.07E-10,  avg # of iterations =  1.0
 
     Magnetic moment per site:
     atom:    1    charge:   14.4034    magn:    1.5062    constr:    0.0000
     atom:    2    charge:   14.4036    magn:   -1.5063    constr:    0.0000
     atom:    3    charge:   14.4030    magn:    1.5090    constr:    0.0000
     atom:    4    charge:   14.4036    magn:   -1.5103    constr:    0.0000
     atom:    5    charge:   14.4036    magn:    1.5068    constr:    0.0000
     atom:    6    charge:   14.4039    magn:   -1.5056    constr:    0.0000
     atom:    7    charge:   14.4030    magn:    1.5090    constr:    0.0000
     atom:    8    charge:   14.4036    magn:   -1.5103    constr:    0.0000
     atom:    9    charge:   14.4034    magn:    1.5069    constr:    0.0000
     atom:   10    charge:   14.4036    magn:   -1.5063    constr:    0.0000
     atom:   11    charge:   14.4032    magn:    1.5085    constr:    0.0000
     atom:   12    charge:   14.4036    magn:   -1.5103    constr:    0.0000
     atom:   13    charge:   14.4037    magn:    1.5073    constr:    0.0000
     atom:   14    charge:   14.4039    magn:   -1.5056    constr:    0.0000
     atom:   15    charge:   14.4032    magn:    1.5085    constr:    0.0000
     atom:   16    charge:   14.4036    magn:   -1.5103    constr:    0.0000
     atom:   17    charge:   14.4033    magn:    1.5075    constr:    0.0000
     atom:   18    charge:   14.4036    magn:   -1.5063    constr:    0.0000
     atom:   19    charge:   14.4030    magn:    1.5090    constr:    0.0000
     atom:   20    charge:   14.4036    magn:   -1.5096    constr:    0.0000
     atom:   21    charge:   14.4035    magn:    1.5078    constr:    0.0000
     atom:   22    charge:   14.4039    magn:   -1.5056    constr:    0.0000
     atom:   23    charge:   14.4030    magn:    1.5090    constr:    0.0000
     atom:   24    charge:   14.4036    magn:   -1.5096    constr:    0.0000
     atom:   25    charge:   14.4034    magn:    1.5067    constr:    0.0000
     atom:   26    charge:   14.4036    magn:   -1.5063    constr:    0.0000
     atom:   27    charge:   14.4032    magn:    1.5085    constr:    0.0000
     atom:   28    charge:   14.4036    magn:   -1.5096    constr:    0.0000
     atom:   29    charge:   14.4037    magn:    1.5066    constr:    0.0000
     atom:   30    charge:   14.4039    magn:   -1.5056    constr:    0.0000
     atom:   31    charge:   14.4032    magn:    1.5085    constr:    0.0000
     atom:   32    charge:   14.4036    magn:   -1.5096    constr:    0.0000

     total cpu time spent up to now is    12273.0 secs

     End of self-consistent calculation

     Number of k-points >= 100: set verbosity='high' to print the bands.

     the Fermi energy is    19.9657 ev

!    total energy              =  -10536.25453970 Ry
     Harris-Foulkes estimate   =  -10536.25453974 Ry
     estimated scf accuracy    <       0.00000077 Ry

     total all-electron energy =    -81457.743598 Ry

     The total energy is the sum of the following terms:

     one-electron contribution =   -3312.12308846 Ry
     hartree contribution      =    2003.53649225 Ry
     xc contribution           =    -886.80794700 Ry
     ewald contribution        =   -5691.31128156 Ry
     one-center paw contrib.   =   -2649.55922104 Ry
     smearing contrib. (-TS)   =       0.01050611 Ry

     total magnetization       =    -0.00 Bohr mag/cell
     absolute magnetization    =    50.04 Bohr mag/cell

     convergence has been achieved in  38 iterations

     Forces acting on atoms (cartesian axes, Ry/au):

     atom    1 type  1   force =     0.00000000    0.00000000    0.00000000
     atom    2 type  2   force =     0.00004840    0.00004925    0.00000000
     atom    3 type  3   force =     0.00010086    0.00000000   -0.00003826
     atom    4 type  4   force =     0.00000000   -0.00003954   -0.00009386
     atom    5 type  1   force =     0.00000000    0.00000000    0.00000000
     atom    6 type  2   force =     0.00005658   -0.00001795    0.00000000
     atom    7 type  3   force =     0.00010086    0.00000000    0.00003826
     atom    8 type  4   force =     0.00000000   -0.00003954    0.00009386
     atom    9 type  1   force =     0.00000000    0.00000000    0.00000000
     atom   10 type  2   force =     0.00004840   -0.00004925    0.00000000
     atom   11 type  3   force =     0.00003572    0.00000000   -0.00006634
     atom   12 type  4   force =     0.00000000    0.00003954   -0.00009386
     atom   13 type  1   force =     0.00000000    0.00000000    0.00000000
     atom   14 type  2   force =     0.00005658    0.00001795    0.00000000
     atom   15 type  3   force =     0.00003572    0.00000000    0.00006634
     atom   16 type  4   force =     0.00000000    0.00003954    0.00009386
     atom   17 type  1   force =     0.00000000    0.00000000    0.00000000
     atom   18 type  2   force =    -0.00004840    0.00004925    0.00000000
     atom   19 type  3   force =    -0.00010086    0.00000000   -0.00003826
     atom   20 type  4   force =     0.00000000    0.00003583   -0.00008322
     atom   21 type  1   force =     0.00000000    0.00000000    0.00000000
     atom   22 type  2   force =    -0.00005658   -0.00001795    0.00000000
     atom   23 type  3   force =    -0.00010086    0.00000000    0.00003826
     atom   24 type  4   force =     0.00000000    0.00003583    0.00008322
     atom   25 type  1   force =     0.00000000    0.00000000    0.00000000
     atom   26 type  2   force =    -0.00004840   -0.00004925    0.00000000
     atom   27 type  3   force =    -0.00003572    0.00000000   -0.00006634
     atom   28 type  4   force =     0.00000000   -0.00003583   -0.00008322
     atom   29 type  1   force =     0.00000000    0.00000000    0.00000000
     atom   30 type  2   force =    -0.00005658    0.00001795    0.00000000
     atom   31 type  3   force =    -0.00003572    0.00000000    0.00006634
     atom   32 type  4   force =     0.00000000   -0.00003583    0.00008322

     Total force =     0.000420     Total SCF correction =     0.005522
     SCF correction compared to forces is large: reduce conv_thr to get better values


     Computing stress (Cartesian axis) and pressure

          total   stress  (Ry/bohr**3)                   (kbar)     P=  -14.88
  -0.00015658   0.00000000   0.00000000        -23.03      0.00      0.00
   0.00000000  -0.00004673   0.00000000          0.00     -6.87      0.00
   0.00000000   0.00000000  -0.00010024          0.00      0.00    -14.75


     Writing output data file GYrwJtDvrxNjHndi.save/
-------------------------------------------------------
Primary job  terminated normally, but 1 process returned
a non-zero exit code.. Per user-direction, the job has been aborted.
-------------------------------------------------------
--------------------------------------------------------------------------
mpirun detected that one or more processes exited with non-zero status, thus causing
the job to be terminated. The first process to do so was:

  Process name: [[37623,1],0]
  Exit code:    38
--------------------------------------------------------------------------
