--------------------------------------------------------------------------
WARNING: No preset parameters were found for the device that Open MPI
detected:

  Local host:            bear-pg0206u36b
  Device name:           mlx5_0
  Device vendor ID:      0x02c9
  Device vendor part ID: 4123

Default device parameters will be used, which may result in lower
performance.  You can edit any of the files specified by the
btl_openib_device_param_files MCA parameter to set values for your
device.

NOTE: You can turn off this warning by setting the MCA parameter
      btl_openib_warn_no_device_params_found to 0.
--------------------------------------------------------------------------
--------------------------------------------------------------------------
WARNING: There was an error initializing an OpenFabrics device.

  Local host:   bear-pg0206u36b
  Local device: mlx5_0
--------------------------------------------------------------------------

     Program PWSCF v.6.3 starts on 13Jun2020 at 23: 5:17 

     This program is part of the open-source Quantum ESPRESSO suite
     for quantum simulation of materials; please cite
         "P. Giannozzi et al., J. Phys.:Condens. Matter 21 395502 (2009);
         "P. Giannozzi et al., J. Phys.:Condens. Matter 29 465901 (2017);
          URL http://www.quantum-espresso.org", 
     in publications or presentations arising from this work. More details at
     http://www.quantum-espresso.org/quote

     Parallel version (MPI & OpenMP), running on      20 processor cores
     Number of MPI processes:                20
     Threads/MPI process:                     1

     MPI processes distributed on     1 nodes
     R & G space division:  proc/nbgrp/npool/nimage =      20
     Reading input from wd/eos/eos_009.in
Warning: card &IONS ignored
Warning: card ION_DYNAMICS = 'BFGS', ignored
Warning: card / ignored
Warning: card &CELL ignored
Warning: card CELL_DYNAMICS = 'BFGS', ignored
Warning: card CELL_FACTOR = 2.0, ignored
Warning: card PRESS = 0.0, ignored
Warning: card / ignored

     Current dimensions of program PWSCF are:
     Max number of different atomic species (ntypx) = 10
     Max number of k-points (npk) =  40000
     Max angular momentum in pseudopotentials (lmaxx) =  3
               file Fe.pbe-spn-kjpaw_psl.1.0.0.UPF: wavefunction(s)  3P 3D renormalized
               file Fe.pbe-spn-kjpaw_psl.1.0.0.UPF: wavefunction(s)  3P 3D renormalized

     Subspace diagonalization in iterative solution of the eigenvalue problem:
     a serial algorithm will be used

     Found symmetry operation: I + (  0.0000  0.0000 -0.5000)
     This is a supercell, fractional translations are disabled
 
     Parallelization info
     --------------------
     sticks:   dense  smooth     PW     G-vecs:    dense   smooth      PW
     Min         193     127     35                 9035     4855     719
     Max         195     129     36                 9036     4858     722
     Sum        3869    2561    717               180707    97137   14411
 


     bravais-lattice index     =            0
     lattice parameter (alat)  =      10.5935  a.u.
     unit-cell volume          =    1199.0521 (a.u.)^3
     number of atoms/cell      =           16
     number of atomic types    =            2
     number of electrons       =       256.00
     number of Kohn-Sham states=          154
     kinetic-energy cutoff     =      71.0000  Ry
     charge density cutoff     =     430.0000  Ry
     convergence threshold     =      1.0E-06
     mixing beta               =       0.1000
     number of iterations used =           10  plain     mixing
     Exchange-correlation      = SLA PW PBX PBC ( 1  4  3  4 0 0)

     celldm(1)=  10.593520  celldm(2)=   0.000000  celldm(3)=   0.000000
     celldm(4)=   0.000000  celldm(5)=   0.000000  celldm(6)=   0.000000

     crystal axes: (cart. coord. in units of alat)
               a(1) = (   1.002857   0.000000   0.000000 )  
               a(2) = (   0.000000   1.002857   0.000000 )  
               a(3) = (   0.000000   0.000000   1.002857 )  

     reciprocal axes: (cart. coord. in units 2 pi/alat)
               b(1) = (  0.997151  0.000000  0.000000 )  
               b(2) = (  0.000000  0.997151  0.000000 )  
               b(3) = (  0.000000  0.000000  0.997151 )  


     PseudoPot. # 1 for Fe read from file:
     /rds/homes/b/bxp912/pp/Fe.pbe-spn-kjpaw_psl.1.0.0.UPF
     MD5 check sum: 42f43b795421b414b0dc916aa790dbcb
     Pseudo is Projector augmented-wave + core cor, Zval = 16.0
     Generated using "atomic" code by A. Dal Corso v.6.3
     Shape of augmentation charge: PSQ
     Using radial grid of 1191 points,  6 beta functions with: 
                l(1) =   0
                l(2) =   0
                l(3) =   1
                l(4) =   1
                l(5) =   2
                l(6) =   2
     Q(r) pseudized with 0 coefficients 


     PseudoPot. # 2 for Fe read from file:
     /rds/homes/b/bxp912/pp/Fe.pbe-spn-kjpaw_psl.1.0.0.UPF
     MD5 check sum: 42f43b795421b414b0dc916aa790dbcb
     Pseudo is Projector augmented-wave + core cor, Zval = 16.0
     Generated using "atomic" code by A. Dal Corso v.6.3
     Shape of augmentation charge: PSQ
     Using radial grid of 1191 points,  6 beta functions with: 
                l(1) =   0
                l(2) =   0
                l(3) =   1
                l(4) =   1
                l(5) =   2
                l(6) =   2
     Q(r) pseudized with 0 coefficients 


     atomic species   valence    mass     pseudopotential
        Fe1           16.00    55.84500     Fe( 1.00)
        Fe2           16.00    55.84500     Fe( 1.00)

     Starting magnetic structure 
     atomic species   magnetization
        Fe1          0.100
        Fe2          0.100

     48 Sym. Ops., with inversion, found



   Cartesian axes

     site n.     atom                  positions (alat units)
         1           Fe1 tau(   1) = (   0.0000000   0.0000000   0.0000000  )
         2           Fe2 tau(   2) = (   0.2507147   0.2507147   0.2507147  )
         3           Fe1 tau(   3) = (   0.0000000   0.0000000   0.5014286  )
         4           Fe2 tau(   4) = (   0.2507147   0.2507147   0.7521424  )
         5           Fe1 tau(   5) = (   0.0000000   0.5014286   0.0000000  )
         6           Fe2 tau(   6) = (   0.2507147   0.7521424   0.2507147  )
         7           Fe1 tau(   7) = (   0.0000000   0.5014286   0.5014286  )
         8           Fe2 tau(   8) = (   0.2507147   0.7521424   0.7521424  )
         9           Fe1 tau(   9) = (   0.5014286   0.0000000   0.0000000  )
        10           Fe2 tau(  10) = (   0.7521424   0.2507147   0.2507147  )
        11           Fe1 tau(  11) = (   0.5014286   0.0000000   0.5014286  )
        12           Fe2 tau(  12) = (   0.7521424   0.2507147   0.7521424  )
        13           Fe1 tau(  13) = (   0.5014286   0.5014286   0.0000000  )
        14           Fe2 tau(  14) = (   0.7521424   0.7521424   0.2507147  )
        15           Fe1 tau(  15) = (   0.5014286   0.5014286   0.5014286  )
        16           Fe2 tau(  16) = (   0.7521424   0.7521424   0.7521424  )

     number of k points=    35  Marzari-Vanderbilt smearing, width (Ry)=  0.0400
                       cart. coord. in units 2pi/alat
        k(    1) = (   0.0553973   0.0553973   0.0553973), wk =   0.0109739
        k(    2) = (   0.0553973   0.0553973   0.1661918), wk =   0.0329218
        k(    3) = (   0.0553973   0.0553973   0.2769864), wk =   0.0329218
        k(    4) = (   0.0553973   0.0553973   0.3877809), wk =   0.0329218
        k(    5) = (   0.0553973   0.0553973  -0.4985755), wk =   0.0164609
        k(    6) = (   0.0553973   0.1661918   0.1661918), wk =   0.0329218
        k(    7) = (   0.0553973   0.1661918   0.2769864), wk =   0.0658436
        k(    8) = (   0.0553973   0.1661918   0.3877809), wk =   0.0658436
        k(    9) = (   0.0553973   0.1661918  -0.4985755), wk =   0.0329218
        k(   10) = (   0.0553973   0.2769864   0.2769864), wk =   0.0329218
        k(   11) = (   0.0553973   0.2769864   0.3877809), wk =   0.0658436
        k(   12) = (   0.0553973   0.2769864  -0.4985755), wk =   0.0329218
        k(   13) = (   0.0553973   0.3877809   0.3877809), wk =   0.0329218
        k(   14) = (   0.0553973   0.3877809  -0.4985755), wk =   0.0329218
        k(   15) = (   0.0553973  -0.4985755  -0.4985755), wk =   0.0082305
        k(   16) = (   0.1661918   0.1661918   0.1661918), wk =   0.0109739
        k(   17) = (   0.1661918   0.1661918   0.2769864), wk =   0.0329218
        k(   18) = (   0.1661918   0.1661918   0.3877809), wk =   0.0329218
        k(   19) = (   0.1661918   0.1661918  -0.4985755), wk =   0.0164609
        k(   20) = (   0.1661918   0.2769864   0.2769864), wk =   0.0329218
        k(   21) = (   0.1661918   0.2769864   0.3877809), wk =   0.0658436
        k(   22) = (   0.1661918   0.2769864  -0.4985755), wk =   0.0329218
        k(   23) = (   0.1661918   0.3877809   0.3877809), wk =   0.0329218
        k(   24) = (   0.1661918   0.3877809  -0.4985755), wk =   0.0329218
        k(   25) = (   0.1661918  -0.4985755  -0.4985755), wk =   0.0082305
        k(   26) = (   0.2769864   0.2769864   0.2769864), wk =   0.0109739
        k(   27) = (   0.2769864   0.2769864   0.3877809), wk =   0.0329218
        k(   28) = (   0.2769864   0.2769864  -0.4985755), wk =   0.0164609
        k(   29) = (   0.2769864   0.3877809   0.3877809), wk =   0.0329218
        k(   30) = (   0.2769864   0.3877809  -0.4985755), wk =   0.0329218
        k(   31) = (   0.2769864  -0.4985755  -0.4985755), wk =   0.0082305
        k(   32) = (   0.3877809   0.3877809   0.3877809), wk =   0.0109739
        k(   33) = (   0.3877809   0.3877809  -0.4985755), wk =   0.0164609
        k(   34) = (   0.3877809  -0.4985755  -0.4985755), wk =   0.0082305
        k(   35) = (  -0.4985755  -0.4985755  -0.4985755), wk =   0.0013717

     Dense  grid:   180707 G-vectors     FFT dimensions: (  72,  72,  72)

     Smooth grid:    97137 G-vectors     FFT dimensions: (  60,  60,  60)

     Estimated max dynamical RAM per process >     154.39 MB

     Estimated total dynamical RAM >       3.02 GB
     Generating pointlists ...
     new r_m :   0.1791 (alat units)  1.8976 (a.u.) for type    1
     new r_m :   0.1791 (alat units)  1.8976 (a.u.) for type    2

     Check: negative/imaginary core charge=   -0.000006    0.000000

     Initial potential from superposition of free atoms

     starting charge  255.99300, renormalised to  256.00000
     Starting wfcs are  160 randomized atomic wfcs
     Checking if some PAW data can be deallocated... 

     total cpu time spent up to now is        9.0 secs

     Self-consistent Calculation

     iteration #  1     ecut=    71.00 Ry     beta= 0.10
     Davidson diagonalization with overlap
     ethr =  1.00E-02,  avg # of iterations =  3.3

     Threshold (ethr) on eigenvalues was too large:
     Diagonalizing with lowered threshold

     Davidson diagonalization with overlap
     ethr =  1.97E-04,  avg # of iterations =  3.5

     total cpu time spent up to now is       68.1 secs

     total energy              =   -5267.97496197 Ry
     Harris-Foulkes estimate   =   -5268.02177251 Ry
     estimated scf accuracy    <       0.58660107 Ry

     total magnetization       =    28.17 Bohr mag/cell
     absolute magnetization    =    28.27 Bohr mag/cell

     iteration #  2     ecut=    71.00 Ry     beta= 0.10
     Davidson diagonalization with overlap
     ethr =  2.29E-04,  avg # of iterations =  1.0

     total cpu time spent up to now is       86.1 secs

     total energy              =   -5267.96405765 Ry
     Harris-Foulkes estimate   =   -5267.98625496 Ry
     estimated scf accuracy    <       0.34129550 Ry

     total magnetization       =    28.81 Bohr mag/cell
     absolute magnetization    =    28.95 Bohr mag/cell

     iteration #  3     ecut=    71.00 Ry     beta= 0.10
     Davidson diagonalization with overlap
     ethr =  1.33E-04,  avg # of iterations =  3.0

     total cpu time spent up to now is      115.5 secs

     total energy              =   -5268.02330313 Ry
     Harris-Foulkes estimate   =   -5268.02609079 Ry
     estimated scf accuracy    <       0.36031687 Ry

     total magnetization       =    30.08 Bohr mag/cell
     absolute magnetization    =    30.41 Bohr mag/cell

     iteration #  4     ecut=    71.00 Ry     beta= 0.10
     Davidson diagonalization with overlap
     ethr =  1.33E-04,  avg # of iterations =  1.0

     total cpu time spent up to now is      133.5 secs

     total energy              =   -5268.04070232 Ry
     Harris-Foulkes estimate   =   -5268.03194667 Ry
     estimated scf accuracy    <       0.11762838 Ry

     total magnetization       =    30.31 Bohr mag/cell
     absolute magnetization    =    30.66 Bohr mag/cell

     iteration #  5     ecut=    71.00 Ry     beta= 0.10
     Davidson diagonalization with overlap
     ethr =  4.59E-05,  avg # of iterations =  1.2

     total cpu time spent up to now is      152.4 secs

     total energy              =   -5268.12518841 Ry
     Harris-Foulkes estimate   =   -5268.04482829 Ry
     estimated scf accuracy    <       0.10567450 Ry

     total magnetization       =    30.36 Bohr mag/cell
     absolute magnetization    =    30.75 Bohr mag/cell

     iteration #  6     ecut=    71.00 Ry     beta= 0.10
     Davidson diagonalization with overlap
     ethr =  4.13E-05,  avg # of iterations =  3.3

     negative rho (up, down):  0.000E+00 3.496E-03

     total cpu time spent up to now is      184.1 secs

     total energy              =   -5268.14184169 Ry
     Harris-Foulkes estimate   =   -5268.16240872 Ry
     estimated scf accuracy    <       0.22126877 Ry

     total magnetization       =    31.03 Bohr mag/cell
     absolute magnetization    =    31.79 Bohr mag/cell

     iteration #  7     ecut=    71.00 Ry     beta= 0.10
     Davidson diagonalization with overlap
     ethr =  4.13E-05,  avg # of iterations =  2.9

     negative rho (up, down):  0.000E+00 2.094E-03

     total cpu time spent up to now is      213.6 secs

     total energy              =   -5268.18399713 Ry
     Harris-Foulkes estimate   =   -5268.18973220 Ry
     estimated scf accuracy    <       0.01191519 Ry

     total magnetization       =    32.47 Bohr mag/cell
     absolute magnetization    =    34.06 Bohr mag/cell

     iteration #  8     ecut=    71.00 Ry     beta= 0.10
     Davidson diagonalization with overlap
     ethr =  4.65E-06,  avg # of iterations =  2.4

     negative rho (up, down):  0.000E+00 2.001E-03

     total cpu time spent up to now is      238.6 secs

     total energy              =   -5268.18648442 Ry
     Harris-Foulkes estimate   =   -5268.18586916 Ry
     estimated scf accuracy    <       0.00851615 Ry

     total magnetization       =    32.37 Bohr mag/cell
     absolute magnetization    =    33.78 Bohr mag/cell

     iteration #  9     ecut=    71.00 Ry     beta= 0.10
     Davidson diagonalization with overlap
     ethr =  3.33E-06,  avg # of iterations =  1.4

     negative rho (up, down):  0.000E+00 2.452E-03

     total cpu time spent up to now is      257.9 secs

     total energy              =   -5268.18968885 Ry
     Harris-Foulkes estimate   =   -5268.18670694 Ry
     estimated scf accuracy    <       0.00550897 Ry

     total magnetization       =    32.45 Bohr mag/cell
     absolute magnetization    =    33.90 Bohr mag/cell

     iteration # 10     ecut=    71.00 Ry     beta= 0.10
     Davidson diagonalization with overlap
     ethr =  2.15E-06,  avg # of iterations =  3.4

     negative rho (up, down):  0.000E+00 2.383E-03

     total cpu time spent up to now is      287.6 secs

     total energy              =   -5268.19125432 Ry
     Harris-Foulkes estimate   =   -5268.19118204 Ry
     estimated scf accuracy    <       0.00085874 Ry

     total magnetization       =    32.78 Bohr mag/cell
     absolute magnetization    =    34.47 Bohr mag/cell

     iteration # 11     ecut=    71.00 Ry     beta= 0.10
     Davidson diagonalization with overlap
     ethr =  3.35E-07,  avg # of iterations =  1.3

     negative rho (up, down):  0.000E+00 2.152E-03

     total cpu time spent up to now is      306.5 secs

     total energy              =   -5268.19148480 Ry
     Harris-Foulkes estimate   =   -5268.19126988 Ry
     estimated scf accuracy    <       0.00070330 Ry

     total magnetization       =    32.79 Bohr mag/cell
     absolute magnetization    =    34.48 Bohr mag/cell

     iteration # 12     ecut=    71.00 Ry     beta= 0.10
     Davidson diagonalization with overlap
     ethr =  2.75E-07,  avg # of iterations =  1.9

     negative rho (up, down):  0.000E+00 2.422E-03

     total cpu time spent up to now is      328.3 secs

     total energy              =   -5268.19163420 Ry
     Harris-Foulkes estimate   =   -5268.19156780 Ry
     estimated scf accuracy    <       0.00071093 Ry

     total magnetization       =    32.86 Bohr mag/cell
     absolute magnetization    =    34.56 Bohr mag/cell

     iteration # 13     ecut=    71.00 Ry     beta= 0.10
     Davidson diagonalization with overlap
     ethr =  2.75E-07,  avg # of iterations =  3.3

     negative rho (up, down):  0.000E+00 2.469E-03

     total cpu time spent up to now is      358.6 secs

     total energy              =   -5268.19186708 Ry
     Harris-Foulkes estimate   =   -5268.19188016 Ry
     estimated scf accuracy    <       0.00014897 Ry

     total magnetization       =    33.01 Bohr mag/cell
     absolute magnetization    =    34.81 Bohr mag/cell

     iteration # 14     ecut=    71.00 Ry     beta= 0.10
     Davidson diagonalization with overlap
     ethr =  5.82E-08,  avg # of iterations =  2.1

     negative rho (up, down):  0.000E+00 2.473E-03

     total cpu time spent up to now is      381.4 secs

     total energy              =   -5268.19189235 Ry
     Harris-Foulkes estimate   =   -5268.19189215 Ry
     estimated scf accuracy    <       0.00014719 Ry

     total magnetization       =    33.03 Bohr mag/cell
     absolute magnetization    =    34.85 Bohr mag/cell

     iteration # 15     ecut=    71.00 Ry     beta= 0.10
     Davidson diagonalization with overlap
     ethr =  5.75E-08,  avg # of iterations =  1.0

     negative rho (up, down):  0.000E+00 2.483E-03

     total cpu time spent up to now is      399.3 secs

     total energy              =   -5268.19192011 Ry
     Harris-Foulkes estimate   =   -5268.19190232 Ry
     estimated scf accuracy    <       0.00002377 Ry

     total magnetization       =    33.05 Bohr mag/cell
     absolute magnetization    =    34.87 Bohr mag/cell

     iteration # 16     ecut=    71.00 Ry     beta= 0.10
     Davidson diagonalization with overlap
     ethr =  9.28E-09,  avg # of iterations =  2.9

     negative rho (up, down):  0.000E+00 2.489E-03

     total cpu time spent up to now is      426.2 secs

     total energy              =   -5268.19192618 Ry
     Harris-Foulkes estimate   =   -5268.19192411 Ry
     estimated scf accuracy    <       0.00000774 Ry

     total magnetization       =    33.05 Bohr mag/cell
     absolute magnetization    =    34.85 Bohr mag/cell

     iteration # 17     ecut=    71.00 Ry     beta= 0.10
     Davidson diagonalization with overlap
     ethr =  3.02E-09,  avg # of iterations =  3.2

     negative rho (up, down):  0.000E+00 2.498E-03

     total cpu time spent up to now is      456.0 secs

     total energy              =   -5268.19193005 Ry
     Harris-Foulkes estimate   =   -5268.19192877 Ry
     estimated scf accuracy    <       0.00000422 Ry

     total magnetization       =    33.06 Bohr mag/cell
     absolute magnetization    =    34.87 Bohr mag/cell

     iteration # 18     ecut=    71.00 Ry     beta= 0.10
     Davidson diagonalization with overlap
     ethr =  1.65E-09,  avg # of iterations =  2.3

     negative rho (up, down):  0.000E+00 2.514E-03
 
     Magnetic moment per site:
     atom:    1    charge:   14.3733    magn:    2.1106    constr:    0.0000
     atom:    2    charge:   14.3733    magn:    2.1128    constr:    0.0000
     atom:    3    charge:   14.3734    magn:    2.1114    constr:    0.0000
     atom:    4    charge:   14.3733    magn:    2.1128    constr:    0.0000
     atom:    5    charge:   14.3734    magn:    2.1114    constr:    0.0000
     atom:    6    charge:   14.3733    magn:    2.1128    constr:    0.0000
     atom:    7    charge:   14.3735    magn:    2.1119    constr:    0.0000
     atom:    8    charge:   14.3733    magn:    2.1128    constr:    0.0000
     atom:    9    charge:   14.3734    magn:    2.1114    constr:    0.0000
     atom:   10    charge:   14.3733    magn:    2.1128    constr:    0.0000
     atom:   11    charge:   14.3735    magn:    2.1119    constr:    0.0000
     atom:   12    charge:   14.3733    magn:    2.1128    constr:    0.0000
     atom:   13    charge:   14.3735    magn:    2.1119    constr:    0.0000
     atom:   14    charge:   14.3733    magn:    2.1128    constr:    0.0000
     atom:   15    charge:   14.3734    magn:    2.1124    constr:    0.0000
     atom:   16    charge:   14.3733    magn:    2.1128    constr:    0.0000

     total cpu time spent up to now is      479.6 secs

     End of self-consistent calculation

 ------ SPIN UP ------------


          k = 0.0554 0.0554 0.0554 ( 12098 PWs)   bands (ev):

   -69.2813 -69.2076 -69.2076 -69.2075 -69.1960 -69.1960 -69.1960 -69.1947
   -69.1946 -69.1946 -69.1941 -69.1941 -69.1938 -69.1900 -69.1886 -69.1320
   -35.4987 -35.4987 -35.4987 -35.4963 -35.4963 -35.4963 -35.3741 -35.3741
   -35.3694 -35.3106 -35.3080 -35.3080 -35.3080 -35.2916 -35.2916 -35.2803
   -35.2802 -35.2802 -35.2527 -35.2527 -35.2336 -35.2235 -35.2235 -35.2235
   -35.2143 -35.2143 -35.2143 -35.2050 -35.2050 -35.2050 -35.2021 -35.2021
   -35.2021 -35.1954 -35.1953 -35.1953 -35.1866 -35.1866 -35.1865 -35.0597
   -35.0568 -35.0568 -35.0568 -35.0546 -35.0546 -35.0546 -35.0545 -35.0545
    10.2069  13.7644  13.7645  13.7645  13.7836  13.7836  13.7836  13.8004
    13.8004  13.8004  13.8188  13.8188  14.2091  14.2091  14.2091  15.3828
    15.3962  15.3963  15.3963  15.4088  15.4088  15.4088  15.4672  15.4672
    15.5424  15.5424  15.5424  15.6093  15.6093  15.6640  15.8775  15.8776
    15.8776  16.5173  16.5173  16.5585  16.8417  16.8417  16.8417  16.9197
    16.9197  16.9197  17.0122  17.0122  17.0122  17.0922  17.0922  17.0922
    17.7178  17.7178  17.7200  17.7201  17.7201  17.7611  17.7611  17.7611
    17.8059  17.8059  17.8059  17.8121  17.8121  17.8121  17.9247  17.9248
    17.9248  17.9392  17.9392  17.9392  17.9627  17.9627  17.9641  17.9641
    18.8181  18.8182  18.8182  18.8853  18.8853  18.8854  18.9838  19.0492
    19.0492  19.0706  19.0706  19.0706  19.3865  19.3866  19.3866  19.5920
    19.5920  19.5920

          k = 0.0554 0.0554 0.1662 ( 12104 PWs)   bands (ev):

   -69.2785 -69.2207 -69.2070 -69.2070 -69.1973 -69.1973 -69.1957 -69.1944
   -69.1943 -69.1938 -69.1936 -69.1935 -69.1904 -69.1889 -69.1820 -69.1340
   -35.4927 -35.4926 -35.4917 -35.4896 -35.4861 -35.4861 -35.3768 -35.3690
   -35.3614 -35.3393 -35.3325 -35.3325 -35.3307 -35.3296 -35.3059 -35.3059
   -35.2793 -35.2580 -35.2514 -35.2484 -35.2416 -35.2232 -35.2232 -35.2152
   -35.2098 -35.2078 -35.2078 -35.2066 -35.2043 -35.2002 -35.2002 -35.1956
   -35.1956 -35.1917 -35.1917 -35.1680 -35.1650 -35.1649 -35.1599 -35.0701
   -35.0644 -35.0644 -35.0632 -35.0612 -35.0587 -35.0570 -35.0570 -35.0562
    10.3374  13.2507  13.7819  13.7819  13.8409  13.8409  13.8488  13.8488
    13.8564  13.8744  13.8749  13.8779  14.2457  14.2457  14.4354  15.2119
    15.2781  15.3740  15.3829  15.3941  15.3948  15.4401  15.4402  15.4775
    15.4775  15.4989  15.5253  15.5254  15.8038  15.8053  15.8287  15.8287
    16.1991  16.4965  16.5154  16.6151  16.6509  16.6509  16.7070  16.7991
    16.8109  16.8109  17.0356  17.0356  17.1585  17.1585  17.2208  17.3093
    17.3864  17.3864  17.5055  17.6470  17.6470  17.6591  17.7075  17.7428
    17.7643  17.7643  17.8183  17.8206  17.8402  17.8402  17.9204  17.9204
    17.9269  17.9582  17.9599  17.9611  17.9639  18.1333  18.1334  18.1568
    18.2665  18.4508  18.5060  18.8078  18.8078  18.8389  18.8410  18.8411
    18.9349  19.0424  19.1618  19.1618  19.4494  19.4494  19.4620  19.4620
    19.9154  19.9154

          k = 0.0554 0.0554 0.2770 ( 12128 PWs)   bands (ev):

   -69.2733 -69.2336 -69.2059 -69.2059 -69.1991 -69.1990 -69.1950 -69.1941
   -69.1941 -69.1934 -69.1933 -69.1931 -69.1911 -69.1895 -69.1703 -69.1378
   -35.4790 -35.4790 -35.4779 -35.4765 -35.4677 -35.4677 -35.3768 -35.3716
   -35.3667 -35.3654 -35.3654 -35.3590 -35.3495 -35.3486 -35.3406 -35.3406
   -35.2784 -35.2681 -35.2679 -35.2543 -35.2218 -35.2218 -35.2179 -35.2150
   -35.2139 -35.2110 -35.2110 -35.1988 -35.1988 -35.1958 -35.1958 -35.1792
   -35.1727 -35.1639 -35.1639 -35.1422 -35.1387 -35.1387 -35.1348 -35.0893
   -35.0762 -35.0762 -35.0752 -35.0742 -35.0673 -35.0645 -35.0644 -35.0633
    10.5946  12.6331  13.8293  13.8293  13.9167  13.9167  13.9320  13.9320
    13.9855  13.9885  14.0333  14.0489  14.2785  14.2785  14.4918  14.8977
    15.1302  15.1770  15.3230  15.3600  15.3693  15.3721  15.5386  15.5387
    15.5567  15.5567  15.6007  15.6007  15.8159  15.8159  16.0469  16.0583
    16.3943  16.3943  16.4567  16.4853  16.5129  16.5393  16.5393  16.6071
    16.6982  16.7666  16.9263  16.9263  17.1731  17.1731  17.2188  17.2188
    17.2695  17.2695  17.3017  17.4679  17.5116  17.5436  17.5656  17.6812
    17.6997  17.6998  17.7824  17.7825  17.7901  17.8421  17.8589  17.9312
    17.9477  17.9509  17.9557  17.9634  18.1389  18.1794  18.1794  18.2177
    18.3660  18.3856  18.3856  18.6190  18.7270  18.8071  18.8072  18.8876
    18.8876  18.9800  19.1323  19.1323  19.3295  19.3295  19.5650  19.5650
    20.0019  20.0019

          k = 0.0554 0.0554 0.3878 ( 12113 PWs)   bands (ev):

   -69.2659 -69.2457 -69.2045 -69.2045 -69.2009 -69.2009 -69.1941 -69.1938
   -69.1937 -69.1932 -69.1932 -69.1924 -69.1920 -69.1903 -69.1599 -69.1434
   -35.4578 -35.4577 -35.4576 -35.4572 -35.4422 -35.4422 -35.4034 -35.4012
   -35.3991 -35.3991 -35.3769 -35.3769 -35.3746 -35.3615 -35.3443 -35.3343
   -35.3033 -35.2928 -35.2550 -35.2453 -35.2289 -35.2238 -35.2197 -35.2197
   -35.2142 -35.2142 -35.1977 -35.1977 -35.1964 -35.1963 -35.1800 -35.1460
   -35.1427 -35.1368 -35.1368 -35.1186 -35.1148 -35.1143 -35.1142 -35.1118
   -35.0931 -35.0928 -35.0923 -35.0922 -35.0805 -35.0764 -35.0764 -35.0753
    10.9706  12.0168  13.8921  13.8921  13.9577  13.9577  14.0470  14.0471
    14.1346  14.1479  14.2542  14.2542  14.2806  14.2920  14.4261  14.6104
    14.8779  14.8878  15.3058  15.3214  15.3337  15.3414  15.6874  15.6874
    15.7138  15.7139  15.7720  15.7720  15.9150  15.9150  16.1527  16.1527
    16.2667  16.2667  16.3607  16.3692  16.4604  16.4604  16.4857  16.5139
    16.5305  16.5403  16.6637  16.6638  16.8096  16.9273  17.1146  17.1379
    17.1831  17.3758  17.3934  17.3934  17.4076  17.4076  17.6148  17.6148
    17.6970  17.6970  17.7477  17.8525  17.8587  17.8723  17.8766  17.9296
    17.9316  17.9368  17.9500  17.9652  18.0108  18.0616  18.3458  18.4284
    18.4284  18.4568  18.5599  18.6325  18.6325  18.7591  18.7591  18.8738
    18.9598  18.9598  19.0205  19.0206  19.1900  19.1900  19.7133  19.7133
    19.9748  19.9748

          k = 0.0554 0.0554-0.4986 ( 12122 PWs)   bands (ev):

   -69.2568 -69.2565 -69.2029 -69.2029 -69.2027 -69.2026 -69.1936 -69.1936
   -69.1933 -69.1932 -69.1931 -69.1930 -69.1917 -69.1911 -69.1510 -69.1507
   -35.4326 -35.4323 -35.4321 -35.4318 -35.4305 -35.4305 -35.4305 -35.4305
   -35.4114 -35.4114 -35.4114 -35.4114 -35.3701 -35.3699 -35.3256 -35.3253
   -35.3152 -35.3150 -35.2418 -35.2415 -35.2351 -35.2347 -35.2172 -35.2172
   -35.2169 -35.2169 -35.1970 -35.1970 -35.1967 -35.1967 -35.1462 -35.1460
   -35.1175 -35.1172 -35.1157 -35.1155 -35.1126 -35.1126 -35.1126 -35.1125
   -35.0980 -35.0977 -35.0932 -35.0932 -35.0932 -35.0932 -35.0919 -35.0917
    11.4516  11.4517  13.9450  13.9450  13.9451  13.9451  14.1655  14.1655
    14.1655  14.1655  14.2919  14.2920  14.3581  14.3582  14.5757  14.5758
    14.5799  14.5800  15.3122  15.3124  15.3206  15.3208  15.8739  15.8739
    15.8739  15.8739  15.9404  15.9405  15.9405  15.9405  16.0943  16.0943
    16.0944  16.0944  16.2438  16.2438  16.2439  16.2439  16.5018  16.5020
    16.5219  16.5221  16.7343  16.7345  16.7399  16.7401  16.9492  16.9493
    17.1631  17.1632  17.5114  17.5114  17.5114  17.5114  17.5714  17.5714
    17.5715  17.5715  17.9037  17.9039  17.9043  17.9046  17.9433  17.9434
    17.9468  17.9470  17.9753  17.9754  18.0467  18.0469  18.1561  18.1564
    18.6309  18.6309  18.6309  18.6309  18.7313  18.7315  18.8492  18.8492
    18.8492  18.8492  19.0611  19.0611  19.0612  19.0612  19.8634  19.8634
    19.8635  19.8635

          k = 0.0554 0.1662 0.1662 ( 12120 PWs)   bands (ev):

   -69.2759 -69.2198 -69.2197 -69.2065 -69.2009 -69.1970 -69.1970 -69.1942
   -69.1934 -69.1932 -69.1909 -69.1907 -69.1891 -69.1822 -69.1821 -69.1358
   -35.4913 -35.4860 -35.4860 -35.4801 -35.4800 -35.4711 -35.3818 -35.3661
   -35.3576 -35.3539 -35.3539 -35.3491 -35.3480 -35.3417 -35.3227 -35.2875
   -35.2751 -35.2750 -35.2506 -35.2505 -35.2493 -35.2277 -35.2186 -35.2186
   -35.2156 -35.2130 -35.2130 -35.2046 -35.2046 -35.1998 -35.1987 -35.1933
   -35.1827 -35.1743 -35.1690 -35.1690 -35.1499 -35.1396 -35.1396 -35.0860
   -35.0759 -35.0690 -35.0690 -35.0632 -35.0631 -35.0623 -35.0547 -35.0540
    10.4665  13.3184  13.3184  13.7491  13.8754  13.8754  13.9045  13.9291
    13.9297  13.9310  13.9310  13.9373  14.2927  14.4716  14.4716  15.1840
    15.2177  15.2177  15.2864  15.4242  15.4242  15.4455  15.4577  15.4577
    15.4588  15.4908  15.5607  15.5707  15.7639  15.8019  15.8150  16.1032
    16.1033  16.4438  16.5028  16.5269  16.5269  16.5783  16.6976  16.7070
    16.9607  16.9608  17.0066  17.0066  17.0253  17.0754  17.2017  17.3166
    17.3166  17.3264  17.3264  17.5803  17.5803  17.6510  17.6864  17.6993
    17.7089  17.7090  17.7263  17.7793  17.7793  17.8348  17.8348  17.9060
    17.9513  17.9585  17.9587  17.9687  18.0506  18.2340  18.2751  18.3264
    18.3264  18.3427  18.3428  18.4446  18.4446  18.6465  18.6952  18.6952
    18.8498  18.9011  19.0656  19.2301  19.2542  19.5479  20.1260  20.1260
    20.2934  20.2934

          k = 0.0554 0.1662 0.2770 ( 12103 PWs)   bands (ev):

   -69.2710 -69.2322 -69.2179 -69.2054 -69.2048 -69.1986 -69.1962 -69.1939
   -69.1930 -69.1928 -69.1917 -69.1897 -69.1882 -69.1827 -69.1709 -69.1394
   -35.4820 -35.4730 -35.4728 -35.4681 -35.4628 -35.4486 -35.3863 -35.3844
   -35.3809 -35.3724 -35.3702 -35.3700 -35.3561 -35.3495 -35.3330 -35.3108
   -35.2789 -35.2769 -35.2476 -35.2465 -35.2452 -35.2409 -35.2287 -35.2232
   -35.2225 -35.2170 -35.2115 -35.2030 -35.2004 -35.1902 -35.1873 -35.1709
   -35.1707 -35.1580 -35.1518 -35.1438 -35.1297 -35.1160 -35.1157 -35.1090
   -35.0920 -35.0789 -35.0788 -35.0749 -35.0710 -35.0690 -35.0570 -35.0567
    10.7207  12.7202  13.4338  13.7309  13.9246  13.9859  14.0220  14.0329
    14.0464  14.0520  14.0554  14.1035  14.3445  14.4919  14.5337  14.9212
    15.0759  15.1555  15.2861  15.3768  15.3966  15.4233  15.4604  15.4895
    15.5145  15.5317  15.5675  15.7170  15.7180  15.9556  15.9911  16.0392
    16.2923  16.3071  16.3969  16.4001  16.4415  16.4898  16.4986  16.6146
    16.7238  16.8247  16.8695  16.9652  17.0846  17.1495  17.1853  17.2214
    17.2391  17.3011  17.3058  17.3379  17.3510  17.5024  17.5438  17.5648
    17.6038  17.7181  17.7620  17.7806  17.8084  17.8313  17.8376  17.9369
    17.9470  17.9583  17.9723  17.9785  18.0631  18.1931  18.1983  18.2080
    18.3418  18.3796  18.3931  18.4172  18.4354  18.5412  18.5828  18.6482
    18.7657  19.0294  19.0331  19.0516  19.2385  19.7270  19.9142  20.4705
    20.5355  20.8444

          k = 0.0554 0.1662 0.3878 ( 12117 PWs)   bands (ev):

   -69.2637 -69.2440 -69.2154 -69.2086 -69.2040 -69.2004 -69.1952 -69.1936
   -69.1930 -69.1927 -69.1920 -69.1903 -69.1862 -69.1835 -69.1609 -69.1449
   -35.4656 -35.4537 -35.4534 -35.4511 -35.4394 -35.4197 -35.4151 -35.4059
   -35.4008 -35.4008 -35.3881 -35.3809 -35.3805 -35.3488 -35.3418 -35.3150
   -35.3015 -35.2705 -35.2651 -35.2432 -35.2401 -35.2353 -35.2306 -35.2275
   -35.2209 -35.2209 -35.2059 -35.2021 -35.2012 -35.1821 -35.1736 -35.1618
   -35.1414 -35.1376 -35.1335 -35.1298 -35.1206 -35.1118 -35.1101 -35.0951
   -35.0943 -35.0931 -35.0925 -35.0924 -35.0837 -35.0790 -35.0646 -35.0646
    11.0917  12.1192  13.5592  13.7079  13.9880  14.0420  14.1371  14.1782
    14.1826  14.2100  14.3062  14.3368  14.3418  14.4390  14.4725  14.6481
    14.8854  14.9081  15.3341  15.3647  15.3731  15.3854  15.4807  15.6000
    15.6425  15.6550  15.7048  15.7546  15.9070  16.0048  16.1534  16.2002
    16.2254  16.2272  16.2558  16.2850  16.3677  16.3739  16.4270  16.4336
    16.4398  16.4753  16.6032  16.7680  16.8806  16.9546  16.9644  17.0761
    17.3060  17.3920  17.4006  17.4074  17.4208  17.4230  17.5067  17.5229
    17.6365  17.6926  17.7397  17.8048  17.8315  17.8469  17.8571  17.9147
    17.9228  17.9593  17.9855  17.9992  18.0378  18.1030  18.1400  18.2130
    18.2578  18.3306  18.3836  18.4404  18.4466  18.5274  18.7201  18.7427
    18.8128  18.8189  18.9844  19.1524  19.2216  19.6877  19.9539  20.3982
    20.6827  20.9590

          k = 0.0554 0.1662-0.4986 ( 12126 PWs)   bands (ev):

   -69.2548 -69.2545 -69.2124 -69.2121 -69.2024 -69.2022 -69.1940 -69.1939
   -69.1934 -69.1930 -69.1914 -69.1909 -69.1848 -69.1845 -69.1523 -69.1520
   -35.4427 -35.4427 -35.4299 -35.4297 -35.4295 -35.4293 -35.4287 -35.4286
   -35.4114 -35.4114 -35.3867 -35.3866 -35.3858 -35.3858 -35.3235 -35.3232
   -35.2939 -35.2938 -35.2501 -35.2498 -35.2375 -35.2373 -35.2311 -35.2308
   -35.2248 -35.2246 -35.2018 -35.2016 -35.1777 -35.1774 -35.1708 -35.1707
   -35.1352 -35.1352 -35.1149 -35.1147 -35.1116 -35.1114 -35.1096 -35.1096
   -35.1006 -35.1004 -35.0930 -35.0930 -35.0778 -35.0777 -35.0771 -35.0770
    11.5651  11.5651  13.6556  13.6556  14.0384  14.0385  14.2545  14.2545
    14.3228  14.3229  14.3386  14.3387  14.4087  14.4088  14.6032  14.6033
    14.6179  14.6181  15.3390  15.3392  15.3599  15.3600  15.7622  15.7623
    15.7643  15.7643  15.7911  15.7912  15.8222  15.8222  16.1657  16.1657
    16.1829  16.1829  16.2580  16.2581  16.3598  16.3599  16.3599  16.3599
    16.4580  16.4582  16.5636  16.5637  16.5677  16.5679  17.1252  17.1253
    17.2494  17.2495  17.4504  17.4505  17.5362  17.5362  17.5642  17.5642
    17.5979  17.5980  17.8002  17.8003  17.8858  17.8860  17.8875  17.8877
    17.9217  17.9219  17.9647  17.9649  18.0434  18.0434  18.0924  18.0927
    18.2939  18.2940  18.4078  18.4079  18.5933  18.5933  18.6551  18.6552
    18.8708  18.8709  19.0073  19.0073  19.4509  19.4510  20.1907  20.1908
    20.8723  20.8723

          k = 0.0554 0.2770 0.2770 ( 12103 PWs)   bands (ev):

   -69.2663 -69.2297 -69.2297 -69.2107 -69.2044 -69.1978 -69.1978 -69.1936
   -69.1928 -69.1925 -69.1924 -69.1899 -69.1837 -69.1722 -69.1722 -69.1429
   -35.4772 -35.4616 -35.4616 -35.4536 -35.4536 -35.4225 -35.3974 -35.3974
   -35.3958 -35.3938 -35.3862 -35.3833 -35.3661 -35.3472 -35.3135 -35.2797
   -35.2771 -35.2771 -35.2724 -35.2724 -35.2428 -35.2353 -35.2351 -35.2276
   -35.2276 -35.2167 -35.2166 -35.2103 -35.2102 -35.2054 -35.1769 -35.1522
   -35.1471 -35.1470 -35.1399 -35.1365 -35.1357 -35.1169 -35.1114 -35.0951
   -35.0951 -35.0848 -35.0848 -35.0793 -35.0784 -35.0784 -35.0546 -35.0541
    10.9685  12.8806  12.8806  13.6213  14.0958  14.1069  14.1069  14.1225
    14.1716  14.1742  14.1932  14.1933  14.4379  14.5584  14.5584  15.0193
    15.0208  15.0208  15.0836  15.4174  15.4242  15.4726  15.4726  15.4860
    15.5112  15.5113  15.5778  15.6202  15.8852  15.9094  15.9676  16.1764
    16.1764  16.2593  16.2594  16.2616  16.3079  16.3286  16.3953  16.4594
    16.7438  16.7438  16.8858  16.8858  16.9467  16.9467  16.9823  17.1210
    17.1916  17.1916  17.2966  17.3772  17.4884  17.4885  17.5159  17.5672
    17.7416  17.7541  17.7541  17.7635  17.7635  17.7864  17.7864  17.8202
    17.8737  17.9147  17.9310  17.9689  18.0027  18.1108  18.1601  18.1602
    18.1778  18.1778  18.2365  18.3888  18.4476  18.4476  18.4550  18.7611
    18.7612  18.8093  19.0969  19.2621  19.2772  19.9966  20.5493  20.5493
    21.1900  21.1900

          k = 0.0554 0.2770 0.3878 ( 12120 PWs)   bands (ev):

   -69.2595 -69.2408 -69.2261 -69.2163 -69.2030 -69.1995 -69.1966 -69.1940
   -69.1932 -69.1925 -69.1918 -69.1904 -69.1798 -69.1741 -69.1628 -69.1480
   -35.4655 -35.4453 -35.4452 -35.4409 -35.4342 -35.4242 -35.4092 -35.4048
   -35.4045 -35.4034 -35.4030 -35.3905 -35.3879 -35.3336 -35.3160 -35.2957
   -35.2916 -35.2710 -35.2657 -35.2467 -35.2430 -35.2419 -35.2409 -35.2378
   -35.2375 -35.2327 -35.2196 -35.2096 -35.2079 -35.1878 -35.1688 -35.1673
   -35.1523 -35.1339 -35.1306 -35.1255 -35.1224 -35.1198 -35.1042 -35.0941
   -35.0939 -35.0921 -35.0912 -35.0844 -35.0779 -35.0776 -35.0570 -35.0568
    11.3286  12.3146  13.0862  13.4808  14.1699  14.1886  14.2464  14.3006
    14.3067  14.3428  14.3585  14.4261  14.4774  14.5069  14.5155  14.7719
    14.9023  14.9165  15.2362  15.3854  15.4232  15.4247  15.4495  15.4574
    15.5670  15.5971  15.5978  15.6742  15.8912  15.9925  16.0494  16.1022
    16.1031  16.1817  16.2198  16.2387  16.2420  16.2608  16.3309  16.3764
    16.4241  16.4707  16.5502  16.6035  16.6447  16.7040  17.1581  17.2062
    17.2605  17.4054  17.4321  17.4415  17.4532  17.4817  17.4930  17.5536
    17.6799  17.6890  17.6990  17.7226  17.7871  17.8026  17.8040  17.8085
    17.8823  17.8997  17.9249  17.9848  17.9919  18.0138  18.0411  18.0626
    18.1245  18.2041  18.2344  18.2358  18.2533  18.4192  18.4759  18.5743
    18.9107  18.9618  19.0869  19.2205  19.5827  20.2343  20.3176  20.9516
    21.2135  21.8206

          k = 0.0554 0.2770-0.4986 ( 12108 PWs)   bands (ev):

   -69.2510 -69.2507 -69.2217 -69.2214 -69.2014 -69.2012 -69.1954 -69.1952
   -69.1930 -69.1926 -69.1913 -69.1909 -69.1768 -69.1765 -69.1548 -69.1545
   -35.4472 -35.4472 -35.4256 -35.4255 -35.4255 -35.4254 -35.4253 -35.4251
   -35.4114 -35.4114 -35.4060 -35.4060 -35.3545 -35.3545 -35.3164 -35.3161
   -35.2680 -35.2679 -35.2574 -35.2572 -35.2571 -35.2568 -35.2366 -35.2364
   -35.2293 -35.2291 -35.2093 -35.2092 -35.2044 -35.2043 -35.1599 -35.1598
   -35.1593 -35.1590 -35.1099 -35.1096 -35.1070 -35.1068 -35.1068 -35.1065
   -35.1054 -35.1053 -35.0928 -35.0928 -35.0648 -35.0648 -35.0648 -35.0647
    11.7853  11.7854  13.2981  13.2981  14.2111  14.2112  14.3862  14.3863
    14.4182  14.4183  14.4213  14.4213  14.5449  14.5450  14.6477  14.6478
    14.6842  14.6843  15.3876  15.3877  15.4077  15.4078  15.5394  15.5395
    15.5801  15.5802  15.6200  15.6201  15.8152  15.8153  16.1956  16.1957
    16.1977  16.1977  16.2203  16.2204  16.3053  16.3055  16.3200  16.3201
    16.3585  16.3585  16.3848  16.3849  16.3896  16.3897  17.3457  17.3458
    17.3790  17.3790  17.4270  17.4271  17.4962  17.4963  17.5767  17.5767
    17.5874  17.5874  17.5877  17.5877  17.8439  17.8441  17.8544  17.8546
    17.8751  17.8753  17.9371  17.9373  18.0067  18.0069  18.0108  18.0109
    18.1096  18.1096  18.2559  18.2560  18.3232  18.3232  18.4565  18.4566
    19.0224  19.0224  19.1186  19.1187  19.9086  19.9086  20.6477  20.6478
    21.8933  21.8933

          k = 0.0554 0.3878 0.3878 ( 12134 PWs)   bands (ev):

   -69.2533 -69.2363 -69.2362 -69.2237 -69.2017 -69.1983 -69.1983 -69.1954
   -69.1928 -69.1920 -69.1919 -69.1907 -69.1742 -69.1657 -69.1656 -69.1525
   -35.4582 -35.4341 -35.4341 -35.4274 -35.4274 -35.4267 -35.4267 -35.4151
   -35.4138 -35.4120 -35.4106 -35.3990 -35.3565 -35.3215 -35.2868 -35.2868
   -35.2797 -35.2797 -35.2693 -35.2667 -35.2616 -35.2470 -35.2470 -35.2458
   -35.2339 -35.2189 -35.2189 -35.2143 -35.2142 -35.2140 -35.2044 -35.1591
   -35.1541 -35.1330 -35.1329 -35.1168 -35.1118 -35.1101 -35.1020 -35.0985
   -35.0972 -35.0972 -35.0927 -35.0927 -35.0651 -35.0651 -35.0544 -35.0543
    11.6701  12.5831  12.5831  13.2039  14.3358  14.3431  14.3965  14.4143
    14.4143  14.5017  14.5017  14.5279  14.5304  14.5304  14.6048  14.8583
    14.8848  14.9894  14.9894  15.3793  15.4057  15.4160  15.4837  15.4837
    15.4870  15.4870  15.5022  15.5781  15.7416  15.9826  16.0027  16.0027
    16.0471  16.1295  16.1538  16.1921  16.2636  16.2636  16.2825  16.2825
    16.2978  16.2978  16.3306  16.3739  16.5132  16.8957  16.8957  17.3675
    17.4310  17.4374  17.4374  17.4888  17.5171  17.5360  17.5635  17.5635
    17.5680  17.6774  17.7296  17.7296  17.7396  17.7396  17.7651  17.8127
    17.8128  17.8350  17.8353  17.8599  17.9306  17.9306  17.9781  18.0171
    18.0912  18.1215  18.1215  18.2031  18.2850  18.2850  18.3303  18.3503
    19.0708  19.0709  19.1387  19.2301  19.9821  20.7296  20.8077  20.8077
    21.5527  21.5527

          k = 0.0554 0.3878-0.4986 ( 12132 PWs)   bands (ev):

   -69.2456 -69.2453 -69.2306 -69.2303 -69.2002 -69.1999 -69.1970 -69.1968
   -69.1925 -69.1921 -69.1915 -69.1911 -69.1696 -69.1693 -69.1586 -69.1583
   -35.4451 -35.4451 -35.4235 -35.4235 -35.4223 -35.4222 -35.4219 -35.4217
   -35.4203 -35.4201 -35.4127 -35.4126 -35.3189 -35.3189 -35.3056 -35.3053
   -35.2753 -35.2751 -35.2603 -35.2602 -35.2487 -35.2486 -35.2423 -35.2423
   -35.2405 -35.2405 -35.2277 -35.2275 -35.2175 -35.2174 -35.1861 -35.1861
   -35.1428 -35.1425 -35.1161 -35.1159 -35.1040 -35.1038 -35.1033 -35.1031
   -35.1023 -35.1022 -35.0948 -35.0947 -35.0571 -35.0571 -35.0569 -35.0569
    12.0978  12.0978  12.8928  12.8928  14.4262  14.4263  14.4300  14.4300
    14.4643  14.4643  14.6164  14.6165  14.6729  14.6730  14.7490  14.7491
    14.7539  14.7540  15.2677  15.2678  15.4134  15.4134  15.4218  15.4219
    15.4310  15.4311  15.4934  15.4935  15.8531  15.8531  16.0492  16.0493
    16.0921  16.0923  16.1290  16.1291  16.1309  16.1310  16.1501  16.1502
    16.3337  16.3339  16.3560  16.3560  16.5990  16.5990  17.1806  17.1806
    17.4693  17.4694  17.4976  17.4976  17.5846  17.5846  17.5904  17.5904
    17.6266  17.6267  17.6594  17.6595  17.7514  17.7516  17.7800  17.7801
    17.8039  17.8041  17.8199  17.8201  17.8606  17.8608  18.0578  18.0579
    18.0773  18.0773  18.1643  18.1644  18.1644  18.1645  18.3140  18.3140
    19.1322  19.1322  19.1798  19.1799  20.3950  20.3950  21.1515  21.1515
    21.3942  21.3942

          k = 0.0554-0.4986-0.4986 ( 12136 PWs)   bands (ev):

   -69.2388 -69.2385 -69.2385 -69.2382 -69.1987 -69.1985 -69.1985 -69.1983
   -69.1921 -69.1918 -69.1918 -69.1914 -69.1636 -69.1634 -69.1634 -69.1630
   -35.4369 -35.4368 -35.4368 -35.4368 -35.4209 -35.4208 -35.4208 -35.4206
   -35.4157 -35.4156 -35.4156 -35.4155 -35.2918 -35.2916 -35.2916 -35.2913
   -35.2808 -35.2808 -35.2808 -35.2808 -35.2575 -35.2575 -35.2575 -35.2575
   -35.2239 -35.2239 -35.2239 -35.2239 -35.2133 -35.2133 -35.2132 -35.2132
   -35.1282 -35.1280 -35.1280 -35.1277 -35.1018 -35.1017 -35.1017 -35.1016
   -35.0985 -35.0984 -35.0984 -35.0983 -35.0542 -35.0541 -35.0541 -35.0541
    12.4785  12.4785  12.4785  12.4786  14.4616  14.4617  14.4617  14.4617
    14.6076  14.6076  14.6076  14.6076  14.7555  14.7555  14.7555  14.7555
    14.9971  14.9972  14.9972  14.9973  15.3759  15.3759  15.3759  15.3760
    15.4301  15.4301  15.4301  15.4301  15.9329  15.9329  15.9330  15.9330
    16.0490  16.0492  16.0492  16.0493  16.0943  16.0944  16.0944  16.0945
    16.3245  16.3245  16.3245  16.3247  16.8766  16.8767  16.8767  16.8767
    17.5787  17.5787  17.5787  17.5788  17.5835  17.5836  17.5836  17.5839
    17.7021  17.7022  17.7022  17.7024  17.7364  17.7365  17.7365  17.7366
    17.7969  17.7971  17.7971  17.7973  17.8331  17.8331  17.8331  17.8331
    18.1052  18.1053  18.1053  18.1054  18.2239  18.2239  18.2239  18.2240
    19.1854  19.1854  19.1855  19.1855  20.8931  20.8932  20.8932  20.8932
    21.6677  21.6677

          k = 0.1662 0.1662 0.1662 ( 12149 PWs)   bands (ev):

   -69.2735 -69.2188 -69.2188 -69.2188 -69.2005 -69.2005 -69.2005 -69.1919
   -69.1906 -69.1906 -69.1905 -69.1889 -69.1825 -69.1825 -69.1824 -69.1375
   -35.4843 -35.4843 -35.4843 -35.4663 -35.4663 -35.4663 -35.3764 -35.3764
   -35.3737 -35.3676 -35.3676 -35.3675 -35.3333 -35.3254 -35.3254 -35.2930
   -35.2929 -35.2929 -35.2562 -35.2562 -35.2562 -35.2222 -35.2222 -35.2222
   -35.2119 -35.2119 -35.1998 -35.1997 -35.1997 -35.1970 -35.1970 -35.1970
   -35.1706 -35.1706 -35.1706 -35.1636 -35.1269 -35.1269 -35.1268 -35.1024
   -35.0789 -35.0789 -35.0789 -35.0613 -35.0613 -35.0613 -35.0586 -35.0586
    10.5943  13.3907  13.3907  13.3907  13.8467  13.8467  13.8467  13.9896
    13.9896  14.0175  14.0175  14.0175  14.5217  14.5217  14.5217  15.1056
    15.2062  15.2062  15.2062  15.3729  15.3729  15.4429  15.4429  15.4429
    15.5415  15.5415  15.5415  15.7202  15.7202  15.7253  16.0018  16.0018
    16.0018  16.4334  16.4334  16.4676  16.4676  16.4677  16.8092  16.8343
    16.8343  16.8343  16.9668  16.9668  16.9668  17.0212  17.0213  17.0213
    17.3874  17.3874  17.3874  17.6059  17.6059  17.6059  17.6796  17.6796
    17.7141  17.7141  17.7141  17.8703  17.8703  17.8703  17.9088  17.9089
    17.9089  17.9206  17.9206  17.9206  17.9461  17.9461  17.9718  17.9718
    18.4147  18.4211  18.4211  18.4212  18.4627  18.4628  18.4628  18.8983
    18.8983  18.8983  18.9520  18.9520  19.7693  19.7693  19.7693  20.4194
    20.4194  20.4194

          k = 0.1662 0.1662 0.2770 ( 12100 PWs)   bands (ev):

   -69.2686 -69.2309 -69.2171 -69.2170 -69.2042 -69.2042 -69.1995 -69.1933
   -69.1901 -69.1888 -69.1882 -69.1880 -69.1829 -69.1828 -69.1715 -69.1411
   -35.4754 -35.4754 -35.4707 -35.4567 -35.4453 -35.4452 -35.3913 -35.3895
   -35.3895 -35.3851 -35.3813 -35.3661 -35.3616 -35.3215 -35.3215 -35.3151
   -35.3075 -35.2837 -35.2597 -35.2571 -35.2570 -35.2339 -35.2313 -35.2313
   -35.2248 -35.2183 -35.2020 -35.1899 -35.1899 -35.1766 -35.1756 -35.1756
   -35.1728 -35.1728 -35.1441 -35.1429 -35.1265 -35.1097 -35.1097 -35.1061
   -35.0922 -35.0922 -35.0848 -35.0738 -35.0675 -35.0628 -35.0628 -35.0588
    10.8458  12.8098  13.5149  13.5149  13.8327  13.8327  14.0351  14.0924
    14.1026  14.1331  14.1331  14.1848  14.5659  14.5659  14.5926  14.9276
    15.0308  15.2445  15.2445  15.2469  15.3379  15.4153  15.4923  15.5118
    15.5118  15.5615  15.6692  15.6692  15.8122  15.9112  15.9112  15.9220
    16.1784  16.3080  16.3080  16.3663  16.3775  16.4140  16.5745  16.5745
    16.6057  16.6057  16.8420  16.9465  17.0133  17.0523  17.1420  17.1421
    17.1918  17.1918  17.2271  17.4329  17.4329  17.5895  17.6215  17.6437
    17.6437  17.6800  17.7330  17.7635  17.8068  17.8068  17.8338  17.9142
    17.9289  17.9409  17.9609  17.9971  18.0248  18.0248  18.0547  18.0547
    18.1322  18.1883  18.5302  18.5302  18.5478  18.5557  18.5558  18.6005
    18.7452  18.9663  18.9663  18.9897  19.4761  19.4761  20.4162  20.6387
    20.6387  21.2738

          k = 0.1662 0.1662 0.3878 ( 12113 PWs)   bands (ev):

   -69.2616 -69.2425 -69.2146 -69.2145 -69.2080 -69.2079 -69.1982 -69.1949
   -69.1897 -69.1889 -69.1863 -69.1862 -69.1836 -69.1836 -69.1618 -69.1464
   -35.4600 -35.4599 -35.4508 -35.4433 -35.4186 -35.4186 -35.4147 -35.4147
   -35.4091 -35.3954 -35.3908 -35.3895 -35.3542 -35.3542 -35.3513 -35.3094
   -35.2953 -35.2882 -35.2538 -35.2538 -35.2500 -35.2496 -35.2400 -35.2400
   -35.2250 -35.2185 -35.2087 -35.1841 -35.1841 -35.1757 -35.1757 -35.1560
   -35.1514 -35.1514 -35.1440 -35.1242 -35.1201 -35.1092 -35.1091 -35.0946
   -35.0930 -35.0929 -35.0925 -35.0885 -35.0809 -35.0690 -35.0690 -35.0639
    11.2123  12.2228  13.6515  13.6515  13.8117  13.8117  14.2430  14.2509
    14.2698  14.2699  14.2994  14.4131  14.5263  14.5263  14.5384  14.6676
    14.8958  14.9506  15.3341  15.3818  15.4134  15.4134  15.4351  15.4386
    15.6236  15.6237  15.8047  15.8048  15.8618  15.8618  16.0662  16.1577
    16.1872  16.1872  16.2073  16.2073  16.2859  16.3202  16.3209  16.3661
    16.3661  16.3859  16.6466  16.6466  16.6495  16.7928  17.1060  17.1614
    17.2460  17.3910  17.3910  17.4625  17.4711  17.4711  17.4796  17.5760
    17.5760  17.7138  17.7138  17.8072  17.8234  17.8271  17.8471  17.8923
    17.9051  17.9208  17.9307  17.9349  18.0179  18.0455  18.1085  18.1085
    18.1498  18.1498  18.2933  18.4784  18.6983  18.6983  18.7086  18.7087
    18.7585  18.9393  18.9393  18.9638  19.2055  19.2055  20.9010  20.9010
    21.0987  21.3032

          k = 0.1662 0.1662-0.4986 ( 12130 PWs)   bands (ev):

   -69.2530 -69.2527 -69.2116 -69.2116 -69.2113 -69.2113 -69.1968 -69.1965
   -69.1894 -69.1891 -69.1849 -69.1849 -69.1846 -69.1845 -69.1535 -69.1532
   -35.4392 -35.4392 -35.4391 -35.4391 -35.4272 -35.4269 -35.4255 -35.4252
   -35.3924 -35.3923 -35.3875 -35.3875 -35.3874 -35.3874 -35.3323 -35.3321
   -35.2732 -35.2731 -35.2689 -35.2687 -35.2479 -35.2479 -35.2477 -35.2477
   -35.2150 -35.2147 -35.1898 -35.1897 -35.1795 -35.1795 -35.1792 -35.1792
   -35.1292 -35.1292 -35.1292 -35.1292 -35.1162 -35.1159 -35.1079 -35.1077
   -35.0988 -35.0985 -35.0791 -35.0791 -35.0791 -35.0790 -35.0742 -35.0741
    11.6788  11.6788  13.7565  13.7566  13.7566  13.7566  14.4087  14.4088
    14.4113  14.4113  14.4113  14.4113  14.4367  14.4368  14.6161  14.6162
    14.6696  14.6697  15.3516  15.3518  15.4055  15.4057  15.6879  15.6879
    15.6880  15.6880  15.7602  15.7602  15.7603  15.7603  16.1578  16.1578
    16.1578  16.1578  16.2962  16.2962  16.2962  16.2962  16.3028  16.3028
    16.3469  16.3471  16.3997  16.3999  16.4099  16.4100  17.2847  17.2848
    17.3114  17.3114  17.5172  17.5172  17.5173  17.5173  17.5239  17.5240
    17.5724  17.5724  17.5725  17.5725  17.8754  17.8757  17.8825  17.8827
    17.8996  17.8998  17.9278  17.9280  18.1351  18.1351  18.1544  18.1544
    18.1545  18.1545  18.1848  18.1851  18.8454  18.8455  18.8455  18.8455
    18.8833  18.8834  18.9413  18.9413  18.9413  18.9413  21.1475  21.1475
    21.1475  21.1475

          k = 0.1662 0.2770 0.2770 ( 12104 PWs)   bands (ev):

   -69.2640 -69.2285 -69.2285 -69.2154 -69.2099 -69.2031 -69.2030 -69.1953
   -69.1883 -69.1880 -69.1877 -69.1838 -69.1833 -69.1727 -69.1727 -69.1444
   -35.4705 -35.4626 -35.4626 -35.4390 -35.4390 -35.4210 -35.4008 -35.4002
   -35.4002 -35.4000 -35.3903 -35.3693 -35.3634 -35.3408 -35.3164 -35.2947
   -35.2894 -35.2894 -35.2841 -35.2841 -35.2652 -35.2454 -35.2454 -35.2454
   -35.2066 -35.2000 -35.2000 -35.1942 -35.1942 -35.1780 -35.1759 -35.1632
   -35.1564 -35.1526 -35.1469 -35.1469 -35.1284 -35.1089 -35.1005 -35.0941
   -35.0941 -35.0921 -35.0921 -35.0744 -35.0744 -35.0732 -35.0607 -35.0587
    11.0915  12.9753  12.9753  13.6572  13.7291  14.0289  14.0289  14.1867
    14.2188  14.2573  14.2976  14.2976  14.6426  14.6426  14.6684  15.0014
    15.0014  15.0020  15.2019  15.2110  15.3810  15.4764  15.4764  15.5578
    15.5845  15.5895  15.5895  15.7025  15.7891  15.8141  15.8842  16.0519
    16.0519  16.2332  16.2338  16.2408  16.2409  16.2878  16.3634  16.4377
    16.4888  16.4888  16.7488  16.7488  16.8303  16.8304  16.8999  17.1134
    17.2198  17.2198  17.2787  17.5201  17.5797  17.5985  17.6216  17.6216
    17.7125  17.7132  17.7132  17.7738  17.7899  17.7899  17.8280  17.8771
    17.9068  17.9068  17.9073  17.9361  17.9592  17.9592  17.9634  18.0258
    18.1067  18.1892  18.1892  18.5467  18.6401  18.6505  18.6505  18.7180
    18.7181  18.7445  18.9823  19.0487  19.1492  20.0385  20.0385  20.9216
    21.7413  21.7413

          k = 0.1662 0.2770 0.3878 ( 12105 PWs)   bands (ev):

   -69.2575 -69.2393 -69.2250 -69.2154 -69.2129 -69.2066 -69.2014 -69.1974
   -69.1879 -69.1876 -69.1862 -69.1839 -69.1800 -69.1745 -69.1636 -69.1493
   -35.4592 -35.4493 -35.4440 -35.4305 -35.4219 -35.4167 -35.4152 -35.4107
   -35.4050 -35.3988 -35.3941 -35.3915 -35.3649 -35.3502 -35.3235 -35.3094
   -35.3036 -35.2789 -35.2723 -35.2672 -35.2640 -35.2585 -35.2557 -35.2546
   -35.2245 -35.2052 -35.1990 -35.1879 -35.1844 -35.1791 -35.1748 -35.1675
   -35.1520 -35.1379 -35.1376 -35.1285 -35.1233 -35.1155 -35.1056 -35.0980
   -35.0912 -35.0910 -35.0857 -35.0790 -35.0778 -35.0776 -35.0626 -35.0608
    11.4481  12.4206  13.1878  13.5914  13.8191  14.0107  14.3043  14.3147
    14.3805  14.3872  14.4342  14.5189  14.5924  14.6060  14.6813  14.7740
    14.9325  14.9666  15.2088  15.3058  15.3742  15.4338  15.4799  15.5037
    15.5687  15.6491  15.6596  15.7180  15.8462  15.8538  15.9226  16.0121
    16.0278  16.1288  16.1370  16.1740  16.1812  16.2123  16.2281  16.2616
    16.3186  16.3563  16.4257  16.4724  16.4849  16.5331  16.9516  17.3012
    17.3018  17.4038  17.4230  17.5130  17.5243  17.5435  17.5787  17.5802
    17.6656  17.6977  17.7022  17.7221  17.7677  17.7953  17.8052  17.8593
    17.8750  17.9082  17.9327  17.9362  17.9424  17.9827  18.0080  18.0274
    18.0911  18.1086  18.3221  18.3905  18.4019  18.5797  18.6694  18.8511
    18.8568  18.8604  18.9862  19.0370  19.0450  19.6923  20.6410  21.2563
    21.8325  21.8945

          k = 0.1662 0.2770-0.4986 ( 12096 PWs)   bands (ev):

   -69.2492 -69.2489 -69.2207 -69.2204 -69.2101 -69.2098 -69.1996 -69.1993
   -69.1878 -69.1875 -69.1850 -69.1847 -69.1771 -69.1768 -69.1559 -69.1556
   -35.4425 -35.4425 -35.4327 -35.4327 -35.4209 -35.4207 -35.4207 -35.4204
   -35.4040 -35.4039 -35.3911 -35.3911 -35.3583 -35.3583 -35.3319 -35.3316
   -35.2844 -35.2842 -35.2701 -35.2699 -35.2636 -35.2635 -35.2488 -35.2487
   -35.2190 -35.2189 -35.2032 -35.2030 -35.1832 -35.1830 -35.1589 -35.1587
   -35.1505 -35.1505 -35.1205 -35.1205 -35.1129 -35.1127 -35.1052 -35.1051
   -35.1027 -35.1025 -35.0833 -35.0833 -35.0687 -35.0686 -35.0670 -35.0670
    11.8994  11.8994  13.4062  13.4063  13.9465  13.9465  14.4630  14.4631
    14.5099  14.5099  14.5680  14.5681  14.5764  14.5765  14.6323  14.6325
    14.7559  14.7560  15.3947  15.3949  15.4483  15.4485  15.5093  15.5094
    15.5313  15.5314  15.6615  15.6615  15.7772  15.7772  16.1237  16.1237
    16.1350  16.1352  16.1628  16.1628  16.1688  16.1689  16.1884  16.1885
    16.2378  16.2379  16.2694  16.2696  16.2704  16.2705  17.2127  17.2128
    17.4111  17.4112  17.5105  17.5105  17.5442  17.5443  17.5702  17.5702
    17.5743  17.5744  17.6232  17.6232  17.8381  17.8383  17.8592  17.8594
    17.8732  17.8734  17.9376  17.9377  17.9715  17.9716  18.0793  18.0794
    18.1280  18.1283  18.2070  18.2071  18.5815  18.5815  18.6338  18.6338
    18.9433  18.9433  18.9748  18.9749  19.3592  19.3593  21.2615  21.2616
    21.5835  21.5836

          k = 0.1662 0.3878 0.3878 ( 12105 PWs)   bands (ev):

   -69.2514 -69.2349 -69.2348 -69.2226 -69.2107 -69.2047 -69.2047 -69.2000
   -69.1870 -69.1863 -69.1862 -69.1844 -69.1746 -69.1664 -69.1663 -69.1537
   -35.4519 -35.4347 -35.4347 -35.4227 -35.4227 -35.4184 -35.4146 -35.4146
   -35.4116 -35.4094 -35.4019 -35.3798 -35.3597 -35.3397 -35.3044 -35.3024
   -35.3024 -35.2891 -35.2891 -35.2772 -35.2755 -35.2748 -35.2748 -35.2481
   -35.2176 -35.1994 -35.1988 -35.1988 -35.1920 -35.1920 -35.1832 -35.1526
   -35.1501 -35.1305 -35.1304 -35.1242 -35.1235 -35.1087 -35.1040 -35.1040
   -35.0966 -35.0901 -35.0901 -35.0900 -35.0683 -35.0682 -35.0601 -35.0592
    11.7878  12.6923  12.6923  13.3177  14.0223  14.2854  14.2854  14.4078
    14.4832  14.5613  14.5881  14.5881  14.6509  14.6509  14.8213  14.8595
    14.9561  14.9929  14.9930  15.2459  15.4148  15.4415  15.5039  15.5039
    15.5149  15.5149  15.5760  15.6138  15.7171  15.7779  15.9593  15.9650
    15.9650  16.0448  16.1032  16.1139  16.1139  16.1479  16.1634  16.1635
    16.1769  16.1855  16.1856  16.2637  16.3493  16.6636  16.6636  17.1974
    17.4523  17.4524  17.5115  17.5150  17.5618  17.5676  17.6719  17.6726
    17.7268  17.7268  17.7506  17.7506  17.7515  17.7665  17.7665  17.8284
    17.8370  17.8964  17.8965  17.9123  17.9497  17.9895  17.9895  18.0250
    18.0250  18.0731  18.1528  18.2035  18.4334  18.4334  18.4903  18.5663
    18.9617  18.9618  19.0205  19.0771  19.4151  20.2171  20.2172  21.3167
    21.6721  22.4463

          k = 0.1662 0.3878-0.4986 ( 12124 PWs)   bands (ev):

   -69.2439 -69.2436 -69.2293 -69.2290 -69.2080 -69.2077 -69.2026 -69.2023
   -69.1867 -69.1864 -69.1853 -69.1850 -69.1702 -69.1699 -69.1596 -69.1592
   -35.4393 -35.4393 -35.4253 -35.4252 -35.4183 -35.4183 -35.4177 -35.4175
   -35.4130 -35.4128 -35.3969 -35.3968 -35.3247 -35.3247 -35.3232 -35.3230
   -35.2926 -35.2925 -35.2907 -35.2905 -35.2798 -35.2797 -35.2533 -35.2533
   -35.2235 -35.2234 -35.1960 -35.1959 -35.1871 -35.1870 -35.1739 -35.1739
   -35.1405 -35.1402 -35.1127 -35.1126 -35.1118 -35.1115 -35.1065 -35.1063
   -35.1050 -35.1049 -35.0897 -35.0897 -35.0623 -35.0623 -35.0617 -35.0617
    12.2122  12.2122  13.0055  13.0055  14.1955  14.1956  14.5083  14.5084
    14.5510  14.5510  14.5961  14.5962  14.7722  14.7723  14.7834  14.7835
    14.8622  14.8623  15.2712  15.2713  15.3760  15.3761  15.4202  15.4202
    15.4471  15.4472  15.5599  15.5600  15.8243  15.8243  15.9217  15.9219
    16.0132  16.0133  16.0202  16.0202  16.0236  16.0237  16.0641  16.0642
    16.2172  16.2173  16.2206  16.2207  16.4012  16.4012  16.9064  16.9064
    17.5188  17.5189  17.5863  17.5864  17.6227  17.6228  17.6365  17.6366
    17.7310  17.7310  17.7572  17.7572  17.7745  17.7747  17.8123  17.8125
    17.8549  17.8550  17.8557  17.8558  17.9668  17.9670  17.9693  17.9695
    18.0346  18.0347  18.2610  18.2610  18.2870  18.2870  18.4522  18.4522
    19.0168  19.0168  19.0451  19.0451  19.8108  19.8109  20.7599  20.7600
    22.0907  22.0908

          k = 0.1662-0.4986-0.4986 ( 12100 PWs)   bands (ev):

   -69.2373 -69.2370 -69.2370 -69.2367 -69.2055 -69.2053 -69.2053 -69.2050
   -69.1860 -69.1857 -69.1857 -69.1853 -69.1645 -69.1642 -69.1642 -69.1639
   -35.4308 -35.4308 -35.4308 -35.4308 -35.4192 -35.4190 -35.4190 -35.4189
   -35.4045 -35.4043 -35.4043 -35.4042 -35.3092 -35.3091 -35.3091 -35.3088
   -35.2908 -35.2907 -35.2907 -35.2907 -35.2891 -35.2891 -35.2891 -35.2891
   -35.1984 -35.1984 -35.1983 -35.1983 -35.1912 -35.1911 -35.1911 -35.1911
   -35.1247 -35.1245 -35.1245 -35.1242 -35.1074 -35.1072 -35.1072 -35.1072
   -35.0978 -35.0977 -35.0977 -35.0976 -35.0598 -35.0597 -35.0597 -35.0597
    12.5928  12.5928  12.5928  12.5928  14.4423  14.4423  14.4423  14.4423
    14.5441  14.5441  14.5441  14.5442  14.9179  14.9179  14.9179  14.9179
    15.0151  15.0152  15.0152  15.0153  15.3230  15.3231  15.3231  15.3232
    15.4894  15.4894  15.4894  15.4894  15.8960  15.8961  15.8961  15.8963
    15.9053  15.9053  15.9053  15.9053  16.0063  16.0063  16.0063  16.0064
    16.1976  16.1977  16.1977  16.1978  16.6292  16.6293  16.6293  16.6293
    17.5902  17.5902  17.5902  17.5903  17.6972  17.6973  17.6973  17.6974
    17.7880  17.7881  17.7881  17.7883  17.7935  17.7937  17.7937  17.7939
    17.8117  17.8118  17.8118  17.8119  17.9997  17.9998  17.9998  18.0000
    18.0174  18.0175  18.0175  18.0175  18.3307  18.3307  18.3307  18.3308
    19.0571  19.0571  19.0572  19.0572  20.2790  20.2790  20.2790  20.2791
    22.6135  22.6135

          k = 0.2770 0.2770 0.2770 ( 12109 PWs)   bands (ev):

   -69.2597 -69.2261 -69.2261 -69.2261 -69.2085 -69.2085 -69.2084 -69.1981
   -69.1866 -69.1839 -69.1839 -69.1838 -69.1738 -69.1738 -69.1737 -69.1475
   -35.4572 -35.4572 -35.4572 -35.4187 -35.4187 -35.4187 -35.4073 -35.4073
   -35.4073 -35.4054 -35.3797 -35.3797 -35.3519 -35.3519 -35.3106 -35.3105
   -35.3105 -35.2939 -35.2939 -35.2939 -35.2725 -35.2625 -35.2625 -35.2624
   -35.1800 -35.1800 -35.1799 -35.1788 -35.1787 -35.1787 -35.1787 -35.1723
   -35.1723 -35.1481 -35.1481 -35.1481 -35.1184 -35.1059 -35.1058 -35.1058
   -35.0867 -35.0867 -35.0867 -35.0730 -35.0730 -35.0730 -35.0683 -35.0683
    11.3326  13.1513  13.1513  13.1513  13.9382  13.9382  13.9382  14.3063
    14.3063  14.4198  14.4198  14.4198  14.7715  14.7716  14.7716  14.9940
    14.9940  14.9940  15.0138  15.3748  15.3748  15.3813  15.5216  15.5216
    15.5216  15.6982  15.6982  15.6982  15.7067  15.7067  15.9265  15.9265
    15.9265  16.1444  16.1444  16.1444  16.1765  16.1765  16.1765  16.2488
    16.2488  16.5080  16.5080  16.5080  16.5661  16.5661  16.5661  17.3005
    17.3160  17.3161  17.3161  17.5066  17.6562  17.6562  17.6846  17.6846
    17.6846  17.7185  17.7186  17.7186  17.7677  17.7677  17.7677  17.8823
    17.8823  17.8823  17.9033  17.9033  17.9995  17.9995  17.9995  18.0223
    18.0223  18.3467  18.3467  18.3467  18.6875  18.6875  18.6876  18.7597
    18.7597  18.7597  18.7767  18.7767  19.6300  19.6300  19.6300  21.8956
    22.0321  22.0321

          k = 0.2770 0.2770 0.3878 ( 12117 PWs)   bands (ev):

   -69.2535 -69.2363 -69.2228 -69.2227 -69.2137 -69.2136 -69.2063 -69.2010
   -69.1855 -69.1841 -69.1805 -69.1804 -69.1755 -69.1754 -69.1653 -69.1520
   -35.4471 -35.4470 -35.4381 -35.4191 -35.4191 -35.4153 -35.4088 -35.4081
   -35.3936 -35.3936 -35.3933 -35.3846 -35.3643 -35.3371 -35.3371 -35.3310
   -35.3205 -35.2956 -35.2956 -35.2844 -35.2780 -35.2780 -35.2775 -35.2490
   -35.2096 -35.2018 -35.1813 -35.1782 -35.1680 -35.1680 -35.1575 -35.1575
   -35.1521 -35.1521 -35.1408 -35.1230 -35.1207 -35.1207 -35.1108 -35.1044
   -35.0906 -35.0823 -35.0811 -35.0811 -35.0764 -35.0735 -35.0735 -35.0670
    11.6815  12.6233  13.3792  13.3792  13.8057  13.8057  14.2351  14.4336
    14.4626  14.5517  14.5517  14.6375  14.7452  14.7780  14.7780  14.7852
    14.9934  15.0009  15.1524  15.1524  15.3941  15.4764  15.5297  15.5731
    15.6038  15.6038  15.6076  15.7315  15.7315  15.8186  15.8186  15.8413
    15.9447  15.9447  16.0352  16.0551  16.0551  16.0885  16.0962  16.1553
    16.1935  16.2155  16.2662  16.2662  16.2768  16.2768  16.6576  17.1850
    17.3914  17.4507  17.4507  17.5142  17.5776  17.6816  17.6817  17.7002
    17.7002  17.7342  17.7342  17.7347  17.7912  17.8010  17.8670  17.8890
    17.8994  17.8997  17.9007  17.9007  17.9620  17.9820  17.9905  17.9905
    18.0351  18.1216  18.4894  18.5160  18.6282  18.6282  18.7098  18.7099
    18.7881  18.7881  18.7931  18.8462  19.2761  19.2761  20.1634  21.2942
    22.3727  22.3727

          k = 0.2770 0.2770-0.4986 ( 12112 PWs)   bands (ev):

   -69.2457 -69.2454 -69.2187 -69.2186 -69.2184 -69.2183 -69.2039 -69.2036
   -69.1848 -69.1845 -69.1778 -69.1778 -69.1775 -69.1774 -69.1582 -69.1579
   -35.4334 -35.4334 -35.4334 -35.4334 -35.4137 -35.4134 -35.4121 -35.4120
   -35.4034 -35.4033 -35.3657 -35.3657 -35.3657 -35.3656 -35.3443 -35.3440
   -35.3079 -35.3077 -35.2898 -35.2898 -35.2897 -35.2896 -35.2432 -35.2431
   -35.2253 -35.2252 -35.1812 -35.1810 -35.1587 -35.1587 -35.1586 -35.1585
   -35.1380 -35.1380 -35.1380 -35.1380 -35.1134 -35.1132 -35.1061 -35.1060
   -35.1008 -35.1005 -35.0764 -35.0764 -35.0764 -35.0764 -35.0697 -35.0696
    12.1206  12.1207  13.6131  13.6131  13.6131  13.6131  14.5955  14.5956
    14.5974  14.5975  14.6240  14.6241  14.6792  14.6792  14.6792  14.6792
    14.8639  14.8640  15.4308  15.4309  15.4423  15.4423  15.4424  15.4425
    15.4883  15.4885  15.7102  15.7102  15.7102  15.7103  15.8899  15.8900
    15.9734  15.9734  16.0730  16.0730  16.0730  16.0731  16.0799  16.0800
    16.0800  16.0801  16.1008  16.1009  16.1226  16.1228  16.8918  16.8919
    17.4849  17.4849  17.5871  17.5871  17.5872  17.5872  17.7056  17.7056
    17.7056  17.7057  17.7430  17.7430  17.8275  17.8277  17.8316  17.8318
    17.8950  17.8952  17.9054  17.9056  17.9488  17.9488  17.9489  17.9489
    18.2348  18.2351  18.2744  18.2745  18.7596  18.7597  18.7597  18.7597
    18.8494  18.8495  18.9450  18.9451  18.9451  18.9451  20.7200  20.7200
    22.6714  22.6714

          k = 0.2770 0.3878 0.3878 ( 12096 PWs)   bands (ev):

   -69.2477 -69.2321 -69.2320 -69.2204 -69.2196 -69.2112 -69.2112 -69.2046
   -69.1836 -69.1812 -69.1811 -69.1768 -69.1754 -69.1678 -69.1678 -69.1560
   -35.4393 -35.4295 -35.4295 -35.4179 -35.4163 -35.4163 -35.4051 -35.3977
   -35.3967 -35.3967 -35.3882 -35.3661 -35.3612 -35.3553 -35.3383 -35.3217
   -35.3216 -35.3074 -35.3059 -35.3059 -35.3007 -35.3007 -35.2978 -35.2399
   -35.2250 -35.1790 -35.1789 -35.1677 -35.1677 -35.1665 -35.1537 -35.1507
   -35.1405 -35.1381 -35.1298 -35.1274 -35.1274 -35.1137 -35.1136 -35.1085
   -35.0897 -35.0894 -35.0894 -35.0841 -35.0741 -35.0740 -35.0717 -35.0693
    12.0169  12.9020  12.9020  13.5382  13.6319  14.1076  14.1076  14.5426
    14.6263  14.6494  14.7539  14.7539  14.7734  14.7734  14.8178  14.9757
    14.9955  14.9955  15.0723  15.1060  15.4444  15.4752  15.5455  15.5470
    15.5470  15.5704  15.5725  15.5725  15.6719  15.7168  15.7578  15.8759
    15.8759  15.8994  15.8994  15.9334  15.9496  15.9793  15.9793  16.0227
    16.0227  16.0532  16.0811  16.1027  16.1163  16.3774  16.3774  16.8648
    17.5054  17.5054  17.5386  17.6119  17.6889  17.7244  17.7325  17.7325
    17.7429  17.7561  17.8246  17.8246  17.8304  17.8327  17.8391  17.8875
    17.8875  17.8915  17.8972  17.8972  17.9392  17.9392  17.9636  18.0041
    18.1756  18.3005  18.3006  18.4100  18.5317  18.5317  18.5958  18.7942
    18.7943  18.8134  18.8357  18.9264  18.9807  19.7442  19.7442  20.7499
    22.7879  23.4114

          k = 0.2770 0.3878-0.4986 ( 12112 PWs)   bands (ev):

   -69.2406 -69.2404 -69.2268 -69.2265 -69.2158 -69.2155 -69.2082 -69.2080
   -69.1823 -69.1820 -69.1788 -69.1785 -69.1714 -69.1710 -69.1615 -69.1612
   -35.4280 -35.4280 -35.4217 -35.4216 -35.4087 -35.4086 -35.4084 -35.4081
   -35.4008 -35.4007 -35.3760 -35.3759 -35.3445 -35.3442 -35.3362 -35.3362
   -35.3227 -35.3226 -35.3134 -35.3132 -35.3093 -35.3092 -35.2728 -35.2728
   -35.2016 -35.2016 -35.1666 -35.1665 -35.1586 -35.1585 -35.1574 -35.1574
   -35.1371 -35.1369 -35.1260 -35.1259 -35.1096 -35.1095 -35.1093 -35.1091
   -35.1063 -35.1060 -35.0871 -35.0871 -35.0724 -35.0724 -35.0705 -35.0705
    12.4340  12.4340  13.2226  13.2226  13.8959  13.8959  14.4672  14.4673
    14.6560  14.6560  14.7174  14.7174  14.8169  14.8170  14.9091  14.9092
    14.9989  14.9990  15.2749  15.2750  15.3359  15.3361  15.4437  15.4437
    15.4901  15.4902  15.6305  15.6306  15.7208  15.7209  15.7715  15.7715
    15.8074  15.8075  15.8816  15.8818  15.9255  15.9256  15.9675  15.9675
    16.0185  16.0186  16.0541  16.0542  16.1349  16.1349  16.5833  16.5834
    17.5697  17.5697  17.6158  17.6159  17.6402  17.6403  17.7800  17.7802
    17.7925  17.7927  17.8415  17.8416  17.8493  17.8494  17.8505  17.8506
    17.8941  17.8943  17.9301  17.9302  17.9414  17.9415  18.0163  18.0163
    18.1772  18.1774  18.3189  18.3191  18.5484  18.5485  18.6056  18.6056
    18.8254  18.8254  18.8271  18.8271  19.3543  19.3543  20.2370  20.2371
    23.1837  23.1837

          k = 0.2770-0.4986-0.4986 ( 12124 PWs)   bands (ev):

   -69.2344 -69.2342 -69.2342 -69.2338 -69.2124 -69.2121 -69.2121 -69.2118
   -69.1805 -69.1802 -69.1802 -69.1798 -69.1660 -69.1658 -69.1658 -69.1654
   -35.4188 -35.4187 -35.4187 -35.4187 -35.4114 -35.4113 -35.4113 -35.4111
   -35.3882 -35.3881 -35.3881 -35.3880 -35.3327 -35.3325 -35.3325 -35.3323
   -35.3228 -35.3228 -35.3228 -35.3228 -35.3047 -35.3047 -35.3047 -35.3047
   -35.1789 -35.1788 -35.1788 -35.1788 -35.1602 -35.1601 -35.1601 -35.1601
   -35.1193 -35.1191 -35.1191 -35.1189 -35.1161 -35.1160 -35.1160 -35.1160
   -35.0995 -35.0994 -35.0994 -35.0993 -35.0707 -35.0707 -35.0706 -35.0706
    12.8139  12.8139  12.8139  12.8139  14.2083  14.2084  14.2084  14.2084
    14.7012  14.7013  14.7013  14.7013  15.0494  15.0494  15.0494  15.0496
    15.1015  15.1015  15.1015  15.1015  15.2681  15.2681  15.2681  15.2682
    15.5562  15.5563  15.5563  15.5563  15.7345  15.7346  15.7346  15.7348
    15.8225  15.8225  15.8225  15.8226  15.8541  15.8541  15.8542  15.8542
    16.0141  16.0142  16.0142  16.0143  16.3185  16.3186  16.3186  16.3186
    17.6269  17.6269  17.6269  17.6270  17.7105  17.7106  17.7106  17.7108
    17.7856  17.7857  17.7857  17.7859  17.9109  17.9110  17.9110  17.9112
    17.9360  17.9361  17.9361  17.9362  18.0144  18.0146  18.0146  18.0147
    18.3017  18.3017  18.3017  18.3018  18.3947  18.3948  18.3948  18.3949
    18.8405  18.8405  18.8405  18.8405  19.7859  19.7860  19.7860  19.7861
    23.7072  23.7073

          k = 0.3878 0.3878 0.3878 ( 12118 PWs)   bands (ev):

   -69.2424 -69.2281 -69.2281 -69.2281 -69.2174 -69.2174 -69.2173 -69.2093
   -69.1808 -69.1767 -69.1767 -69.1766 -69.1701 -69.1701 -69.1700 -69.1596
   -35.4210 -35.4210 -35.4210 -35.4112 -35.4112 -35.4111 -35.3960 -35.3815
   -35.3815 -35.3749 -35.3749 -35.3749 -35.3697 -35.3697 -35.3355 -35.3355
   -35.3355 -35.3277 -35.3277 -35.3277 -35.3226 -35.3226 -35.3225 -35.2674
   -35.2019 -35.1594 -35.1593 -35.1593 -35.1473 -35.1473 -35.1472 -35.1368
   -35.1368 -35.1273 -35.1273 -35.1273 -35.1262 -35.1261 -35.1261 -35.1111
   -35.0886 -35.0885 -35.0885 -35.0841 -35.0841 -35.0813 -35.0813 -35.0812
    12.3443  13.1919  13.1919  13.1919  13.8497  13.8497  13.8497  14.5896
    14.7191  14.7191  14.8795  14.8795  14.8795  14.9662  14.9662  14.9662
    15.0077  15.0077  15.0077  15.2138  15.4911  15.4911  15.5095  15.5095
    15.5584  15.5585  15.5585  15.6132  15.6132  15.6132  15.7086  15.7086
    15.7086  15.8126  15.8126  15.8126  15.8458  15.8458  15.8458  15.8787
    15.8787  15.8788  15.9847  15.9847  16.1018  16.1018  16.1018  16.5433
    17.5843  17.5843  17.5843  17.6850  17.6850  17.7279  17.7279  17.7279
    17.8349  17.8349  17.8402  17.8403  17.8403  17.8646  17.8646  17.8646
    17.9173  17.9173  17.9174  18.0245  18.0429  18.0429  18.0429  18.1445
    18.1445  18.5577  18.5577  18.5745  18.5745  18.5745  18.6259  18.6260
    18.6260  18.6483  18.6483  18.6484  19.3415  19.3415  19.3415  20.2485
    24.0358  24.0358

          k = 0.3878 0.3878-0.4986 ( 12090 PWs)   bands (ev):

   -69.2360 -69.2357 -69.2233 -69.2232 -69.2230 -69.2229 -69.2137 -69.2134
   -69.1786 -69.1783 -69.1731 -69.1731 -69.1729 -69.1728 -69.1644 -69.1641
   -35.4128 -35.4128 -35.4127 -35.4127 -35.3986 -35.3985 -35.3974 -35.3972
   -35.3854 -35.3853 -35.3605 -35.3602 -35.3513 -35.3513 -35.3513 -35.3512
   -35.3470 -35.3468 -35.3360 -35.3360 -35.3359 -35.3359 -35.2974 -35.2974
   -35.1798 -35.1798 -35.1426 -35.1425 -35.1415 -35.1415 -35.1415 -35.1415
   -35.1331 -35.1331 -35.1330 -35.1330 -35.1170 -35.1169 -35.1105 -35.1102
   -35.1039 -35.1036 -35.0865 -35.0865 -35.0865 -35.0865 -35.0815 -35.0814
    12.7475  12.7475  13.5259  13.5259  13.5259  13.5259  14.2216  14.2216
    14.8348  14.8348  14.8976  14.8977  14.9498  14.9498  14.9498  14.9498
    15.1397  15.1399  15.2701  15.2701  15.2702  15.2702  15.4942  15.4943
    15.5385  15.5385  15.5501  15.5502  15.6247  15.6247  15.7043  15.7043
    15.7043  15.7043  15.8162  15.8162  15.8164  15.8164  15.8686  15.8686
    15.8686  15.8687  15.8987  15.8988  15.9028  15.9029  16.2709  16.2710
    17.6362  17.6363  17.6690  17.6690  17.6691  17.6691  17.7709  17.7711
    17.7790  17.7792  17.8388  17.8389  17.8405  17.8405  17.8407  17.8407
    18.0166  18.0166  18.0167  18.0167  18.0563  18.0564  18.2912  18.2914
    18.3137  18.3137  18.3368  18.3369  18.5892  18.5892  18.5892  18.5893
    18.6374  18.6376  18.9740  18.9740  18.9741  18.9741  19.7837  19.7837
    24.3581  24.3582

          k = 0.3878-0.4986-0.4986 ( 12108 PWs)   bands (ev):

   -69.2302 -69.2300 -69.2300 -69.2296 -69.2190 -69.2187 -69.2187 -69.2184
   -69.1756 -69.1754 -69.1754 -69.1750 -69.1684 -69.1681 -69.1681 -69.1678
   -35.4012 -35.4012 -35.4012 -35.4012 -35.3977 -35.3975 -35.3975 -35.3974
   -35.3684 -35.3683 -35.3683 -35.3682 -35.3567 -35.3565 -35.3565 -35.3563
   -35.3526 -35.3526 -35.3525 -35.3525 -35.3245 -35.3244 -35.3244 -35.3244
   -35.1597 -35.1596 -35.1596 -35.1596 -35.1319 -35.1319 -35.1319 -35.1319
   -35.1278 -35.1277 -35.1277 -35.1277 -35.1132 -35.1130 -35.1130 -35.1128
   -35.1027 -35.1026 -35.1026 -35.1024 -35.0866 -35.0865 -35.0865 -35.0865
    13.1254  13.1254  13.1254  13.1254  13.8801  13.8801  13.8801  13.8801
    14.9165  14.9165  14.9165  14.9166  15.0964  15.0965  15.0965  15.0966
    15.2104  15.2105  15.2105  15.2106  15.2545  15.2546  15.2546  15.2546
    15.6302  15.6302  15.6302  15.6302  15.6443  15.6443  15.6443  15.6444
    15.6649  15.6650  15.6650  15.6652  15.7858  15.7858  15.7858  15.7858
    15.8371  15.8372  15.8372  15.8373  16.0085  16.0086  16.0086  16.0086
    17.6843  17.6843  17.6843  17.6844  17.7319  17.7321  17.7321  17.7322
    17.7727  17.7728  17.7728  17.7730  17.8307  17.8308  17.8308  17.8310
    18.1119  18.1120  18.1120  18.1120  18.2029  18.2030  18.2030  18.2032
    18.3980  18.3980  18.3980  18.3982  18.5857  18.5857  18.5857  18.5857
    18.6330  18.6331  18.6331  18.6331  19.3677  19.3678  19.3678  19.3678
    24.8949  24.8949

          k =-0.4986-0.4986-0.4986 ( 12160 PWs)   bands (ev):

   -69.2251 -69.2249 -69.2249 -69.2249 -69.2246 -69.2246 -69.2246 -69.2242
   -69.1718 -69.1716 -69.1716 -69.1716 -69.1713 -69.1713 -69.1713 -69.1709
   -35.3794 -35.3794 -35.3794 -35.3793 -35.3793 -35.3793 -35.3793 -35.3793
   -35.3791 -35.3791 -35.3790 -35.3790 -35.3790 -35.3789 -35.3789 -35.3789
   -35.3465 -35.3464 -35.3464 -35.3464 -35.3464 -35.3464 -35.3464 -35.3463
   -35.1430 -35.1429 -35.1429 -35.1429 -35.1428 -35.1428 -35.1428 -35.1428
   -35.1072 -35.1072 -35.1072 -35.1072 -35.1072 -35.1072 -35.1072 -35.1072
   -35.1069 -35.1069 -35.1069 -35.1069 -35.1069 -35.1067 -35.1067 -35.1067
    13.4973  13.4973  13.4973  13.4973  13.4973  13.4973  13.4973  13.4973
    15.1516  15.1516  15.1516  15.1516  15.1516  15.1517  15.1517  15.1517
    15.1517  15.1517  15.1517  15.1517  15.1517  15.1517  15.1518  15.1518
    15.7087  15.7087  15.7087  15.7087  15.7087  15.7087  15.7087  15.7087
    15.7089  15.7089  15.7089  15.7089  15.7089  15.7090  15.7090  15.7090
    15.7374  15.7375  15.7375  15.7375  15.7376  15.7376  15.7376  15.7376
    17.7542  17.7542  17.7542  17.7542  17.7542  17.7544  17.7544  17.7544
    17.7544  17.7544  17.7544  17.7545  17.7545  17.7545  17.7546  17.7546
    18.3334  18.3334  18.3334  18.3334  18.3334  18.3334  18.3335  18.3335
    18.3336  18.3336  18.3337  18.3337  18.3337  18.3338  18.3338  18.3338
    18.9890  18.9890  18.9890  18.9890  18.9891  18.9891  18.9891  18.9892
    26.0442  26.0442

 ------ SPIN DOWN ----------


          k = 0.0554 0.0554 0.0554 ( 12098 PWs)   bands (ev):

   -66.7799 -66.6999 -66.6999 -66.6999 -66.6871 -66.6870 -66.6870 -66.6859
   -66.6858 -66.6858 -66.6856 -66.6856 -66.6856 -66.6804 -66.6798 -66.6182
   -33.0842 -33.0842 -33.0842 -33.0817 -33.0817 -33.0817 -32.9443 -32.9443
   -32.9391 -32.8765 -32.8743 -32.8743 -32.8743 -32.8555 -32.8555 -32.8439
   -32.8439 -32.8439 -32.8127 -32.8127 -32.7916 -32.7789 -32.7789 -32.7789
   -32.7690 -32.7690 -32.7690 -32.7579 -32.7579 -32.7579 -32.7551 -32.7551
   -32.7551 -32.7481 -32.7481 -32.7481 -32.7386 -32.7385 -32.7385 -32.5996
   -32.5968 -32.5968 -32.5968 -32.5944 -32.5944 -32.5944 -32.5939 -32.5939
    10.3501  14.2688  14.2688  14.2688  14.9071  14.9071  14.9071  14.9394
    14.9394  14.9394  14.9795  14.9795  14.9795  15.6218  15.6218  16.6649
    16.7397  16.7397  16.8374  16.8374  16.8525  16.9351  16.9351  16.9351
    16.9479  16.9479  16.9479  17.6831  17.6831  17.6831  18.0615  18.0615
    18.0616  18.2432  18.2432  18.2891  18.5052  18.5052  18.5052  18.6517
    18.6517  18.6517  18.6861  18.6861  18.6861  18.7912  18.7912  18.7912
    19.1848  19.1848  19.1848  19.2270  19.2270  19.2270  19.5617  19.5617
    19.5617  19.8044  19.8044  19.8044  20.2786  20.2786  20.2786  20.3029
    20.3029  20.3029  20.4716  20.4716  20.7452  20.7452  20.7452  20.7898
    20.7898  20.7907  20.7907  20.8831  20.8831  20.8831  20.9589  21.0399
    21.0399  21.2989  21.2989  21.2989  21.3998  21.3998  21.3998  21.4453
    21.4453  21.4453

          k = 0.0554 0.0554 0.1662 ( 12104 PWs)   bands (ev):

   -66.7768 -66.7142 -66.6993 -66.6992 -66.6887 -66.6887 -66.6868 -66.6856
   -66.6856 -66.6854 -66.6849 -66.6849 -66.6809 -66.6801 -66.6722 -66.6203
   -33.0775 -33.0775 -33.0765 -33.0742 -33.0703 -33.0703 -32.9473 -32.9386
   -32.9304 -32.9081 -32.9010 -32.9010 -32.8991 -32.8974 -32.8719 -32.8719
   -32.8418 -32.8184 -32.8095 -32.8089 -32.7989 -32.7785 -32.7785 -32.7714
   -32.7634 -32.7612 -32.7612 -32.7601 -32.7593 -32.7530 -32.7530 -32.7483
   -32.7483 -32.7445 -32.7445 -32.7181 -32.7151 -32.7151 -32.7094 -32.6112
   -32.6051 -32.6051 -32.6039 -32.6017 -32.5984 -32.5971 -32.5971 -32.5957
    10.4815  13.5678  14.3386  14.3386  14.9117  14.9117  14.9638  14.9638
    15.0359  15.0359  15.0360  15.0746  15.4162  15.6695  15.6879  16.5716
    16.6489  16.6910  16.7642  16.9111  16.9225  16.9614  16.9840  16.9840
    16.9889  17.0221  17.0221  17.2871  17.5858  17.5858  17.8819  17.8819
    18.2170  18.2370  18.2773  18.3033  18.3033  18.3500  18.3684  18.4731
    18.4731  18.7231  18.8366  18.8366  18.8967  18.8967  18.9059  18.9059
    18.9112  18.9228  18.9372  18.9490  18.9490  19.0113  19.3244  19.7799
    19.7799  20.0178  20.0178  20.0455  20.2000  20.2000  20.2679  20.2679
    20.3041  20.3252  20.3945  20.5027  20.7480  20.7509  20.7533  20.7780
    20.7864  20.7884  20.8101  20.8322  20.8322  20.8932  21.0333  21.1063
    21.1176  21.1176  21.2980  21.2980  21.3138  21.3138  21.4869  21.4869
    21.6206  21.6206

          k = 0.0554 0.0554 0.2770 ( 12128 PWs)   bands (ev):

   -66.7712 -66.7283 -66.6981 -66.6981 -66.6906 -66.6906 -66.6860 -66.6853
   -66.6853 -66.6847 -66.6846 -66.6846 -66.6816 -66.6808 -66.6597 -66.6244
   -33.0624 -33.0624 -33.0613 -33.0597 -33.0500 -33.0500 -32.9476 -32.9438
   -32.9384 -32.9370 -32.9370 -32.9277 -32.9183 -32.9173 -32.9099 -32.9099
   -32.8392 -32.8291 -32.8280 -32.8141 -32.7770 -32.7770 -32.7726 -32.7720
   -32.7685 -32.7648 -32.7648 -32.7515 -32.7515 -32.7485 -32.7485 -32.7316
   -32.7245 -32.7141 -32.7141 -32.6899 -32.6865 -32.6865 -32.6819 -32.6325
   -32.6181 -32.6181 -32.6171 -32.6159 -32.6079 -32.6052 -32.6052 -32.6036
    10.7410  12.8641  14.4626  14.4626  14.8835  14.8835  15.0552  15.0552
    15.1013  15.1013  15.2216  15.2572  15.7482  15.7530  15.8188  16.3961
    16.4166  16.6839  16.7101  16.8676  16.8770  16.9085  17.0926  17.0926
    17.1560  17.1560  17.1664  17.1971  17.4921  17.4921  17.7276  17.7276
    18.0265  18.0265  18.1781  18.1781  18.1974  18.2268  18.2699  18.2737
    18.3907  18.3907  18.4398  18.4582  18.4582  18.5366  18.5438  19.0472
    19.0999  19.1796  19.1892  19.1892  19.2039  19.2039  19.2862  20.0725
    20.0725  20.0750  20.0750  20.1688  20.1688  20.2426  20.2775  20.3034
    20.3034  20.3544  20.3714  20.5066  20.5607  20.6328  20.6823  20.6867
    20.7534  20.7769  20.7805  20.7838  20.9464  20.9464  20.9627  20.9642
    21.1600  21.1600  21.2092  21.2092  21.2934  21.2934  21.6096  21.6097
    21.6664  21.6664

          k = 0.0554 0.0554 0.3878 ( 12113 PWs)   bands (ev):

   -66.7632 -66.7414 -66.6966 -66.6966 -66.6926 -66.6926 -66.6851 -66.6850
   -66.6849 -66.6844 -66.6844 -66.6837 -66.6826 -66.6816 -66.6483 -66.6305
   -33.0389 -33.0388 -33.0388 -33.0383 -33.0219 -33.0219 -32.9789 -32.9765
   -32.9742 -32.9742 -32.9499 -32.9499 -32.9456 -32.9320 -32.9115 -32.9006
   -32.8665 -32.8551 -32.8146 -32.8040 -32.7851 -32.7796 -32.7746 -32.7746
   -32.7683 -32.7683 -32.7503 -32.7503 -32.7490 -32.7490 -32.7333 -32.6951
   -32.6914 -32.6845 -32.6845 -32.6640 -32.6608 -32.6597 -32.6597 -32.6567
   -32.6368 -32.6364 -32.6356 -32.6356 -32.6223 -32.6183 -32.6183 -32.6167
    11.1222  12.2024  14.6097  14.6098  14.8335  14.8336  15.1402  15.1402
    15.1580  15.1580  15.4808  15.5111  15.8474  15.9004  16.0113  16.1150
    16.1221  16.5633  16.7093  16.7194  16.8124  16.8198  17.2566  17.2567
    17.3437  17.3437  17.4332  17.4626  17.4913  17.4913  17.6518  17.6518
    17.7733  17.7733  17.8803  17.8803  17.9750  17.9750  18.0615  18.0615
    18.1298  18.1491  18.1869  18.2169  18.2185  18.2364  18.5610  18.8944
    19.4072  19.4462  19.4462  19.4887  19.5074  19.5074  19.6045  19.9004
[...]
   -32.6294 -32.6293 -32.6293 -32.6145 -32.6145 -32.6145 -32.6090 -32.6090
    11.4898  13.4466  13.4467  13.4467  14.6839  14.6839  14.6839  15.7534
    15.7534  15.7534  16.0557  16.0557  16.0557  16.0940  16.0951  16.0951
    16.3613  16.8016  16.8016  16.8489  16.8489  16.8489  17.0443  17.0443
    17.0626  17.0626  17.0626  17.2499  17.2499  17.2499  17.6476  17.6476
    17.6476  17.6850  17.6850  17.6850  17.7070  17.7070  17.7070  17.7142
    17.7143  17.7143  17.9313  17.9313  18.1580  18.1580  18.1580  19.0799
    19.1903  19.6185  19.6185  19.6185  19.7063  19.7063  19.7063  19.9745
    19.9745  19.9745  20.0474  20.0474  20.0475  20.2862  20.2862  20.2862
    20.3626  20.3626  20.5744  20.5744  20.6492  20.6492  20.6748  20.6748
    20.6748  20.7026  20.7026  20.7026  20.7112  20.7112  20.8572  20.8572
    20.8572  20.9159  20.9159  20.9159  21.3580  21.3580  21.3580  23.3294
    23.4532  23.4532

          k = 0.2770 0.2770 0.3878 ( 12117 PWs)   bands (ev):

   -66.7496 -66.7311 -66.7164 -66.7164 -66.7065 -66.7065 -66.6985 -66.6927
   -66.6760 -66.6745 -66.6706 -66.6706 -66.6652 -66.6652 -66.6543 -66.6399
   -33.0267 -33.0267 -33.0169 -32.9956 -32.9956 -32.9921 -32.9847 -32.9831
   -32.9683 -32.9683 -32.9662 -32.9579 -32.9340 -32.9060 -32.9060 -32.8986
   -32.8858 -32.8586 -32.8586 -32.8466 -32.8403 -32.8392 -32.8392 -32.8071
   -32.7652 -32.7553 -32.7331 -32.7302 -32.7182 -32.7182 -32.7068 -32.7068
   -32.7009 -32.7009 -32.6891 -32.6690 -32.6665 -32.6665 -32.6556 -32.6487
   -32.6339 -32.6243 -32.6232 -32.6232 -32.6181 -32.6150 -32.6150 -32.6075
    11.8480  12.8477  13.7176  13.7176  14.3723  14.3723  14.9844  15.7427
    15.9327  15.9327  15.9707  16.1277  16.1277  16.2073  16.2388  16.2461
    16.3427  16.6277  16.8525  16.8886  16.8886  16.9293  16.9537  16.9940
    17.1005  17.1627  17.1628  17.1962  17.3020  17.3020  17.4178  17.4720
    17.4720  17.5104  17.5104  17.5347  17.5879  17.5879  17.6041  17.6041
    17.7003  17.7305  17.8168  17.8737  17.9025  17.9026  18.2879  18.8249
    19.3042  19.7165  19.7165  19.7977  19.8397  19.8749  19.8749  19.8873
    19.8874  19.8897  20.1330  20.2137  20.2137  20.2333  20.3450  20.3450
    20.3627  20.4163  20.4459  20.4647  20.5566  20.5967  20.6588  20.6588
    20.6629  20.6747  20.7093  20.7576  20.7576  20.7581  20.7806  20.8034
    20.8287  20.8287  20.8966  20.8966  21.0607  21.0607  21.8189  22.8140
    23.7486  23.7486

          k = 0.2770 0.2770-0.4986 ( 12112 PWs)   bands (ev):

   -66.7411 -66.7410 -66.7119 -66.7118 -66.7117 -66.7117 -66.6958 -66.6957
   -66.6751 -66.6750 -66.6677 -66.6676 -66.6675 -66.6675 -66.6465 -66.6463
   -33.0115 -33.0115 -33.0114 -33.0114 -32.9899 -32.9897 -32.9884 -32.9883
   -32.9776 -32.9776 -32.9375 -32.9375 -32.9375 -32.9374 -32.9119 -32.9117
   -32.8727 -32.8726 -32.8522 -32.8522 -32.8521 -32.8521 -32.8024 -32.8023
   -32.7811 -32.7811 -32.7332 -32.7331 -32.7081 -32.7081 -32.7080 -32.7080
   -32.6855 -32.6854 -32.6854 -32.6854 -32.6590 -32.6588 -32.6505 -32.6504
   -32.6445 -32.6444 -32.6181 -32.6181 -32.6181 -32.6181 -32.6106 -32.6105
    12.3065  12.3066  14.0380  14.0380  14.0381  14.0381  15.3499  15.3500
    16.0764  16.0764  16.0764  16.0764  16.1952  16.1953  16.2800  16.2801
    16.4197  16.4198  16.9201  16.9203  16.9794  16.9795  17.0671  17.0672
    17.0672  17.0672  17.1484  17.1484  17.3020  17.3021  17.3021  17.3021
    17.3652  17.3652  17.5558  17.5559  17.5560  17.5560  17.6715  17.6715
    17.6715  17.6715  17.7362  17.7363  17.8057  17.8059  18.5117  18.5118
    19.5456  19.5456  19.7919  19.7919  19.7920  19.7920  20.0680  20.0680
    20.0681  20.0681  20.0716  20.0718  20.1142  20.1144  20.2954  20.2955
    20.4562  20.4563  20.5821  20.5821  20.5943  20.5943  20.5944  20.5944
    20.6539  20.6540  20.6712  20.6713  20.8215  20.8216  20.8356  20.8356
    20.8356  20.8356  20.8497  20.8497  20.8497  20.8498  22.3108  22.3109
    23.9814  23.9814

          k = 0.2770 0.3878 0.3878 ( 12096 PWs)   bands (ev):

   -66.7434 -66.7264 -66.7264 -66.7138 -66.7129 -66.7038 -66.7038 -66.6966
   -66.6739 -66.6713 -66.6713 -66.6666 -66.6652 -66.6569 -66.6569 -66.6442
   -33.0179 -33.0073 -33.0073 -32.9943 -32.9922 -32.9922 -32.9807 -32.9716
   -32.9716 -32.9712 -32.9617 -32.9380 -32.9307 -32.9260 -32.9065 -32.8872
   -32.8872 -32.8718 -32.8716 -32.8716 -32.8645 -32.8645 -32.8610 -32.7987
   -32.7808 -32.7303 -32.7303 -32.7182 -32.7182 -32.7173 -32.7029 -32.6993
   -32.6881 -32.6855 -32.6770 -32.6738 -32.6738 -32.6587 -32.6587 -32.6530
   -32.6325 -32.6324 -32.6324 -32.6265 -32.6155 -32.6154 -32.6129 -32.6102
    12.1948  13.1529  13.1529  13.9471  13.9974  14.6719  14.6719  15.4123
    16.1343  16.1470  16.1470  16.2764  16.3180  16.3297  16.3297  16.3717
    16.4225  16.7145  16.7145  16.8413  16.9304  16.9468  16.9607  17.0863
    17.0863  17.1187  17.1187  17.1770  17.1829  17.2441  17.3393  17.3393
    17.3544  17.3954  17.3954  17.4406  17.5262  17.5262  17.5293  17.5524
    17.6349  17.6350  17.6827  17.7016  17.7806  17.9805  17.9806  18.4620
    19.5548  19.8432  19.8746  19.8746  19.8753  20.0272  20.0312  20.0312
    20.0614  20.0614  20.0972  20.0973  20.2342  20.2607  20.3001  20.3001
    20.3177  20.3791  20.4465  20.5029  20.5628  20.5869  20.6078  20.6409
    20.6570  20.6570  20.6610  20.6610  20.6973  20.7259  20.7292  20.7292
    20.7765  20.8017  20.8017  20.8920  20.8980  21.4668  21.4668  22.3515
    24.1250  24.6130

          k = 0.2770 0.3878-0.4986 ( 12112 PWs)   bands (ev):

   -66.7356 -66.7355 -66.7207 -66.7206 -66.7087 -66.7086 -66.7005 -66.7004
   -66.6724 -66.6723 -66.6687 -66.6686 -66.6607 -66.6605 -66.6500 -66.6499
   -33.0053 -33.0052 -32.9985 -32.9985 -32.9839 -32.9838 -32.9835 -32.9835
   -32.9760 -32.9759 -32.9488 -32.9487 -32.9123 -32.9121 -32.9051 -32.9050
   -32.8891 -32.8890 -32.8782 -32.8780 -32.8740 -32.8739 -32.8350 -32.8350
   -32.7551 -32.7551 -32.7172 -32.7172 -32.7082 -32.7081 -32.7067 -32.7067
   -32.6844 -32.6843 -32.6722 -32.6721 -32.6543 -32.6542 -32.6542 -32.6541
   -32.6506 -32.6504 -32.6299 -32.6298 -32.6137 -32.6137 -32.6115 -32.6115
    12.6364  12.6364  13.5289  13.5290  14.3286  14.3286  15.0330  15.0330
    16.2791  16.2792  16.2821  16.2821  16.3524  16.3525  16.3777  16.3777
    16.5397  16.5398  16.9276  16.9277  16.9399  16.9400  16.9676  16.9677
    17.0050  17.0052  17.1175  17.1176  17.2123  17.2124  17.2759  17.2759
    17.3498  17.3500  17.3659  17.3660  17.4954  17.4954  17.5723  17.5725
    17.5966  17.5966  17.7027  17.7028  17.7217  17.7217  18.1656  18.1656
    19.8215  19.8215  19.8524  19.8525  19.9837  19.9837  20.0892  20.0894
    20.1652  20.1653  20.1707  20.1708  20.1753  20.1753  20.2381  20.2382
    20.4025  20.4026  20.4034  20.4034  20.5341  20.5342  20.6141  20.6141
    20.6177  20.6178  20.6487  20.6488  20.6567  20.6568  20.6969  20.6970
    20.8082  20.8083  20.8587  20.8587  21.1389  21.1389  21.9036  21.9036
    24.4610  24.4610

          k = 0.2770-0.4986-0.4986 ( 12124 PWs)   bands (ev):

   -66.7289 -66.7287 -66.7287 -66.7286 -66.7050 -66.7048 -66.7048 -66.7047
   -66.6704 -66.6702 -66.6702 -66.6701 -66.6549 -66.6547 -66.6547 -66.6546
   -32.9949 -32.9948 -32.9948 -32.9948 -32.9872 -32.9871 -32.9871 -32.9870
   -32.9622 -32.9621 -32.9621 -32.9620 -32.8993 -32.8992 -32.8992 -32.8991
   -32.8891 -32.8890 -32.8890 -32.8890 -32.8703 -32.8702 -32.8702 -32.8702
   -32.7302 -32.7301 -32.7301 -32.7301 -32.7101 -32.7100 -32.7100 -32.7100
   -32.6649 -32.6647 -32.6647 -32.6646 -32.6613 -32.6613 -32.6613 -32.6612
   -32.6435 -32.6434 -32.6434 -32.6433 -32.6118 -32.6117 -32.6117 -32.6117
    13.0515  13.0516  13.0516  13.0516  14.6745  14.6746  14.6746  14.6747
    16.3761  16.3762  16.3762  16.3762  16.4227  16.4227  16.4227  16.4227
    16.7371  16.7372  16.7372  16.7373  16.8738  16.8739  16.8739  16.8740
    17.1138  17.1138  17.1138  17.1138  17.1864  17.1865  17.1865  17.1866
    17.3504  17.3504  17.3504  17.3505  17.4636  17.4636  17.4636  17.4636
    17.6259  17.6261  17.6261  17.6262  17.8880  17.8880  17.8880  17.8880
    19.9666  19.9666  19.9666  19.9667  20.1124  20.1124  20.1124  20.1124
    20.1389  20.1389  20.1389  20.1390  20.2173  20.2174  20.2174  20.2175
    20.2955  20.2956  20.2956  20.2957  20.5297  20.5298  20.5298  20.5299
    20.6200  20.6200  20.6200  20.6200  20.6541  20.6542  20.6542  20.6543
    20.8441  20.8441  20.8441  20.8441  21.5120  21.5121  21.5121  21.5122
    24.9342  24.9342

          k = 0.3878 0.3878 0.3878 ( 12118 PWs)   bands (ev):

   -66.7376 -66.7222 -66.7222 -66.7222 -66.7105 -66.7105 -66.7105 -66.7018
   -66.6709 -66.6665 -66.6665 -66.6665 -66.6593 -66.6593 -66.6593 -66.6480
   -32.9977 -32.9977 -32.9977 -32.9866 -32.9866 -32.9866 -32.9706 -32.9533
   -32.9533 -32.9476 -32.9476 -32.9476 -32.9411 -32.9411 -32.9027 -32.9027
   -32.9027 -32.8955 -32.8955 -32.8955 -32.8886 -32.8886 -32.8886 -32.8291
   -32.7553 -32.7087 -32.7087 -32.7087 -32.6957 -32.6957 -32.6957 -32.6847
   -32.6847 -32.6739 -32.6739 -32.6738 -32.6723 -32.6723 -32.6723 -32.6558
   -32.6315 -32.6315 -32.6315 -32.6264 -32.6264 -32.6233 -32.6233 -32.6233
    12.5336  13.4599  13.4599  13.4599  14.2541  14.2541  14.2541  15.0321
    16.3559  16.3559  16.3559  16.4680  16.4680  16.5142  16.5142  16.5142
    16.5991  16.7125  16.7125  16.7125  16.9995  16.9995  17.0103  17.0103
    17.1359  17.1359  17.1359  17.1669  17.1669  17.1669  17.2570  17.2570
    17.2570  17.3263  17.3263  17.3263  17.4441  17.4441  17.4441  17.4464
    17.4464  17.4464  17.6265  17.6265  17.6716  17.6716  17.6716  18.0900
    19.8277  20.0326  20.0326  20.0326  20.0661  20.0661  20.0661  20.1504
    20.1504  20.1504  20.3234  20.3234  20.3234  20.3682  20.3682  20.4030
    20.4030  20.4030  20.4338  20.4338  20.5099  20.5099  20.5410  20.5410
    20.5937  20.5937  20.5937  20.6351  20.6351  20.6351  20.6859  20.6859
    20.6859  20.6980  20.6980  20.6980  21.1029  21.1029  21.1029  21.9191
    25.2127  25.2127

          k = 0.3878 0.3878-0.4986 ( 12090 PWs)   bands (ev):

   -66.7306 -66.7304 -66.7168 -66.7168 -66.7167 -66.7166 -66.7065 -66.7063
   -66.6684 -66.6682 -66.6626 -66.6625 -66.6624 -66.6624 -66.6531 -66.6530
   -32.9885 -32.9885 -32.9884 -32.9884 -32.9724 -32.9724 -32.9717 -32.9715
   -32.9590 -32.9589 -32.9302 -32.9300 -32.9216 -32.9216 -32.9215 -32.9215
   -32.9158 -32.9157 -32.9034 -32.9034 -32.9033 -32.9033 -32.8622 -32.8621
   -32.7312 -32.7311 -32.6908 -32.6907 -32.6892 -32.6892 -32.6891 -32.6891
   -32.6802 -32.6802 -32.6801 -32.6801 -32.6623 -32.6622 -32.6556 -32.6554
   -32.6480 -32.6478 -32.6292 -32.6292 -32.6292 -32.6291 -32.6235 -32.6235
    12.9624  12.9625  13.8372  13.8372  13.8372  13.8372  14.6282  14.6283
    16.5073  16.5073  16.5073  16.5073  16.5696  16.5696  16.5794  16.5795
    16.5848  16.5849  16.8884  16.8885  16.8885  16.8885  17.0222  17.0223
    17.0765  17.0765  17.0818  17.0820  17.1312  17.1313  17.2855  17.2856
    17.2856  17.2856  17.3702  17.3702  17.3704  17.3704  17.4194  17.4194
    17.4194  17.4194  17.5087  17.5088  17.5388  17.5390  17.8006  17.8006
    20.0792  20.0792  20.0792  20.0793  20.1177  20.1177  20.2511  20.2512
    20.2644  20.2644  20.2645  20.2645  20.2674  20.2675  20.2675  20.2676
    20.4296  20.4297  20.4913  20.4913  20.5392  20.5393  20.5716  20.5717
    20.5726  20.5726  20.5727  20.5727  20.6300  20.6301  20.6638  20.6638
    20.6638  20.6638  20.7698  20.7698  20.7699  20.7699  21.5054  21.5054
    25.5007  25.5007

          k = 0.3878-0.4986-0.4986 ( 12108 PWs)   bands (ev):

   -66.7243 -66.7242 -66.7242 -66.7240 -66.7121 -66.7120 -66.7120 -66.7118
   -66.6652 -66.6651 -66.6651 -66.6649 -66.6574 -66.6573 -66.6573 -66.6571
   -32.9755 -32.9755 -32.9755 -32.9754 -32.9718 -32.9717 -32.9717 -32.9716
   -32.9403 -32.9402 -32.9402 -32.9401 -32.9261 -32.9259 -32.9259 -32.9258
   -32.9219 -32.9219 -32.9219 -32.9219 -32.8920 -32.8919 -32.8919 -32.8918
   -32.7091 -32.7090 -32.7090 -32.7089 -32.6791 -32.6790 -32.6790 -32.6790
   -32.6741 -32.6740 -32.6740 -32.6739 -32.6583 -32.6581 -32.6581 -32.6580
   -32.6470 -32.6469 -32.6469 -32.6468 -32.6292 -32.6292 -32.6292 -32.6291
    13.3709  13.3710  13.3710  13.3710  14.2148  14.2148  14.2148  14.2149
    16.5923  16.5924  16.5924  16.5924  16.7200  16.7200  16.7200  16.7201
    16.7708  16.7709  16.7709  16.7710  16.8421  16.8421  16.8421  16.8422
    17.1770  17.1771  17.1771  17.1771  17.1988  17.1988  17.1988  17.1989
    17.2015  17.2016  17.2016  17.2017  17.3827  17.3827  17.3827  17.3827
    17.4406  17.4407  17.4407  17.4408  17.5147  17.5148  17.5148  17.5148
    20.2097  20.2098  20.2098  20.2099  20.2390  20.2390  20.2390  20.2391
    20.3185  20.3186  20.3186  20.3187  20.3704  20.3705  20.3705  20.3706
    20.4331  20.4331  20.4331  20.4332  20.4905  20.4906  20.4906  20.4906
    20.5329  20.5329  20.5329  20.5330  20.5557  20.5558  20.5558  20.5559
    20.6095  20.6095  20.6095  20.6095  21.1289  21.1290  21.1290  21.1290
    26.0110  26.0110

          k =-0.4986-0.4986-0.4986 ( 12160 PWs)   bands (ev):

   -66.7187 -66.7185 -66.7185 -66.7185 -66.7184 -66.7184 -66.7184 -66.7182
   -66.6611 -66.6609 -66.6609 -66.6609 -66.6608 -66.6608 -66.6608 -66.6606
   -32.9514 -32.9514 -32.9514 -32.9513 -32.9513 -32.9512 -32.9512 -32.9512
   -32.9512 -32.9512 -32.9512 -32.9511 -32.9511 -32.9511 -32.9511 -32.9511
   -32.9162 -32.9162 -32.9162 -32.9162 -32.9161 -32.9161 -32.9161 -32.9160
   -32.6906 -32.6906 -32.6906 -32.6906 -32.6905 -32.6905 -32.6905 -32.6904
   -32.6519 -32.6519 -32.6519 -32.6518 -32.6518 -32.6517 -32.6517 -32.6517
   -32.6517 -32.6517 -32.6517 -32.6516 -32.6516 -32.6515 -32.6515 -32.6515
    13.7679  13.7680  13.7680  13.7680  13.7680  13.7680  13.7680  13.7681
    16.8070  16.8070  16.8071  16.8071  16.8071  16.8071  16.8071  16.8071
    16.8071  16.8071  16.8071  16.8071  16.8071  16.8071  16.8072  16.8072
    17.1861  17.1861  17.1861  17.1861  17.1862  17.1862  17.1862  17.1862
    17.2912  17.2912  17.2912  17.2913  17.2913  17.2913  17.2913  17.2913
    17.2914  17.2914  17.2915  17.2915  17.2915  17.2915  17.2915  17.2915
    20.3991  20.3991  20.3991  20.3992  20.3992  20.3992  20.3992  20.3992
    20.3993  20.3993  20.3993  20.3993  20.3993  20.3994  20.3994  20.3994
    20.4368  20.4368  20.4370  20.4370  20.4370  20.4370  20.4370  20.4370
    20.4370  20.4370  20.4370  20.4370  20.4370  20.4370  20.4372  20.4372
    20.7739  20.7739  20.7739  20.7739  20.7740  20.7740  20.7740  20.7741
    27.0843  27.0843

     the Fermi energy is    18.7696 ev

!    total energy              =   -5268.19193181 Ry
     Harris-Foulkes estimate   =   -5268.19193058 Ry
     estimated scf accuracy    <       0.00000050 Ry

     total all-electron energy =    -40728.936461 Ry

     The total energy is the sum of the following terms:

     one-electron contribution =   -1720.12697094 Ry
     hartree contribution      =    1026.85854446 Ry
     xc contribution           =    -444.17017347 Ry
     ewald contribution        =   -2806.21223348 Ry
     one-center paw contrib.   =   -1324.66920206 Ry
     smearing contrib. (-TS)   =       0.12810368 Ry

     total magnetization       =    33.06 Bohr mag/cell
     absolute magnetization    =    34.87 Bohr mag/cell

     convergence has been achieved in  18 iterations

     negative rho (up, down):  0.000E+00 2.514E-03

     Forces acting on atoms (cartesian axes, Ry/au):

     atom    1 type  1   force =     0.00000000    0.00000000    0.00000000
     atom    2 type  2   force =     0.00000445    0.00000445    0.00000445
     atom    3 type  1   force =     0.00000000    0.00000000    0.00000000
     atom    4 type  2   force =     0.00000445    0.00000445   -0.00000445
     atom    5 type  1   force =     0.00000000    0.00000000    0.00000000
     atom    6 type  2   force =     0.00000445   -0.00000445    0.00000445
     atom    7 type  1   force =     0.00000000    0.00000000    0.00000000
     atom    8 type  2   force =     0.00000445   -0.00000445   -0.00000445
     atom    9 type  1   force =     0.00000000    0.00000000    0.00000000
     atom   10 type  2   force =    -0.00000445    0.00000445    0.00000445
     atom   11 type  1   force =     0.00000000    0.00000000    0.00000000
     atom   12 type  2   force =    -0.00000445    0.00000445   -0.00000445
     atom   13 type  1   force =     0.00000000    0.00000000    0.00000000
     atom   14 type  2   force =    -0.00000445   -0.00000445    0.00000445
     atom   15 type  1   force =     0.00000000   -0.00000000    0.00000000
     atom   16 type  2   force =    -0.00000445   -0.00000445   -0.00000445

     Total force =     0.000022     Total SCF correction =     0.002820
     SCF correction compared to forces is large: reduce conv_thr to get better values


     Computing stress (Cartesian axis) and pressure


     negative rho (up, down):  0.000E+00 2.514E-03
          total   stress  (Ry/bohr**3)                   (kbar)     P=  -20.76
  -0.00014113   0.00000000   0.00000000        -20.76      0.00      0.00
   0.00000000  -0.00014113   0.00000000          0.00    -20.76      0.00
   0.00000000   0.00000000  -0.00014113          0.00      0.00    -20.76


     Writing output data file rSDWAxIljbzGmRkn.save/
 
     init_run     :      7.38s CPU      7.64s WALL (       1 calls)
     electrons    :    460.91s CPU    470.63s WALL (       1 calls)
     forces       :      2.44s CPU      2.56s WALL (       1 calls)
     stress       :     10.06s CPU     10.12s WALL (       1 calls)

     Called by init_run:
     wfcinit      :      6.79s CPU      6.99s WALL (       1 calls)
     potinit      :      0.30s CPU      0.32s WALL (       1 calls)
     hinit0       :      0.12s CPU      0.13s WALL (       1 calls)

     Called by electrons:
     c_bands      :    410.14s CPU    417.71s WALL (      19 calls)
     sum_band     :     44.67s CPU     46.30s WALL (      19 calls)
     v_of_rho     :      0.46s CPU      0.50s WALL (      19 calls)
     newd         :      0.98s CPU      1.20s WALL (      19 calls)
     PAW_pot      :      4.76s CPU      4.98s WALL (      19 calls)
     mix_rho      :      0.12s CPU      0.13s WALL (      19 calls)

     Called by c_bands:
     init_us_2    :      2.89s CPU      2.93s WALL (    2870 calls)
     cegterg      :    394.42s CPU    401.83s WALL (    1330 calls)

     Called by sum_band:
     sum_band:bec :      0.49s CPU      0.50s WALL (    1330 calls)
     addusdens    :      1.72s CPU      1.95s WALL (      19 calls)

     Called by *egterg:
     h_psi        :    174.88s CPU    179.99s WALL (    4504 calls)
     s_psi        :     12.76s CPU     12.81s WALL (    4504 calls)
     g_psi        :      0.61s CPU      0.62s WALL (    3104 calls)
     cdiaghg      :    163.15s CPU    163.59s WALL (    4364 calls)

     Called by h_psi:
     h_psi:pot    :    173.47s CPU    178.56s WALL (    4504 calls)
     h_psi:calbec :     14.99s CPU     16.06s WALL (    4504 calls)
     vloc_psi     :    145.48s CPU    149.44s WALL (    4504 calls)
     add_vuspsi   :     12.97s CPU     13.03s WALL (    4504 calls)

     General routines
     calbec       :     22.83s CPU     24.52s WALL (    6184 calls)
     fft          :      0.36s CPU      0.40s WALL (     517 calls)
     ffts         :      0.03s CPU      0.04s WALL (      76 calls)
     fftw         :    166.13s CPU    170.57s WALL ( 1135188 calls)
     interpolate  :      0.05s CPU      0.05s WALL (      38 calls)
 
     Parallel routines
     fft_scatt_xy :     13.86s CPU     14.24s WALL ( 1135781 calls)
     fft_scatt_yz :     94.58s CPU     97.16s WALL ( 1135781 calls)
 
     PWSCF        :  8m 4.35s CPU     8m22.50s WALL

 
   This run was terminated on:  23:13:39  13Jun2020            

=------------------------------------------------------------------------------=
   JOB DONE.
=------------------------------------------------------------------------------=
