--------------------------------------------------------------------------
WARNING: No preset parameters were found for the device that Open MPI
detected:

  Local host:            bear-pg0206u36b
  Device name:           mlx5_0
  Device vendor ID:      0x02c9
  Device vendor part ID: 4123

Default device parameters will be used, which may result in lower
performance.  You can edit any of the files specified by the
btl_openib_device_param_files MCA parameter to set values for your
device.

NOTE: You can turn off this warning by setting the MCA parameter
      btl_openib_warn_no_device_params_found to 0.
--------------------------------------------------------------------------
--------------------------------------------------------------------------
WARNING: There was an error initializing an OpenFabrics device.

  Local host:   bear-pg0206u36b
  Local device: mlx5_0
--------------------------------------------------------------------------

     Program PWSCF v.6.3 starts on 13Jun2020 at 22:31:48 

     This program is part of the open-source Quantum ESPRESSO suite
     for quantum simulation of materials; please cite
         "P. Giannozzi et al., J. Phys.:Condens. Matter 21 395502 (2009);
         "P. Giannozzi et al., J. Phys.:Condens. Matter 29 465901 (2017);
          URL http://www.quantum-espresso.org", 
     in publications or presentations arising from this work. More details at
     http://www.quantum-espresso.org/quote

     Parallel version (MPI & OpenMP), running on      20 processor cores
     Number of MPI processes:                20
     Threads/MPI process:                     1

     MPI processes distributed on     1 nodes
     R & G space division:  proc/nbgrp/npool/nimage =      20
     Reading input from wd/eos/eos_005.in
Warning: card &IONS ignored
Warning: card ION_DYNAMICS = 'BFGS', ignored
Warning: card / ignored
Warning: card &CELL ignored
Warning: card CELL_DYNAMICS = 'BFGS', ignored
Warning: card CELL_FACTOR = 2.0, ignored
Warning: card PRESS = 0.0, ignored
Warning: card / ignored

     Current dimensions of program PWSCF are:
     Max number of different atomic species (ntypx) = 10
     Max number of k-points (npk) =  40000
     Max angular momentum in pseudopotentials (lmaxx) =  3
               file Fe.pbe-spn-kjpaw_psl.1.0.0.UPF: wavefunction(s)  3P 3D renormalized
               file Fe.pbe-spn-kjpaw_psl.1.0.0.UPF: wavefunction(s)  3P 3D renormalized

     Subspace diagonalization in iterative solution of the eigenvalue problem:
     a serial algorithm will be used

     Found symmetry operation: I + (  0.0000  0.0000 -0.5000)
     This is a supercell, fractional translations are disabled
 
     Parallelization info
     --------------------
     sticks:   dense  smooth     PW     G-vecs:    dense   smooth      PW
     Min         188     124     34                 8708     4668     696
     Max         189     126     35                 8713     4670     699
     Sum        3769    2493    697               174173    93381   13949
 


     bravais-lattice index     =            0
     lattice parameter (alat)  =      10.5935  a.u.
     unit-cell volume          =    1158.5242 (a.u.)^3
     number of atoms/cell      =           16
     number of atomic types    =            2
     number of electrons       =       256.00
     number of Kohn-Sham states=          154
     kinetic-energy cutoff     =      71.0000  Ry
     charge density cutoff     =     430.0000  Ry
     convergence threshold     =      1.0E-06
     mixing beta               =       0.1000
     number of iterations used =           10  plain     mixing
     Exchange-correlation      = SLA PW PBX PBC ( 1  4  3  4 0 0)

     celldm(1)=  10.593520  celldm(2)=   0.000000  celldm(3)=   0.000000
     celldm(4)=   0.000000  celldm(5)=   0.000000  celldm(6)=   0.000000

     crystal axes: (cart. coord. in units of alat)
               a(1) = (   0.991429   0.000000   0.000000 )  
               a(2) = (   0.000000   0.991429   0.000000 )  
               a(3) = (   0.000000   0.000000   0.991429 )  

     reciprocal axes: (cart. coord. in units 2 pi/alat)
               b(1) = (  1.008646  0.000000  0.000000 )  
               b(2) = (  0.000000  1.008646  0.000000 )  
               b(3) = (  0.000000  0.000000  1.008646 )  


     PseudoPot. # 1 for Fe read from file:
     /rds/homes/b/bxp912/pp/Fe.pbe-spn-kjpaw_psl.1.0.0.UPF
     MD5 check sum: 42f43b795421b414b0dc916aa790dbcb
     Pseudo is Projector augmented-wave + core cor, Zval = 16.0
     Generated using "atomic" code by A. Dal Corso v.6.3
     Shape of augmentation charge: PSQ
     Using radial grid of 1191 points,  6 beta functions with: 
                l(1) =   0
                l(2) =   0
                l(3) =   1
                l(4) =   1
                l(5) =   2
                l(6) =   2
     Q(r) pseudized with 0 coefficients 


     PseudoPot. # 2 for Fe read from file:
     /rds/homes/b/bxp912/pp/Fe.pbe-spn-kjpaw_psl.1.0.0.UPF
     MD5 check sum: 42f43b795421b414b0dc916aa790dbcb
     Pseudo is Projector augmented-wave + core cor, Zval = 16.0
     Generated using "atomic" code by A. Dal Corso v.6.3
     Shape of augmentation charge: PSQ
     Using radial grid of 1191 points,  6 beta functions with: 
                l(1) =   0
                l(2) =   0
                l(3) =   1
                l(4) =   1
                l(5) =   2
                l(6) =   2
     Q(r) pseudized with 0 coefficients 


     atomic species   valence    mass     pseudopotential
        Fe1           16.00    55.84500     Fe( 1.00)
        Fe2           16.00    55.84500     Fe( 1.00)

     Starting magnetic structure 
     atomic species   magnetization
        Fe1          0.100
        Fe2          0.100

     48 Sym. Ops., with inversion, found



   Cartesian axes

     site n.     atom                  positions (alat units)
         1           Fe1 tau(   1) = (   0.0000000   0.0000000   0.0000000  )
         2           Fe2 tau(   2) = (   0.2478576   0.2478576   0.2478576  )
         3           Fe1 tau(   3) = (   0.0000000   0.0000000   0.4957143  )
         4           Fe2 tau(   4) = (   0.2478576   0.2478576   0.7435710  )
         5           Fe1 tau(   5) = (   0.0000000   0.4957143   0.0000000  )
         6           Fe2 tau(   6) = (   0.2478576   0.7435710   0.2478576  )
         7           Fe1 tau(   7) = (   0.0000000   0.4957143   0.4957143  )
         8           Fe2 tau(   8) = (   0.2478576   0.7435710   0.7435710  )
         9           Fe1 tau(   9) = (   0.4957143   0.0000000   0.0000000  )
        10           Fe2 tau(  10) = (   0.7435710   0.2478576   0.2478576  )
        11           Fe1 tau(  11) = (   0.4957143   0.0000000   0.4957143  )
        12           Fe2 tau(  12) = (   0.7435710   0.2478576   0.7435710  )
        13           Fe1 tau(  13) = (   0.4957143   0.4957143   0.0000000  )
        14           Fe2 tau(  14) = (   0.7435710   0.7435710   0.2478576  )
        15           Fe1 tau(  15) = (   0.4957143   0.4957143   0.4957143  )
        16           Fe2 tau(  16) = (   0.7435710   0.7435710   0.7435710  )

     number of k points=    35  Marzari-Vanderbilt smearing, width (Ry)=  0.0400
                       cart. coord. in units 2pi/alat
        k(    1) = (   0.0560359   0.0560359   0.0560359), wk =   0.0109739
        k(    2) = (   0.0560359   0.0560359   0.1681076), wk =   0.0329218
        k(    3) = (   0.0560359   0.0560359   0.2801793), wk =   0.0329218
        k(    4) = (   0.0560359   0.0560359   0.3922510), wk =   0.0329218
        k(    5) = (   0.0560359   0.0560359  -0.5043228), wk =   0.0164609
        k(    6) = (   0.0560359   0.1681076   0.1681076), wk =   0.0329218
        k(    7) = (   0.0560359   0.1681076   0.2801793), wk =   0.0658436
        k(    8) = (   0.0560359   0.1681076   0.3922510), wk =   0.0658436
        k(    9) = (   0.0560359   0.1681076  -0.5043228), wk =   0.0329218
        k(   10) = (   0.0560359   0.2801793   0.2801793), wk =   0.0329218
        k(   11) = (   0.0560359   0.2801793   0.3922510), wk =   0.0658436
        k(   12) = (   0.0560359   0.2801793  -0.5043228), wk =   0.0329218
        k(   13) = (   0.0560359   0.3922510   0.3922510), wk =   0.0329218
        k(   14) = (   0.0560359   0.3922510  -0.5043228), wk =   0.0329218
        k(   15) = (   0.0560359  -0.5043228  -0.5043228), wk =   0.0082305
        k(   16) = (   0.1681076   0.1681076   0.1681076), wk =   0.0109739
        k(   17) = (   0.1681076   0.1681076   0.2801793), wk =   0.0329218
        k(   18) = (   0.1681076   0.1681076   0.3922510), wk =   0.0329218
        k(   19) = (   0.1681076   0.1681076  -0.5043228), wk =   0.0164609
        k(   20) = (   0.1681076   0.2801793   0.2801793), wk =   0.0329218
        k(   21) = (   0.1681076   0.2801793   0.3922510), wk =   0.0658436
        k(   22) = (   0.1681076   0.2801793  -0.5043228), wk =   0.0329218
        k(   23) = (   0.1681076   0.3922510   0.3922510), wk =   0.0329218
        k(   24) = (   0.1681076   0.3922510  -0.5043228), wk =   0.0329218
        k(   25) = (   0.1681076  -0.5043228  -0.5043228), wk =   0.0082305
        k(   26) = (   0.2801793   0.2801793   0.2801793), wk =   0.0109739
        k(   27) = (   0.2801793   0.2801793   0.3922510), wk =   0.0329218
        k(   28) = (   0.2801793   0.2801793  -0.5043228), wk =   0.0164609
        k(   29) = (   0.2801793   0.3922510   0.3922510), wk =   0.0329218
        k(   30) = (   0.2801793   0.3922510  -0.5043228), wk =   0.0329218
        k(   31) = (   0.2801793  -0.5043228  -0.5043228), wk =   0.0082305
        k(   32) = (   0.3922510   0.3922510   0.3922510), wk =   0.0109739
        k(   33) = (   0.3922510   0.3922510  -0.5043228), wk =   0.0164609
        k(   34) = (   0.3922510  -0.5043228  -0.5043228), wk =   0.0082305
        k(   35) = (  -0.5043228  -0.5043228  -0.5043228), wk =   0.0013717

     Dense  grid:   174173 G-vectors     FFT dimensions: (  72,  72,  72)

     Smooth grid:    93381 G-vectors     FFT dimensions: (  60,  60,  60)

     Estimated max dynamical RAM per process >     150.12 MB

     Estimated total dynamical RAM >       2.93 GB
     Generating pointlists ...
     new r_m :   0.1771 (alat units)  1.8760 (a.u.) for type    1
     new r_m :   0.1771 (alat units)  1.8760 (a.u.) for type    2

     Check: negative/imaginary core charge=   -0.000006    0.000000

     Initial potential from superposition of free atoms

     starting charge  255.99300, renormalised to  256.00000
     Starting wfcs are  160 randomized atomic wfcs
     Checking if some PAW data can be deallocated... 

     total cpu time spent up to now is        8.9 secs

     Self-consistent Calculation

     iteration #  1     ecut=    71.00 Ry     beta= 0.10
     Davidson diagonalization with overlap
     ethr =  1.00E-02,  avg # of iterations =  3.3

     Threshold (ethr) on eigenvalues was too large:
     Diagonalizing with lowered threshold

     Davidson diagonalization with overlap
     ethr =  2.12E-04,  avg # of iterations =  3.3

     total cpu time spent up to now is       66.4 secs

     total energy              =   -5267.97400569 Ry
     Harris-Foulkes estimate   =   -5268.02945575 Ry
     estimated scf accuracy    <       0.62120923 Ry

     total magnetization       =    27.55 Bohr mag/cell
     absolute magnetization    =    27.64 Bohr mag/cell

     iteration #  2     ecut=    71.00 Ry     beta= 0.10
     Davidson diagonalization with overlap
     ethr =  2.43E-04,  avg # of iterations =  1.0

     total cpu time spent up to now is       84.1 secs

     total energy              =   -5267.95015393 Ry
     Harris-Foulkes estimate   =   -5267.98602113 Ry
     estimated scf accuracy    <       0.35492111 Ry

     total magnetization       =    28.19 Bohr mag/cell
     absolute magnetization    =    28.31 Bohr mag/cell

     iteration #  3     ecut=    71.00 Ry     beta= 0.10
     Davidson diagonalization with overlap
     ethr =  1.39E-04,  avg # of iterations =  3.1

     total cpu time spent up to now is      114.0 secs

     total energy              =   -5268.01478811 Ry
     Harris-Foulkes estimate   =   -5268.01842181 Ry
     estimated scf accuracy    <       0.32896687 Ry

     total magnetization       =    29.51 Bohr mag/cell
     absolute magnetization    =    29.80 Bohr mag/cell

     iteration #  4     ecut=    71.00 Ry     beta= 0.10
     Davidson diagonalization with overlap
     ethr =  1.29E-04,  avg # of iterations =  1.0

     total cpu time spent up to now is      131.7 secs

     total energy              =   -5268.03078670 Ry
     Harris-Foulkes estimate   =   -5268.02278247 Ry
     estimated scf accuracy    <       0.10888674 Ry

     total magnetization       =    29.71 Bohr mag/cell
     absolute magnetization    =    30.02 Bohr mag/cell

     iteration #  5     ecut=    71.00 Ry     beta= 0.10
     Davidson diagonalization with overlap
     ethr =  4.25E-05,  avg # of iterations =  1.5

     total cpu time spent up to now is      151.0 secs

     total energy              =   -5268.10890340 Ry
     Harris-Foulkes estimate   =   -5268.03512393 Ry
     estimated scf accuracy    <       0.09660118 Ry

     total magnetization       =    29.76 Bohr mag/cell
     absolute magnetization    =    30.12 Bohr mag/cell

     iteration #  6     ecut=    71.00 Ry     beta= 0.10
     Davidson diagonalization with overlap
     ethr =  3.77E-05,  avg # of iterations =  3.2

     negative rho (up, down):  0.000E+00 3.038E-03

     total cpu time spent up to now is      181.7 secs

     total energy              =   -5268.12853460 Ry
     Harris-Foulkes estimate   =   -5268.14002505 Ry
     estimated scf accuracy    <       0.19247227 Ry

     total magnetization       =    30.44 Bohr mag/cell
     absolute magnetization    =    31.10 Bohr mag/cell

     iteration #  7     ecut=    71.00 Ry     beta= 0.10
     Davidson diagonalization with overlap
     ethr =  3.77E-05,  avg # of iterations =  2.9

     negative rho (up, down):  0.000E+00 1.765E-03

     total cpu time spent up to now is      210.7 secs

     total energy              =   -5268.16521791 Ry
     Harris-Foulkes estimate   =   -5268.17104997 Ry
     estimated scf accuracy    <       0.01160617 Ry

     total magnetization       =    31.85 Bohr mag/cell
     absolute magnetization    =    33.26 Bohr mag/cell

     iteration #  8     ecut=    71.00 Ry     beta= 0.10
     Davidson diagonalization with overlap
     ethr =  4.53E-06,  avg # of iterations =  2.5

     negative rho (up, down):  0.000E+00 1.824E-03

     total cpu time spent up to now is      235.4 secs

     total energy              =   -5268.16842918 Ry
     Harris-Foulkes estimate   =   -5268.16685518 Ry
     estimated scf accuracy    <       0.00824243 Ry

     total magnetization       =    31.78 Bohr mag/cell
     absolute magnetization    =    33.03 Bohr mag/cell

     iteration #  9     ecut=    71.00 Ry     beta= 0.10
     Davidson diagonalization with overlap
     ethr =  3.22E-06,  avg # of iterations =  1.4

     negative rho (up, down):  0.000E+00 2.228E-03

     total cpu time spent up to now is      254.5 secs

     total energy              =   -5268.17149603 Ry
     Harris-Foulkes estimate   =   -5268.16867336 Ry
     estimated scf accuracy    <       0.00526569 Ry

     total magnetization       =    31.89 Bohr mag/cell
     absolute magnetization    =    33.20 Bohr mag/cell

     iteration # 10     ecut=    71.00 Ry     beta= 0.10
     Davidson diagonalization with overlap
     ethr =  2.06E-06,  avg # of iterations =  3.2

     negative rho (up, down):  0.000E+00 2.111E-03

     total cpu time spent up to now is      282.7 secs

     total energy              =   -5268.17287142 Ry
     Harris-Foulkes estimate   =   -5268.17277944 Ry
     estimated scf accuracy    <       0.00089083 Ry

     total magnetization       =    32.20 Bohr mag/cell
     absolute magnetization    =    33.71 Bohr mag/cell

     iteration # 11     ecut=    71.00 Ry     beta= 0.10
     Davidson diagonalization with overlap
     ethr =  3.48E-07,  avg # of iterations =  1.2

     negative rho (up, down):  0.000E+00 1.983E-03

     total cpu time spent up to now is      301.0 secs

     total energy              =   -5268.17322719 Ry
     Harris-Foulkes estimate   =   -5268.17289253 Ry
     estimated scf accuracy    <       0.00072851 Ry

     total magnetization       =    32.21 Bohr mag/cell
     absolute magnetization    =    33.73 Bohr mag/cell

     iteration # 12     ecut=    71.00 Ry     beta= 0.10
     Davidson diagonalization with overlap
     ethr =  2.85E-07,  avg # of iterations =  2.3

     negative rho (up, down):  0.000E+00 2.225E-03

     total cpu time spent up to now is      324.5 secs

     total energy              =   -5268.17337326 Ry
     Harris-Foulkes estimate   =   -5268.17334729 Ry
     estimated scf accuracy    <       0.00048064 Ry

     total magnetization       =    32.32 Bohr mag/cell
     absolute magnetization    =    33.88 Bohr mag/cell

     iteration # 13     ecut=    71.00 Ry     beta= 0.10
     Davidson diagonalization with overlap
     ethr =  1.88E-07,  avg # of iterations =  3.3

     negative rho (up, down):  0.000E+00 2.265E-03

     total cpu time spent up to now is      354.5 secs

     total energy              =   -5268.17352228 Ry
     Harris-Foulkes estimate   =   -5268.17352218 Ry
     estimated scf accuracy    <       0.00010013 Ry

     total magnetization       =    32.43 Bohr mag/cell
     absolute magnetization    =    34.06 Bohr mag/cell

     iteration # 14     ecut=    71.00 Ry     beta= 0.10
     Davidson diagonalization with overlap
     ethr =  3.91E-08,  avg # of iterations =  2.4

     negative rho (up, down):  0.000E+00 2.276E-03

     total cpu time spent up to now is      378.3 secs

     total energy              =   -5268.17352867 Ry
     Harris-Foulkes estimate   =   -5268.17354044 Ry
     estimated scf accuracy    <       0.00011748 Ry

     total magnetization       =    32.44 Bohr mag/cell
     absolute magnetization    =    34.08 Bohr mag/cell

     iteration # 15     ecut=    71.00 Ry     beta= 0.10
     Davidson diagonalization with overlap
     ethr =  3.91E-08,  avg # of iterations =  1.1

     negative rho (up, down):  0.000E+00 2.284E-03

     total cpu time spent up to now is      396.2 secs

     total energy              =   -5268.17355291 Ry
     Harris-Foulkes estimate   =   -5268.17353636 Ry
     estimated scf accuracy    <       0.00002320 Ry

     total magnetization       =    32.46 Bohr mag/cell
     absolute magnetization    =    34.10 Bohr mag/cell

     iteration # 16     ecut=    71.00 Ry     beta= 0.10
     Davidson diagonalization with overlap
     ethr =  9.06E-09,  avg # of iterations =  2.2

     negative rho (up, down):  0.000E+00 2.297E-03

     total cpu time spent up to now is      418.6 secs

     total energy              =   -5268.17355799 Ry
     Harris-Foulkes estimate   =   -5268.17355598 Ry
     estimated scf accuracy    <       0.00000826 Ry

     total magnetization       =    32.46 Bohr mag/cell
     absolute magnetization    =    34.09 Bohr mag/cell

     iteration # 17     ecut=    71.00 Ry     beta= 0.10
     Davidson diagonalization with overlap
     ethr =  3.23E-09,  avg # of iterations =  2.8

     negative rho (up, down):  0.000E+00 2.297E-03

     total cpu time spent up to now is      444.3 secs

     total energy              =   -5268.17356088 Ry
     Harris-Foulkes estimate   =   -5268.17355970 Ry
     estimated scf accuracy    <       0.00000226 Ry

     total magnetization       =    32.47 Bohr mag/cell
     absolute magnetization    =    34.10 Bohr mag/cell

     iteration # 18     ecut=    71.00 Ry     beta= 0.10
     Davidson diagonalization with overlap
     ethr =  8.84E-10,  avg # of iterations =  3.2

     negative rho (up, down):  0.000E+00 2.313E-03
 
     Magnetic moment per site:
     atom:    1    charge:   14.3456    magn:    2.0666    constr:    0.0000
     atom:    2    charge:   14.3454    magn:    2.0685    constr:    0.0000
     atom:    3    charge:   14.3455    magn:    2.0673    constr:    0.0000
     atom:    4    charge:   14.3454    magn:    2.0685    constr:    0.0000
     atom:    5    charge:   14.3455    magn:    2.0673    constr:    0.0000
     atom:    6    charge:   14.3454    magn:    2.0685    constr:    0.0000
     atom:    7    charge:   14.3455    magn:    2.0676    constr:    0.0000
     atom:    8    charge:   14.3454    magn:    2.0685    constr:    0.0000
     atom:    9    charge:   14.3455    magn:    2.0673    constr:    0.0000
     atom:   10    charge:   14.3454    magn:    2.0685    constr:    0.0000
     atom:   11    charge:   14.3455    magn:    2.0676    constr:    0.0000
     atom:   12    charge:   14.3454    magn:    2.0685    constr:    0.0000
     atom:   13    charge:   14.3455    magn:    2.0676    constr:    0.0000
     atom:   14    charge:   14.3454    magn:    2.0685    constr:    0.0000
     atom:   15    charge:   14.3455    magn:    2.0680    constr:    0.0000
     atom:   16    charge:   14.3454    magn:    2.0685    constr:    0.0000

     total cpu time spent up to now is      472.8 secs

     End of self-consistent calculation

 ------ SPIN UP ------------


          k = 0.0560 0.0560 0.0560 ( 11666 PWs)   bands (ev):

   -68.5026 -68.4178 -68.4178 -68.4178 -68.4043 -68.4043 -68.4042 -68.4028
   -68.4027 -68.4027 -68.4023 -68.4023 -68.4021 -68.3972 -68.3958 -68.3308
   -34.7450 -34.7450 -34.7450 -34.7424 -34.7424 -34.7424 -34.6026 -34.6026
   -34.5965 -34.5330 -34.5297 -34.5297 -34.5296 -34.5115 -34.5115 -34.4990
   -34.4989 -34.4989 -34.4678 -34.4678 -34.4462 -34.4334 -34.4334 -34.4334
   -34.4233 -34.4233 -34.4233 -34.4126 -34.4126 -34.4126 -34.4095 -34.4095
   -34.4095 -34.4020 -34.4020 -34.4020 -34.3924 -34.3924 -34.3923 -34.2492
   -34.2475 -34.2475 -34.2475 -34.2448 -34.2447 -34.2447 -34.2425 -34.2425
    10.8087  14.3812  14.3812  14.3812  14.4003  14.4003  14.4003  14.4184
    14.4184  14.4696  14.4696  14.4696  14.8770  14.8770  14.8770  16.0655
    16.0756  16.0756  16.0756  16.0888  16.0888  16.0888  16.1539  16.1539
    16.2300  16.2300  16.2300  16.3035  16.3035  16.3614  16.5834  16.5834
    16.5834  17.2611  17.2611  17.3038  17.5971  17.5971  17.5972  17.6798
    17.6798  17.6798  17.7765  17.7765  17.7765  17.8608  17.8609  17.8609
    18.5233  18.5234  18.5234  18.5369  18.5369  18.5781  18.5781  18.5781
    18.6286  18.6286  18.6286  18.6354  18.6354  18.6354  18.7543  18.7543
    18.7543  18.7578  18.7579  18.7579  18.7989  18.7989  18.8003  18.8003
    19.6966  19.6967  19.6967  19.7065  19.7065  19.7065  19.8566  19.9195
    19.9196  19.9196  19.9255  19.9255  20.2844  20.2845  20.2845  20.4637
    20.4637  20.4637

          k = 0.0560 0.0560 0.1681 ( 11679 PWs)   bands (ev):

   -68.4998 -68.4330 -68.4172 -68.4172 -68.4058 -68.4058 -68.4038 -68.4026
   -68.4025 -68.4019 -68.4017 -68.4016 -68.3975 -68.3961 -68.3883 -68.3329
   -34.7381 -34.7381 -34.7371 -34.7348 -34.7302 -34.7302 -34.6048 -34.5966
   -34.5874 -34.5651 -34.5574 -34.5574 -34.5555 -34.5549 -34.5276 -34.5275
   -34.4975 -34.4729 -34.4648 -34.4638 -34.4541 -34.4332 -34.4332 -34.4248
   -34.4175 -34.4157 -34.4156 -34.4140 -34.4128 -34.4074 -34.4074 -34.4025
   -34.4025 -34.3982 -34.3982 -34.3713 -34.3686 -34.3685 -34.3624 -34.2627
   -34.2556 -34.2556 -34.2542 -34.2522 -34.2486 -34.2474 -34.2474 -34.2455
    10.9427  13.9162  14.4021  14.4021  14.4605  14.4605  14.4771  14.4771
    14.4815  14.4950  14.5174  14.5174  14.9131  14.9131  15.0977  15.8812
    15.9556  16.0558  16.0619  16.0739  16.0793  16.1219  16.1220  16.1615
    16.1615  16.1876  16.2121  16.2121  16.5085  16.5093  16.5319  16.5319
    16.9233  17.2381  17.2570  17.3621  17.3962  17.3962  17.4557  17.5534
    17.5646  17.5646  17.8029  17.8029  17.9318  17.9318  17.9958  18.0888
    18.1771  18.1772  18.2976  18.4559  18.4560  18.4742  18.5172  18.5625
    18.5836  18.5836  18.6422  18.6445  18.6641  18.6641  18.7348  18.7348
    18.7602  18.7942  18.7962  18.7965  18.7998  18.9590  18.9590  18.9836
    19.0733  19.3131  19.3382  19.6396  19.6396  19.7033  19.7189  19.7189
    19.8050  19.9186  20.0349  20.0349  20.3384  20.3384  20.3475  20.3475
    20.7769  20.7769

          k = 0.0560 0.0560 0.2802 ( 11685 PWs)   bands (ev):

   -68.4939 -68.4479 -68.4160 -68.4159 -68.4078 -68.4077 -68.4030 -68.4022
   -68.4022 -68.4012 -68.4012 -68.4011 -68.3984 -68.3969 -68.3749 -68.3374
   -34.7220 -34.7220 -34.7215 -34.7197 -34.7093 -34.7093 -34.6055 -34.6016
   -34.5966 -34.5942 -34.5942 -34.5851 -34.5755 -34.5748 -34.5666 -34.5666
   -34.4948 -34.4846 -34.4837 -34.4693 -34.4317 -34.4316 -34.4270 -34.4253
   -34.4227 -34.4190 -34.4190 -34.4055 -34.4055 -34.4027 -34.4027 -34.3843
   -34.3772 -34.3673 -34.3673 -34.3423 -34.3394 -34.3394 -34.3342 -34.2842
   -34.2687 -34.2687 -34.2676 -34.2663 -34.2587 -34.2556 -34.2556 -34.2540
    11.2070  13.2905  14.4558  14.4558  14.5577  14.5577  14.5819  14.5819
    14.5930  14.5986  14.6615  14.6768  14.9423  14.9423  15.1453  15.5508
    15.8022  15.8526  16.0009  16.0383  16.0481  16.0535  16.2259  16.2259
    16.2469  16.2470  16.2913  16.2913  16.5196  16.5196  16.7631  16.7745
    17.1261  17.1261  17.1948  17.2254  17.2537  17.2784  17.2785  17.3512
    17.4491  17.5218  17.6913  17.6913  17.9513  17.9513  17.9974  17.9974
    18.0507  18.0507  18.0833  18.2558  18.2998  18.3511  18.3587  18.4682
    18.5140  18.5141  18.6018  18.6018  18.6130  18.6671  18.6833  18.7649
    18.7817  18.7846  18.7917  18.7993  18.9713  19.0086  19.0086  19.0683
    19.2043  19.2256  19.2257  19.4703  19.5846  19.6581  19.6581  19.7643
    19.7643  19.8529  20.0111  20.0111  20.2044  20.2044  20.4636  20.4636
    20.8767  20.8767

          k = 0.0560 0.0560 0.3923 ( 11693 PWs)   bands (ev):

   -68.4854 -68.4619 -68.4143 -68.4142 -68.4100 -68.4099 -68.4019 -68.4018
   -68.4018 -68.4012 -68.4011 -68.4001 -68.3994 -68.3978 -68.3629 -68.3439
   -34.6987 -34.6982 -34.6982 -34.6977 -34.6810 -34.6810 -34.6374 -34.6353
   -34.6322 -34.6322 -34.6073 -34.6073 -34.6035 -34.5896 -34.5686 -34.5575
   -34.5227 -34.5114 -34.4703 -34.4596 -34.4399 -34.4342 -34.4293 -34.4293
   -34.4227 -34.4227 -34.4043 -34.4042 -34.4030 -34.4030 -34.3853 -34.3469
   -34.3433 -34.3372 -34.3372 -34.3159 -34.3132 -34.3118 -34.3117 -34.3084
   -34.2872 -34.2872 -34.2871 -34.2871 -34.2737 -34.2692 -34.2692 -34.2679
    11.5927  12.6630  14.5270  14.5271  14.6151  14.6151  14.6807  14.6807
    14.7544  14.7633  14.9091  14.9091  14.9192  14.9301  15.0687  15.2486
    15.5403  15.5515  15.9819  15.9989  16.0109  16.0190  16.3825  16.3826
    16.4151  16.4152  16.4715  16.4715  16.6259  16.6260  16.8727  16.8727
    16.9916  16.9916  17.0913  17.0999  17.2016  17.2016  17.2248  17.2541
    17.2715  17.2814  17.4157  17.4157  17.5662  17.6950  17.8867  17.9037
    17.9490  18.1721  18.1835  18.1835  18.1988  18.1988  18.4220  18.4221
    18.5094  18.5094  18.5504  18.6607  18.6860  18.6993  18.7042  18.7612
    18.7630  18.7714  18.7854  18.8009  18.8461  18.9035  19.1814  19.2726
    19.2726  19.2986  19.4090  19.4866  19.4866  19.6182  19.6182  19.7405
    19.8345  19.8345  19.8952  19.8953  20.0619  20.0619  20.6114  20.6114
    20.8620  20.8620

          k = 0.0560 0.0560-0.5043 ( 11686 PWs)   bands (ev):

   -68.4747 -68.4745 -68.4123 -68.4122 -68.4121 -68.4120 -68.4015 -68.4015
   -68.4014 -68.4013 -68.4007 -68.4006 -68.3992 -68.3988 -68.3525 -68.3523
   -34.6700 -34.6698 -34.6698 -34.6696 -34.6678 -34.6678 -34.6678 -34.6678
   -34.6462 -34.6462 -34.6462 -34.6462 -34.5985 -34.5983 -34.5476 -34.5474
   -34.5363 -34.5361 -34.4549 -34.4547 -34.4472 -34.4469 -34.4262 -34.4262
   -34.4260 -34.4260 -34.4034 -34.4034 -34.4032 -34.4032 -34.3478 -34.3476
   -34.3143 -34.3141 -34.3131 -34.3129 -34.3102 -34.3102 -34.3102 -34.3101
   -34.2928 -34.2926 -34.2880 -34.2880 -34.2880 -34.2879 -34.2862 -34.2861
    12.0855  12.0855  14.5911  14.5911  14.5911  14.5911  14.8091  14.8092
    14.8092  14.8092  14.9229  14.9230  14.9837  14.9837  15.2265  15.2266
    15.2300  15.2301  15.9887  15.9888  15.9973  15.9974  16.5788  16.5788
    16.5788  16.5789  16.6507  16.6507  16.6507  16.6508  16.8146  16.8146
    16.8147  16.8147  16.9744  16.9744  16.9744  16.9744  17.2413  17.2414
    17.2624  17.2625  17.4817  17.4818  17.4873  17.4875  17.7129  17.7130
    17.9461  17.9462  18.3104  18.3104  18.3105  18.3105  18.3744  18.3744
    18.3744  18.3744  18.7329  18.7330  18.7340  18.7342  18.7786  18.7787
    18.7810  18.7811  18.8109  18.8110  18.8660  18.8661  18.9812  18.9814
    19.4868  19.4868  19.4868  19.4868  19.5899  19.5901  19.7150  19.7150
    19.7150  19.7150  19.9333  19.9333  19.9333  19.9333  20.7583  20.7584
    20.7584  20.7584

          k = 0.0560 0.1681 0.1681 ( 11670 PWs)   bands (ev):

   -68.4968 -68.4319 -68.4319 -68.4165 -68.4100 -68.4053 -68.4053 -68.4023
   -68.4013 -68.4012 -68.3983 -68.3981 -68.3964 -68.3886 -68.3885 -68.3351
   -34.7364 -34.7305 -34.7305 -34.7233 -34.7233 -34.7131 -34.6107 -34.5931
   -34.5857 -34.5814 -34.5814 -34.5744 -34.5736 -34.5680 -34.5464 -34.5068
   -34.4931 -34.4930 -34.4640 -34.4639 -34.4637 -34.4382 -34.4286 -34.4286
   -34.4241 -34.4214 -34.4214 -34.4116 -34.4116 -34.4078 -34.4060 -34.3997
   -34.3885 -34.3787 -34.3725 -34.3725 -34.3514 -34.3399 -34.3399 -34.2806
   -34.2683 -34.2611 -34.2611 -34.2541 -34.2541 -34.2528 -34.2446 -34.2431
    11.0753  13.9838  13.9838  14.3727  14.4996  14.4996  14.5344  14.5442
    14.5517  14.5544  14.5544  14.5731  14.9609  15.1343  15.1343  15.8569
    15.8879  15.8879  15.9642  16.1055  16.1055  16.1311  16.1406  16.1406
    16.1415  16.1756  16.2527  16.2599  16.4633  16.5080  16.5201  16.8216
    16.8216  17.1825  17.2441  17.2662  17.2663  17.3202  17.4457  17.4585
    17.7254  17.7255  17.7702  17.7703  17.7955  17.8456  17.9776  18.1014
    18.1014  18.1079  18.1080  18.3800  18.3800  18.4652  18.5003  18.5119
    18.5120  18.5121  18.5444  18.5997  18.5997  18.6586  18.6586  18.7383
    18.7860  18.7933  18.7944  18.8047  18.8742  19.0674  19.0792  19.1562
    19.1562  19.1797  19.1798  19.3059  19.3060  19.4995  19.5459  19.5459
    19.7145  19.7790  19.9433  20.1097  20.1404  20.4476  21.0176  21.0176
    21.2142  21.2142

          k = 0.0560 0.1681 0.2802 ( 11698 PWs)   bands (ev):

   -68.4911 -68.4464 -68.4298 -68.4153 -68.4144 -68.4073 -68.4044 -68.4020
   -68.4009 -68.4006 -68.3991 -68.3970 -68.3954 -68.3891 -68.3757 -68.3393
   -34.7256 -34.7156 -34.7154 -34.7100 -34.7040 -34.6880 -34.6162 -34.6156
   -34.6118 -34.6022 -34.6001 -34.5994 -34.5821 -34.5766 -34.5565 -34.5329
   -34.4972 -34.4935 -34.4605 -34.4605 -34.4585 -34.4549 -34.4397 -34.4328
   -34.4326 -34.4259 -34.4200 -34.4102 -34.4080 -34.3966 -34.3926 -34.3751
   -34.3746 -34.3611 -34.3537 -34.3444 -34.3289 -34.3137 -34.3133 -34.3065
   -34.2866 -34.2721 -34.2720 -34.2673 -34.2626 -34.2610 -34.2472 -34.2466
    11.3363  13.3782  14.0976  14.3606  14.5546  14.6435  14.6513  14.6527
    14.6650  14.6734  14.6867  14.7341  15.0107  15.1514  15.1881  15.5761
    15.7445  15.8290  15.9624  16.0584  16.0766  16.1045  16.1469  16.1751
    16.2004  16.2185  16.2562  16.4135  16.4156  16.6692  16.7050  16.7547
    17.0193  17.0361  17.1325  17.1330  17.1768  17.2296  17.2360  17.3632
    17.4725  17.5824  17.6306  17.7323  17.8562  17.9219  17.9637  18.0010
    18.0147  18.0837  18.0890  18.1160  18.1360  18.2945  18.3363  18.3731
    18.4113  18.5335  18.5827  18.5998  18.6303  18.6532  18.6613  18.7697
    18.7793  18.7903  18.7942  18.8143  18.8967  19.0214  19.0434  19.0470
    19.1836  19.2224  19.2315  19.2606  19.2944  19.3890  19.4334  19.5010
    19.6255  19.9057  19.9079  19.9284  20.1254  20.6295  20.8068  21.3933
    21.4355  21.7352

          k = 0.0560 0.1681 0.3923 ( 11716 PWs)   bands (ev):

   -68.4829 -68.4600 -68.4268 -68.4189 -68.4136 -68.4094 -68.4032 -68.4016
   -68.4009 -68.4004 -68.3997 -68.3978 -68.3931 -68.3900 -68.3640 -68.3457
   -34.7067 -34.6940 -34.6932 -34.6910 -34.6777 -34.6555 -34.6498 -34.6399
   -34.6346 -34.6342 -34.6186 -34.6112 -34.6111 -34.5756 -34.5661 -34.5361
   -34.5210 -34.4866 -34.4816 -34.4552 -34.4535 -34.4474 -34.4411 -34.4383
   -34.4312 -34.4305 -34.4148 -34.4094 -34.4088 -34.3866 -34.3776 -34.3647
   -34.3421 -34.3389 -34.3336 -34.3289 -34.3185 -34.3090 -34.3068 -34.2904
   -34.2891 -34.2881 -34.2873 -34.2869 -34.2772 -34.2722 -34.2561 -34.2557
    11.7166  12.7670  14.2177  14.3466  14.6266  14.7021  14.7744  14.7975
    14.8168  14.8315  14.9476  14.9824  14.9951  15.0905  15.1162  15.2896
    15.5476  15.5732  16.0122  16.0432  16.0537  16.0649  16.1705  16.2941
    16.3351  16.3486  16.4008  16.4553  16.6134  16.7173  16.8766  16.9277
    16.9506  16.9532  16.9822  17.0118  17.1005  17.1059  17.1623  17.1672
    17.1795  17.2135  17.3514  17.5253  17.6372  17.7130  17.7292  17.8518
    18.0882  18.1817  18.1915  18.1994  18.2123  18.2217  18.2965  18.3241
    18.4450  18.5047  18.5543  18.6111  18.6567  18.6711  18.6825  18.7448
    18.7526  18.7948  18.8206  18.8351  18.8774  18.9251  18.9784  19.0482
    19.0988  19.1757  19.2215  19.2894  19.3006  19.3790  19.5778  19.6042
    19.6766  19.6812  19.8570  20.0349  20.1028  20.5781  20.8597  21.3044
    21.6063  21.8677

          k = 0.0560 0.1681-0.5043 ( 11706 PWs)   bands (ev):

   -68.4724 -68.4722 -68.4232 -68.4230 -68.4117 -68.4115 -68.4019 -68.4018
   -68.4013 -68.4010 -68.3989 -68.3986 -68.3914 -68.3912 -68.3540 -68.3538
   -34.6808 -34.6808 -34.6671 -34.6670 -34.6666 -34.6664 -34.6655 -34.6655
   -34.6461 -34.6461 -34.6173 -34.6173 -34.6172 -34.6171 -34.5454 -34.5453
   -34.5128 -34.5127 -34.4643 -34.4641 -34.4488 -34.4486 -34.4430 -34.4428
   -34.4349 -34.4347 -34.4090 -34.4089 -34.3817 -34.3815 -34.3756 -34.3755
   -34.3352 -34.3351 -34.3121 -34.3119 -34.3088 -34.3086 -34.3064 -34.3064
   -34.2960 -34.2959 -34.2877 -34.2877 -34.2709 -34.2709 -34.2698 -34.2698
    12.2013  12.2014  14.3049  14.3049  14.6879  14.6879  14.9019  14.9019
    14.9653  14.9653  14.9701  14.9701  15.0390  15.0390  15.2564  15.2565
    15.2699  15.2700  16.0165  16.0166  16.0387  16.0389  16.4638  16.4638
    16.4643  16.4643  16.4981  16.4981  16.5245  16.5245  16.8854  16.8854
    16.9073  16.9073  16.9883  16.9883  17.0917  17.0917  17.0965  17.0966
    17.1951  17.1953  17.3046  17.3047  17.3089  17.3090  17.8981  17.8982
    18.0368  18.0369  18.2455  18.2455  18.3366  18.3366  18.3666  18.3666
    18.4023  18.4023  18.6058  18.6059  18.7136  18.7137  18.7145  18.7147
    18.7537  18.7538  18.8001  18.8002  18.8803  18.8803  18.9141  18.9143
    19.1404  19.1405  19.2574  19.2575  19.4453  19.4453  19.5135  19.5135
    19.7371  19.7371  19.8819  19.8819  20.3370  20.3370  21.0986  21.0986
    21.7920  21.7921

          k = 0.0560 0.2802 0.2802 ( 11703 PWs)   bands (ev):

   -68.4857 -68.4435 -68.4434 -68.4212 -68.4141 -68.4063 -68.4063 -68.4016
   -68.4004 -68.4004 -68.4002 -68.3973 -68.3902 -68.3771 -68.3770 -68.3432
   -34.7202 -34.7025 -34.7025 -34.6937 -34.6937 -34.6586 -34.6299 -34.6299
   -34.6270 -34.6262 -34.6176 -34.6147 -34.5951 -34.5719 -34.5345 -34.4980
   -34.4952 -34.4952 -34.4885 -34.4884 -34.4565 -34.4470 -34.4462 -34.4385
   -34.4385 -34.4265 -34.4264 -34.4189 -34.4189 -34.4134 -34.3809 -34.3543
   -34.3481 -34.3481 -34.3411 -34.3374 -34.3353 -34.3143 -34.3085 -34.2903
   -34.2902 -34.2788 -34.2788 -34.2716 -34.2716 -34.2715 -34.2442 -34.2434
    11.5903  13.5391  13.5391  14.2572  14.7379  14.7439  14.7439  14.7636
    14.7941  14.8022  14.8295  14.8295  15.1061  15.2104  15.2105  15.6840
    15.6840  15.6853  15.7540  16.1010  16.1060  16.1565  16.1565  16.1740
    16.1970  16.1970  16.2672  16.3123  16.5903  16.6223  16.6813  16.8979
    16.8979  16.9860  16.9861  16.9918  17.0386  17.0586  17.1280  17.1974
    17.4971  17.4971  17.6452  17.6452  17.7068  17.7069  17.7484  17.8927
    17.9721  17.9721  18.0814  18.1649  18.2799  18.2800  18.3168  18.3759
    18.5609  18.5701  18.5702  18.5712  18.5712  18.6055  18.6055  18.6369
    18.7039  18.7450  18.7611  18.8049  18.8387  18.9334  19.0061  19.0061
    19.0172  19.0172  19.0779  19.2353  19.2963  19.2963  19.2972  19.6212
    19.6213  19.6716  19.9765  20.1507  20.1618  20.9063  21.4632  21.4632
    22.1137  22.1137

          k = 0.0560 0.2802 0.3923 ( 11705 PWs)   bands (ev):

   -68.4778 -68.4563 -68.4392 -68.4278 -68.4125 -68.4084 -68.4050 -68.4018
   -68.4011 -68.4004 -68.3995 -68.3979 -68.3857 -68.3792 -68.3662 -68.3491
   -34.7067 -34.6842 -34.6839 -34.6791 -34.6716 -34.6600 -34.6435 -34.6385
   -34.6377 -34.6373 -34.6351 -34.6228 -34.6194 -34.5570 -34.5386 -34.5144
   -34.5101 -34.4880 -34.4807 -34.4592 -34.4561 -34.4548 -34.4542 -34.4503
   -34.4499 -34.4444 -34.4299 -34.4184 -34.4167 -34.3938 -34.3737 -34.3702
   -34.3536 -34.3342 -34.3299 -34.3239 -34.3212 -34.3174 -34.3001 -34.2893
   -34.2887 -34.2869 -34.2851 -34.2781 -34.2709 -34.2703 -34.2471 -34.2467
    11.9591  12.9650  13.7433  14.1249  14.8152  14.8530  14.8687  14.9361
    14.9508  14.9722  15.0053  15.0717  15.1414  15.1489  15.1621  15.4232
    15.5652  15.5828  15.9134  16.0668  16.1063  16.1072  16.1325  16.1426
    16.2558  16.2886  16.2887  16.3687  16.6025  16.7041  16.7688  16.8193
    16.8226  16.9036  16.9450  16.9652  16.9700  16.9873  17.0615  17.1122
    17.1599  17.2116  17.2930  17.3487  17.3891  17.4579  17.9332  17.9799
    18.0471  18.1991  18.2258  18.2328  18.2488  18.2769  18.2964  18.3492
    18.4902  18.4907  18.5114  18.5364  18.6095  18.6098  18.6226  18.6295
    18.7095  18.7268  18.7563  18.8210  18.8286  18.8388  18.8781  18.9004
    18.9636  19.0325  19.0767  19.0798  19.0983  19.2688  19.3274  19.4244
    19.7794  19.8336  19.9657  20.1070  20.4760  21.1444  21.2353  21.8783
    22.1498  22.7701

          k = 0.0560 0.2802-0.5043 ( 11734 PWs)   bands (ev):

   -68.4680 -68.4678 -68.4339 -68.4337 -68.4106 -68.4104 -68.4035 -68.4034
   -68.4008 -68.4006 -68.3989 -68.3986 -68.3822 -68.3820 -68.3570 -68.3567
   -34.6860 -34.6860 -34.6620 -34.6619 -34.6619 -34.6618 -34.6618 -34.6617
   -34.6462 -34.6462 -34.6390 -34.6389 -34.5819 -34.5819 -34.5376 -34.5375
   -34.4840 -34.4840 -34.4725 -34.4724 -34.4711 -34.4709 -34.4488 -34.4487
   -34.4412 -34.4411 -34.4183 -34.4181 -34.4132 -34.4132 -34.3629 -34.3629
   -34.3610 -34.3608 -34.3069 -34.3067 -34.3039 -34.3038 -34.3028 -34.3026
   -34.3018 -34.3017 -34.2879 -34.2879 -34.2561 -34.2561 -34.2557 -34.2557
    12.4258  12.4259  13.9503  13.9503  14.8665  14.8666  15.0177  15.0177
    15.0622  15.0622  15.0721  15.0721  15.1849  15.1850  15.3051  15.3051
    15.3397  15.3398  16.0677  16.0678  16.0893  16.0894  16.2329  16.2330
    16.2719  16.2719  16.3125  16.3125  16.5176  16.5176  16.9188  16.9188
    16.9225  16.9225  16.9475  16.9476  17.0365  17.0366  17.0510  17.0511
    17.0877  17.0877  17.1182  17.1183  17.1273  17.1273  18.1313  18.1313
    18.1735  18.1735  18.2195  18.2195  18.2854  18.2855  18.3801  18.3801
    18.3907  18.3907  18.3926  18.3926  18.6678  18.6679  18.6779  18.6780
    18.7039  18.7040  18.7509  18.7511  18.8431  18.8432  18.8475  18.8476
    18.9485  18.9485  19.1013  19.1014  19.1604  19.1605  19.3080  19.3080
    19.8974  19.8974  19.9992  19.9993  20.8112  20.8112  21.5718  21.5718
    22.8510  22.8511

          k = 0.0560 0.3923 0.3923 ( 11725 PWs)   bands (ev):

   -68.4706 -68.4509 -68.4509 -68.4363 -68.4109 -68.4070 -68.4070 -68.4035
   -68.4006 -68.3997 -68.3997 -68.3983 -68.3793 -68.3695 -68.3694 -68.3543
   -34.6986 -34.6715 -34.6715 -34.6640 -34.6640 -34.6624 -34.6624 -34.6490
   -34.6486 -34.6467 -34.6456 -34.6320 -34.5843 -34.5431 -34.5043 -34.5043
   -34.4980 -34.4980 -34.4862 -34.4826 -34.4763 -34.4607 -34.4607 -34.4590
   -34.4463 -34.4293 -34.4293 -34.4236 -34.4236 -34.4235 -34.4131 -34.3621
   -34.3553 -34.3320 -34.3319 -34.3147 -34.3093 -34.3067 -34.2972 -34.2937
   -34.2926 -34.2926 -34.2876 -34.2876 -34.2561 -34.2560 -34.2443 -34.2437
    12.3080  13.2357  13.2357  13.8536  14.9633  15.0096  15.0337  15.0684
    15.0684  15.1421  15.1421  15.1676  15.1832  15.1832  15.2718  15.5248
    15.5482  15.6538  15.6539  16.0596  16.0883  16.0997  16.1687  16.1687
    16.1727  16.1728  16.1884  16.2731  16.4399  16.6993  16.7151  16.7152
    16.7652  16.8497  16.8761  16.9157  16.9928  16.9928  17.0136  17.0136
    17.0277  17.0277  17.0584  17.1073  17.2573  17.6532  17.6533  18.1537
    18.2238  18.2352  18.2352  18.2777  18.3169  18.3420  18.3599  18.3600
    18.3690  18.4901  18.5444  18.5444  18.5541  18.5541  18.5865  18.6227
    18.6227  18.6585  18.6616  18.6831  18.7629  18.7629  18.7942  18.8543
    18.9296  18.9622  18.9622  19.0474  19.1299  19.1300  19.1677  19.1982
    19.9488  19.9489  20.0205  20.1170  20.8893  21.6598  21.7378  21.7378
    22.4996  22.4996

          k = 0.0560 0.3923-0.5043 ( 11710 PWs)   bands (ev):

   -68.4616 -68.4614 -68.4442 -68.4440 -68.4091 -68.4089 -68.4054 -68.4052
   -68.4002 -68.4000 -68.3991 -68.3988 -68.3739 -68.3737 -68.3613 -68.3610
   -34.6834 -34.6834 -34.6585 -34.6585 -34.6582 -34.6581 -34.6579 -34.6577
   -34.6558 -34.6557 -34.6475 -34.6475 -34.5421 -34.5421 -34.5255 -34.5253
   -34.4914 -34.4912 -34.4760 -34.4759 -34.4626 -34.4626 -34.4554 -34.4553
   -34.4533 -34.4533 -34.4392 -34.4391 -34.4276 -34.4275 -34.3921 -34.3921
   -34.3425 -34.3423 -34.3130 -34.3128 -34.3000 -34.2999 -34.2995 -34.2994
   -34.2982 -34.2982 -34.2898 -34.2897 -34.2470 -34.2470 -34.2469 -34.2469
    12.7435  12.7436  13.5455  13.5455  15.0637  15.0638  15.0885  15.0885
    15.1034  15.1034  15.2778  15.2779  15.3354  15.3355  15.4006  15.4007
    15.4145  15.4146  15.9469  15.9470  16.0962  16.0963  16.1045  16.1045
    16.1148  16.1149  16.1795  16.1796  16.5576  16.5576  16.7647  16.7647
    16.8139  16.8140  16.8513  16.8514  16.8531  16.8532  16.8725  16.8725
    17.0653  17.0654  17.0905  17.0905  17.3408  17.3409  17.9530  17.9531
    18.2627  18.2628  18.3003  18.3003  18.3886  18.3887  18.3920  18.3920
    18.4340  18.4340  18.4672  18.4672  18.5564  18.5566  18.5989  18.5990
    18.6227  18.6228  18.6454  18.6455  18.6887  18.6889  18.8965  18.8966
    18.9013  18.9013  19.0055  19.0055  19.0071  19.0071  19.1607  19.1607
    20.0137  20.0137  20.0639  20.0639  21.3148  21.3148  22.0921  22.0922
    22.3432  22.3432

          k = 0.0560-0.5043-0.5043 ( 11720 PWs)   bands (ev):

   -68.4537 -68.4535 -68.4535 -68.4532 -68.4074 -68.4072 -68.4072 -68.4070
   -68.3997 -68.3995 -68.3995 -68.3992 -68.3670 -68.3668 -68.3668 -68.3666
   -34.6739 -34.6739 -34.6738 -34.6738 -34.6565 -34.6564 -34.6564 -34.6563
   -34.6509 -34.6508 -34.6508 -34.6507 -34.5100 -34.5099 -34.5099 -34.5096
   -34.4990 -34.4990 -34.4990 -34.4990 -34.4726 -34.4726 -34.4726 -34.4726
   -34.4350 -34.4350 -34.4349 -34.4349 -34.4225 -34.4225 -34.4224 -34.4224
   -34.3264 -34.3263 -34.3263 -34.3261 -34.2976 -34.2975 -34.2975 -34.2974
   -34.2940 -34.2939 -34.2939 -34.2939 -34.2439 -34.2439 -34.2439 -34.2439
    13.1289  13.1289  13.1289  13.1289  15.0982  15.0982  15.0982  15.0983
    15.2731  15.2731  15.2732  15.2732  15.4202  15.4202  15.4202  15.4202
    15.6621  15.6621  15.6621  15.6622  16.0570  16.0571  16.0571  16.0571
    16.1133  16.1133  16.1133  16.1133  16.6417  16.6417  16.6417  16.6417
    16.7678  16.7679  16.7679  16.7680  16.8142  16.8143  16.8143  16.8144
    17.0562  17.0562  17.0562  17.0564  17.6330  17.6330  17.6330  17.6330
    18.3812  18.3813  18.3813  18.3814  18.3865  18.3865  18.3865  18.3865
    18.5149  18.5150  18.5150  18.5151  18.5497  18.5497  18.5497  18.5498
    18.6210  18.6210  18.6210  18.6212  18.6439  18.6439  18.6439  18.6439
    18.9457  18.9458  18.9458  18.9459  19.0675  19.0675  19.0675  19.0675
    20.0697  20.0698  20.0698  20.0698  21.8289  21.8289  21.8289  21.8289
    22.6229  22.6229

          k = 0.1681 0.1681 0.1681 ( 11692 PWs)   bands (ev):

   -68.4940 -68.4309 -68.4309 -68.4308 -68.4094 -68.4094 -68.4093 -68.3994
   -68.3981 -68.3981 -68.3980 -68.3960 -68.3888 -68.3888 -68.3888 -68.3372
   -34.7286 -34.7286 -34.7286 -34.7075 -34.7075 -34.7075 -34.6050 -34.6050
   -34.6039 -34.5964 -34.5964 -34.5964 -34.5567 -34.5496 -34.5496 -34.5132
   -34.5131 -34.5131 -34.4703 -34.4703 -34.4703 -34.4317 -34.4317 -34.4317
   -34.4217 -34.4217 -34.4069 -34.4069 -34.4069 -34.4030 -34.4030 -34.4030
   -34.3747 -34.3747 -34.3747 -34.3670 -34.3256 -34.3256 -34.3256 -34.2988
   -34.2722 -34.2722 -34.2722 -34.2516 -34.2516 -34.2516 -34.2486 -34.2486
    11.2066  14.0565  14.0565  14.0565  14.4742  14.4742  14.4742  14.5987
    14.5987  14.6433  14.6433  14.6433  15.1861  15.1862  15.1862  15.7749
    15.8759  15.8760  15.8760  16.0538  16.0538  16.1252  16.1252  16.1252
    16.2288  16.2288  16.2288  16.4205  16.4205  16.4312  16.7137  16.7138
    16.7138  17.1709  17.1709  17.2042  17.2042  17.2042  17.5668  17.5897
    17.5897  17.5897  17.7328  17.7329  17.7329  17.7901  17.7902  17.7902
    18.1723  18.1723  18.1723  18.4016  18.4016  18.4016  18.4949  18.4949
    18.5296  18.5296  18.5296  18.6837  18.6837  18.6837  18.7347  18.7347
    18.7347  18.7415  18.7415  18.7415  18.7805  18.7805  18.8064  18.8064
    19.2536  19.2638  19.2638  19.2638  19.3231  19.3231  19.3231  19.7634
    19.7635  19.7635  19.8225  19.8225  20.6595  20.6595  20.6595  21.3431
    21.3431  21.3431

          k = 0.1681 0.1681 0.2802 ( 11695 PWs)   bands (ev):

   -68.4884 -68.4449 -68.4288 -68.4287 -68.4137 -68.4137 -68.4082 -68.4010
   -68.3977 -68.3959 -68.3953 -68.3952 -68.3894 -68.3893 -68.3763 -68.3413
   -34.7182 -34.7182 -34.7134 -34.6970 -34.6843 -34.6843 -34.6231 -34.6212
   -34.6212 -34.6148 -34.6118 -34.5934 -34.5905 -34.5449 -34.5449 -34.5365
   -34.5292 -34.5012 -34.4759 -34.4714 -34.4714 -34.4457 -34.4419 -34.4419
   -34.4354 -34.4287 -34.4093 -34.3955 -34.3955 -34.3817 -34.3802 -34.3802
   -34.3771 -34.3771 -34.3450 -34.3444 -34.3260 -34.3062 -34.3061 -34.3024
   -34.2870 -34.2870 -34.2792 -34.2655 -34.2594 -34.2538 -34.2538 -34.2489
    11.4647  13.4690  14.1800  14.1800  14.4660  14.4661  14.6698  14.7064
    14.7184  14.7640  14.7640  14.8176  15.2290  15.2290  15.2498  15.5828
    15.6965  15.9180  15.9180  15.9256  16.0166  16.0964  16.1767  16.1976
    16.1976  16.2538  16.3632  16.3632  16.5220  16.6186  16.6186  16.6324
    16.8998  17.0369  17.0370  17.1002  17.1095  17.1492  17.3204  17.3204
    17.3489  17.3489  17.5998  17.7109  17.7777  17.8251  17.9140  17.9141
    17.9713  17.9713  17.9976  18.2215  18.2216  18.3987  18.4181  18.4537
    18.4537  18.4823  18.5517  18.5815  18.6265  18.6265  18.6570  18.7472
    18.7614  18.7754  18.7932  18.8321  18.8572  18.8573  18.8827  18.8827
    18.9557  19.0357  19.3883  19.3883  19.3990  19.4067  19.4067  19.4522
    19.6037  19.8377  19.8377  19.8627  20.3607  20.3607  21.3266  21.5665
    21.5665  22.1847

          k = 0.1681 0.1681 0.3923 ( 11706 PWs)   bands (ev):

   -68.4804 -68.4581 -68.4258 -68.4258 -68.4181 -68.4180 -68.4067 -68.4029
   -68.3971 -68.3961 -68.3931 -68.3930 -68.3902 -68.3901 -68.3650 -68.3473
   -34.7005 -34.7005 -34.6911 -34.6820 -34.6542 -34.6542 -34.6496 -34.6495
   -34.6434 -34.6286 -34.6212 -34.6207 -34.5817 -34.5816 -34.5766 -34.5296
   -34.5138 -34.5077 -34.4676 -34.4676 -34.4642 -34.4633 -34.4520 -34.4520
   -34.4362 -34.4293 -34.4174 -34.3892 -34.3892 -34.3802 -34.3802 -34.3595
   -34.3533 -34.3533 -34.3451 -34.3230 -34.3181 -34.3059 -34.3059 -34.2901
   -34.2875 -34.2875 -34.2862 -34.2824 -34.2746 -34.2607 -34.2606 -34.2549
    11.8402  12.8725  14.3125  14.3125  14.4540  14.4540  14.8642  14.8765
    14.9078  14.9078  14.9443  15.0555  15.1819  15.1819  15.1859  15.3097
    15.5572  15.6196  16.0115  16.0614  16.0989  16.0989  16.1195  16.1208
    16.3154  16.3154  16.5065  16.5066  16.5668  16.5669  16.7868  16.8797
    16.9114  16.9114  16.9343  16.9343  17.0133  17.0507  17.0510  17.0964
    17.0964  17.1189  17.3964  17.3972  17.3972  17.5448  17.8783  17.9422
    18.0222  18.1828  18.1828  18.2632  18.2645  18.2645  18.2713  18.3800
    18.3801  18.5270  18.5270  18.6308  18.6342  18.6451  18.6726  18.7034
    18.7349  18.7542  18.7599  18.7692  18.8562  18.8818  18.9472  18.9472
    18.9893  18.9893  19.1364  19.3219  19.5569  19.5569  19.5680  19.5681
    19.6187  19.8105  19.8105  19.8357  20.0815  20.0815  21.8322  21.8322
    22.0317  22.2269

          k = 0.1681 0.1681-0.5043 ( 11754 PWs)   bands (ev):

   -68.4702 -68.4700 -68.4223 -68.4223 -68.4222 -68.4221 -68.4050 -68.4048
   -68.3967 -68.3965 -68.3915 -68.3915 -68.3913 -68.3912 -68.3555 -68.3553
   -34.6769 -34.6769 -34.6769 -34.6769 -34.6638 -34.6637 -34.6626 -34.6624
   -34.6238 -34.6237 -34.6195 -34.6195 -34.6195 -34.6195 -34.5554 -34.5552
   -34.4896 -34.4895 -34.4858 -34.4856 -34.4607 -34.4607 -34.4606 -34.4606
   -34.4249 -34.4247 -34.3967 -34.3966 -34.3844 -34.3844 -34.3843 -34.3843
   -34.3281 -34.3281 -34.3281 -34.3281 -34.3132 -34.3130 -34.3051 -34.3049
   -34.2945 -34.2943 -34.2723 -34.2723 -34.2723 -34.2723 -34.2663 -34.2663
    12.3175  12.3175  14.4090  14.4090  14.4091  14.4091  15.0451  15.0451
    15.0576  15.0577  15.0577  15.0577  15.0673  15.0673  15.2729  15.2730
    15.3224  15.3225  16.0296  16.0297  16.0868  16.0870  16.3883  16.3883
    16.3884  16.3884  16.4592  16.4592  16.4592  16.4592  16.8783  16.8783
    16.8784  16.8784  17.0287  17.0287  17.0287  17.0287  17.0322  17.0322
    17.0775  17.0777  17.1348  17.1349  17.1442  17.1443  18.0664  18.0665
    18.1023  18.1023  18.3146  18.3147  18.3159  18.3159  18.3159  18.3159
    18.3757  18.3757  18.3757  18.3757  18.7033  18.7034  18.7079  18.7081
    18.7302  18.7303  18.7618  18.7619  18.9738  18.9738  18.9958  18.9958
    18.9958  18.9959  19.0117  19.0119  19.7122  19.7123  19.7123  19.7123
    19.7502  19.7503  19.8073  19.8073  19.8073  19.8073  22.0784  22.0784
    22.0785  22.0785

          k = 0.1681 0.2802 0.2802 ( 11702 PWs)   bands (ev):

   -68.4831 -68.4420 -68.4419 -68.4268 -68.4203 -68.4124 -68.4123 -68.4033
   -68.3953 -68.3951 -68.3949 -68.3902 -68.3898 -68.3776 -68.3776 -68.3450
   -34.7127 -34.7039 -34.7039 -34.6772 -34.6772 -34.6570 -34.6340 -34.6330
   -34.6330 -34.6329 -34.6211 -34.5990 -34.5904 -34.5666 -34.5391 -34.5132
   -34.5088 -34.5087 -34.5019 -34.5018 -34.4805 -34.4586 -34.4586 -34.4579
   -34.4155 -34.4074 -34.4074 -34.4007 -34.4007 -34.3822 -34.3808 -34.3669
   -34.3587 -34.3556 -34.3481 -34.3481 -34.3279 -34.3057 -34.2961 -34.2892
   -34.2892 -34.2865 -34.2864 -34.2666 -34.2666 -34.2657 -34.2512 -34.2490
    11.7165  13.6357  13.6357  14.3237  14.3688  14.6695  14.6695  14.8059
    14.8407  14.8918  14.9354  14.9354  15.2993  15.2993  15.3358  15.6630
    15.6630  15.6664  15.8792  15.8821  16.0622  16.1605  16.1606  16.2462
    16.2784  16.2792  16.2793  16.4093  16.4897  16.5157  16.5933  16.7666
    16.7667  16.9584  16.9624  16.9666  16.9666  17.0166  17.0956  17.1723
    17.2296  17.2296  17.4993  17.4994  17.5868  17.5868  17.6609  17.8863
    18.0027  18.0027  18.0642  18.3141  18.3843  18.4083  18.4195  18.4195
    18.5268  18.5268  18.5298  18.5919  18.6098  18.6098  18.6350  18.7072
    18.7247  18.7248  18.7379  18.7699  18.7930  18.7930  18.7942  18.8609
    18.9438  19.0330  19.0330  19.3990  19.4928  19.5077  19.5077  19.5768
    19.5768  19.6057  19.8550  19.9253  20.0234  20.9423  20.9423  21.8572
    22.6952  22.6952

          k = 0.1681 0.2802 0.3923 ( 11708 PWs)   bands (ev):

   -68.4755 -68.4545 -68.4378 -68.4267 -68.4239 -68.4165 -68.4105 -68.4058
   -68.3949 -68.3947 -68.3930 -68.3905 -68.3859 -68.3796 -68.3671 -68.3507
   -34.6997 -34.6886 -34.6830 -34.6678 -34.6575 -34.6519 -34.6501 -34.6452
   -34.6380 -34.6303 -34.6269 -34.6238 -34.5938 -34.5754 -34.5468 -34.5299
   -34.5247 -34.4960 -34.4881 -34.4831 -34.4798 -34.4728 -34.4703 -34.4696
   -34.4350 -34.4141 -34.4068 -34.3938 -34.3910 -34.3844 -34.3791 -34.3707
   -34.3536 -34.3381 -34.3374 -34.3276 -34.3219 -34.3134 -34.3022 -34.2938
   -34.2857 -34.2856 -34.2798 -34.2716 -34.2705 -34.2703 -34.2534 -34.2513
    12.0815  13.0733  13.8477  14.2394  14.4841  14.6599  14.9409  14.9549
    15.0118  15.0267  15.0791  15.1661  15.2390  15.2570  15.3444  15.4252
    15.5950  15.6394  15.8844  15.9843  16.0541  16.1157  16.1673  16.1895
    16.2577  16.3422  16.3541  16.4150  16.5542  16.5660  16.6305  16.7277
    16.7414  16.8476  16.8582  16.8978  16.9064  16.9368  16.9530  16.9872
    17.0481  17.0898  17.1651  17.2124  17.2215  17.2782  17.7125  18.0848
    18.0905  18.1984  18.2178  18.3034  18.3290  18.3441  18.3770  18.3793
    18.4742  18.5112  18.5156  18.5272  18.5889  18.6136  18.6269  18.6695
    18.7027  18.7395  18.7604  18.7702  18.7759  18.8179  18.8424  18.8646
    18.9280  18.9488  19.1612  19.2377  19.2414  19.4347  19.5282  19.7167
    19.7225  19.7233  19.8593  19.9079  19.9219  20.5869  21.5659  22.1992
    22.7762  22.8594

          k = 0.1681 0.2802-0.5043 ( 11722 PWs)   bands (ev):

   -68.4659 -68.4657 -68.4328 -68.4326 -68.4206 -68.4204 -68.4084 -68.4082
   -68.3948 -68.3946 -68.3917 -68.3914 -68.3825 -68.3823 -68.3582 -68.3580
   -34.6805 -34.6805 -34.6699 -34.6698 -34.6568 -34.6568 -34.6567 -34.6566
   -34.6368 -34.6367 -34.6234 -34.6234 -34.5864 -34.5864 -34.5550 -34.5548
   -34.5030 -34.5029 -34.4858 -34.4857 -34.4792 -34.4791 -34.4622 -34.4622
   -34.4294 -34.4293 -34.4118 -34.4116 -34.3887 -34.3886 -34.3614 -34.3612
   -34.3522 -34.3522 -34.3184 -34.3184 -34.3099 -34.3098 -34.3019 -34.3018
   -34.2989 -34.2987 -34.2769 -34.2769 -34.2604 -34.2604 -34.2584 -34.2584
    12.5426  12.5426  14.0618  14.0618  14.6050  14.6051  15.0985  15.0985
    15.1551  15.1551  15.2094  15.2095  15.2300  15.2301  15.2945  15.2946
    15.4126  15.4127  16.0749  16.0750  16.1325  16.1326  16.2012  16.2012
    16.2223  16.2224  16.3555  16.3556  16.4770  16.4770  16.8434  16.8434
    16.8599  16.8600  16.8842  16.8842  16.8942  16.8942  16.9131  16.9132
    16.9615  16.9615  16.9964  16.9965  17.0010  17.0011  17.9872  17.9873
    18.2079  18.2080  18.3044  18.3044  18.3428  18.3429  18.3751  18.3752
    18.3790  18.3791  18.4271  18.4271  18.6627  18.6629  18.6870  18.6871
    18.6964  18.6966  18.7714  18.7715  18.8059  18.8060  18.9188  18.9189
    18.9524  18.9526  19.0477  19.0477  19.4305  19.4306  19.4913  19.4913
    19.8138  19.8139  19.8479  19.8480  20.2421  20.2421  22.2072  22.2073
    22.5301  22.5301

          k = 0.1681 0.3923 0.3923 ( 11726 PWs)   bands (ev):

   -68.4684 -68.4493 -68.4493 -68.4350 -68.4213 -68.4144 -68.4143 -68.4088
   -68.3939 -68.3932 -68.3931 -68.3910 -68.3797 -68.3703 -68.3703 -68.3557
   -34.6915 -34.6721 -34.6721 -34.6582 -34.6581 -34.6536 -34.6497 -34.6497
   -34.6466 -34.6425 -34.6358 -34.6104 -34.5879 -34.5637 -34.5257 -34.5223
   -34.5222 -34.5084 -34.5084 -34.4942 -34.4923 -34.4919 -34.4919 -34.4613
   -34.4280 -34.4075 -34.4063 -34.4062 -34.3992 -34.3991 -34.3889 -34.3543
   -34.3518 -34.3297 -34.3297 -34.3221 -34.3218 -34.3059 -34.3004 -34.3004
   -34.2918 -34.2847 -34.2847 -34.2843 -34.2598 -34.2597 -34.2505 -34.2494
    12.4286  13.3478  13.3478  13.9712  14.6901  14.9439  14.9439  15.0393
    15.1246  15.2025  15.2327  15.2327  15.3050  15.3050  15.4906  15.5334
    15.6203  15.6574  15.6575  15.9200  16.0970  16.1274  16.1895  16.1895
    16.2027  16.2027  16.2709  16.3056  16.4141  16.4859  16.6723  16.6751
    16.6751  16.7617  16.8216  16.8352  16.8353  16.8686  16.8896  16.8897
    16.8971  16.9089  16.9090  16.9904  17.0844  17.4096  17.4096  17.9711
    18.2513  18.2513  18.3105  18.3125  18.3615  18.3739  18.4778  18.4848
    18.5427  18.5427  18.5564  18.5564  18.5720  18.5809  18.5809  18.6522
    18.6638  18.7242  18.7242  18.7371  18.7842  18.8254  18.8254  18.8484
    18.8485  18.9129  18.9913  19.0321  19.2826  19.2826  19.3423  19.4144
    19.8335  19.8336  19.8958  19.9551  20.3010  21.1311  21.1311  22.2670
    22.6266  23.4103

          k = 0.1681 0.3923-0.5043 ( 11714 PWs)   bands (ev):

   -68.4597 -68.4595 -68.4427 -68.4425 -68.4181 -68.4179 -68.4118 -68.4116
   -68.3935 -68.3933 -68.3920 -68.3918 -68.3746 -68.3744 -68.3623 -68.3621
   -34.6769 -34.6769 -34.6615 -34.6615 -34.6532 -34.6530 -34.6526 -34.6526
   -34.6479 -34.6478 -34.6297 -34.6297 -34.5487 -34.5487 -34.5453 -34.5451
   -34.5121 -34.5120 -34.5090 -34.5089 -34.4975 -34.4974 -34.4678 -34.4678
   -34.4339 -34.4339 -34.4035 -34.4034 -34.3935 -34.3935 -34.3783 -34.3782
   -34.3407 -34.3405 -34.3099 -34.3098 -34.3089 -34.3087 -34.3026 -34.3025
   -34.3014 -34.3013 -34.2840 -34.2840 -34.2527 -34.2526 -34.2522 -34.2522
    12.8609  12.8609  13.6616  13.6616  14.8613  14.8613  15.1462  15.1462
    15.1941  15.1941  15.2643  15.2644  15.4249  15.4250  15.4462  15.4462
    15.5246  15.5247  15.9506  15.9507  16.0581  16.0582  16.1041  16.1041
    16.1304  16.1305  16.2489  16.2490  16.5269  16.5269  16.6362  16.6363
    16.7302  16.7303  16.7336  16.7336  16.7400  16.7400  16.7812  16.7812
    16.9418  16.9419  16.9473  16.9473  17.1334  17.1334  17.6649  17.6650
    18.3228  18.3229  18.3942  18.3943  18.4313  18.4314  18.4385  18.4386
    18.5411  18.5411  18.5645  18.5645  18.5944  18.5945  18.6370  18.6372
    18.6751  18.6752  18.6837  18.6838  18.7860  18.7861  18.8021  18.8022
    18.8728  18.8729  19.1037  19.1037  19.1212  19.1212  19.3024  19.3024
    19.8918  19.8918  19.9217  19.9217  20.7115  20.7115  21.6931  21.6932
    23.0532  23.0532

          k = 0.1681-0.5043-0.5043 ( 11688 PWs)   bands (ev):

   -68.4519 -68.4518 -68.4518 -68.4515 -68.4152 -68.4150 -68.4150 -68.4148
   -68.3926 -68.3925 -68.3925 -68.3922 -68.3679 -68.3677 -68.3677 -68.3674
   -34.6669 -34.6669 -34.6669 -34.6669 -34.6548 -34.6547 -34.6547 -34.6546
   -34.6382 -34.6381 -34.6381 -34.6381 -34.5292 -34.5291 -34.5291 -34.5289
   -34.5101 -34.5100 -34.5100 -34.5100 -34.5085 -34.5085 -34.5084 -34.5084
   -34.4056 -34.4055 -34.4055 -34.4055 -34.3982 -34.3982 -34.3981 -34.3981
   -34.3230 -34.3229 -34.3229 -34.3227 -34.3040 -34.3039 -34.3039 -34.3038
   -34.2930 -34.2929 -34.2929 -34.2929 -34.2500 -34.2499 -34.2499 -34.2499
    13.2464  13.2464  13.2464  13.2464  15.1125  15.1125  15.1125  15.1125
    15.1848  15.1849  15.1849  15.1849  15.5854  15.5854  15.5854  15.5854
    15.6810  15.6810  15.6810  15.6811  16.0021  16.0021  16.0021  16.0022
    16.1749  16.1749  16.1749  16.1749  16.6075  16.6076  16.6076  16.6078
    16.6126  16.6126  16.6127  16.6127  16.7209  16.7209  16.7209  16.7210
    16.9218  16.9218  16.9218  16.9219  17.3735  17.3736  17.3736  17.3736
    18.3985  18.3985  18.3985  18.3985  18.5114  18.5114  18.5114  18.5115
    18.5965  18.5965  18.5965  18.5967  18.6175  18.6175  18.6175  18.6177
    18.6275  18.6276  18.6276  18.6277  18.8364  18.8364  18.8364  18.8365
    18.8379  18.8379  18.8379  18.8379  19.1761  19.1761  19.1761  19.1761
    19.9347  19.9347  19.9348  19.9348  21.1969  21.1970  21.1970  21.1970
    23.5890  23.5890

          k = 0.2802 0.2802 0.2802 ( 11704 PWs)   bands (ev):

   -68.4782 -68.4392 -68.4392 -68.4392 -68.4186 -68.4186 -68.4186 -68.4066
   -68.3934 -68.3904 -68.3904 -68.3903 -68.3788 -68.3788 -68.3787 -68.3486
   -34.6979 -34.6979 -34.6979 -34.6543 -34.6543 -34.6543 -34.6408 -34.6408
   -34.6408 -34.6392 -34.6091 -34.6091 -34.5788 -34.5788 -34.5325 -34.5325
   -34.5325 -34.5126 -34.5126 -34.5126 -34.4880 -34.4780 -34.4780 -34.4780
   -34.3848 -34.3848 -34.3848 -34.3846 -34.3834 -34.3834 -34.3834 -34.3770
   -34.3770 -34.3497 -34.3496 -34.3496 -34.3165 -34.3022 -34.3022 -34.3022
   -34.2808 -34.2808 -34.2807 -34.2649 -34.2648 -34.2648 -34.2603 -34.2603
    11.9636  13.8143  13.8143  13.8143  14.5853  14.5853  14.5853  14.9325
    14.9325  15.0614  15.0614  15.0614  15.4356  15.4356  15.4356  15.6541
    15.6541  15.6541  15.6783  16.0550  16.0550  16.0846  16.2082  16.2083
    16.2083  16.3938  16.3938  16.3938  16.4073  16.4073  16.6343  16.6344
    16.6344  16.8649  16.8649  16.8650  16.9017  16.9017  16.9017  16.9746
    16.9746  17.2465  17.2465  17.2465  17.3119  17.3119  17.3119  18.0838
    18.1052  18.1052  18.1052  18.2963  18.4698  18.4698  18.4947  18.4947
    18.4947  18.5222  18.5222  18.5222  18.5870  18.5870  18.5870  18.7127
    18.7127  18.7127  18.7342  18.7342  18.8318  18.8318  18.8318  18.8552
    18.8552  19.1881  19.1881  19.1881  19.5457  19.5457  19.5458  19.6222
    19.6222  19.6222  19.6375  19.6375  20.5224  20.5224  20.5224  22.8630
    22.9940  22.9940

          k = 0.2802 0.2802 0.3923 ( 11724 PWs)   bands (ev):

   -68.4709 -68.4510 -68.4353 -68.4352 -68.4247 -68.4247 -68.4162 -68.4100
   -68.3921 -68.3907 -68.3864 -68.3864 -68.3807 -68.3806 -68.3691 -68.3538
   -34.6861 -34.6860 -34.6762 -34.6542 -34.6542 -34.6508 -34.6436 -34.6416
   -34.6260 -34.6260 -34.6245 -34.6157 -34.5916 -34.5622 -34.5622 -34.5554
   -34.5427 -34.5150 -34.5150 -34.5027 -34.4954 -34.4950 -34.4950 -34.4621
   -34.4192 -34.4094 -34.3869 -34.3838 -34.3716 -34.3716 -34.3597 -34.3597
   -34.3539 -34.3539 -34.3418 -34.3215 -34.3186 -34.3186 -34.3077 -34.3009
   -34.2848 -34.2762 -34.2743 -34.2743 -34.2691 -34.2656 -34.2656 -34.2585
    12.3205  13.2798  14.0435  14.0435  14.4609  14.4609  14.8924  15.0659
    15.0984  15.1987  15.1987  15.2886  15.4018  15.4348  15.4375  15.4375
    15.6660  15.6763  15.8246  15.8246  16.0742  16.1607  16.2204  16.2629
    16.2945  16.2946  16.3069  16.4318  16.4318  16.5209  16.5209  16.5489
    16.6562  16.6562  16.7489  16.7718  16.7718  16.8091  16.8139  16.8762
    16.9157  16.9448  16.9978  16.9979  17.0031  17.0031  17.4036  17.9578
    18.1866  18.2487  18.2488  18.3086  18.3857  18.4898  18.4898  18.5149
    18.5149  18.5404  18.5404  18.5537  18.6127  18.6178  18.6944  18.7194
    18.7248  18.7306  18.7318  18.7318  18.7780  18.8111  18.8259  18.8259
    18.8616  18.9580  19.3400  19.3620  19.4797  19.4798  19.5697  19.5697
    19.6521  19.6521  19.6560  19.7114  20.1556  20.1556  21.0757  22.2450
    23.3410  23.3410

          k = 0.2802 0.2802-0.5043 ( 11732 PWs)   bands (ev):

   -68.4618 -68.4616 -68.4305 -68.4305 -68.4303 -68.4302 -68.4134 -68.4132
   -68.3914 -68.3911 -68.3833 -68.3833 -68.3831 -68.3830 -68.3608 -68.3606
   -34.6704 -34.6704 -34.6704 -34.6704 -34.6487 -34.6485 -34.6472 -34.6471
   -34.6358 -34.6357 -34.5946 -34.5946 -34.5946 -34.5945 -34.5693 -34.5691
   -34.5295 -34.5294 -34.5083 -34.5083 -34.5082 -34.5081 -34.4566 -34.4566
   -34.4358 -34.4358 -34.3870 -34.3869 -34.3615 -34.3614 -34.3613 -34.3613
   -34.3378 -34.3378 -34.3378 -34.3378 -34.3108 -34.3106 -34.3026 -34.3025
   -34.2968 -34.2966 -34.2691 -34.2691 -34.2691 -34.2691 -34.2614 -34.2614
    12.7687  12.7687  14.2750  14.2750  14.2751  14.2751  15.2358  15.2358
    15.2671  15.2672  15.2706  15.2706  15.3322  15.3322  15.3322  15.3322
    15.5247  15.5247  16.1127  16.1128  16.1304  16.1304  16.1305  16.1305
    16.1748  16.1749  16.4065  16.4065  16.4065  16.4066  16.6033  16.6034
    16.6880  16.6880  16.7891  16.7891  16.7891  16.7892  16.8000  16.8000
    16.8001  16.8001  16.8189  16.8189  16.8409  16.8410  17.6496  17.6496
    18.2867  18.2867  18.3940  18.3940  18.3940  18.3941  18.5127  18.5127
    18.5127  18.5127  18.5495  18.5495  18.6519  18.6520  18.6572  18.6574
    18.7257  18.7258  18.7287  18.7288  18.7823  18.7823  18.7824  18.7824
    19.0653  19.0655  19.1163  19.1164  19.6222  19.6222  19.6222  19.6222
    19.7150  19.7151  19.8105  19.8105  19.8105  19.8106  21.6523  21.6523
    23.6403  23.6403

          k = 0.2802 0.3923 0.3923 ( 11714 PWs)   bands (ev):

   -68.4642 -68.4461 -68.4460 -68.4325 -68.4316 -68.4219 -68.4218 -68.4142
   -68.3900 -68.3872 -68.3872 -68.3822 -68.3806 -68.3720 -68.3719 -68.3584
   -34.6771 -34.6665 -34.6665 -34.6529 -34.6509 -34.6509 -34.6394 -34.6298
   -34.6296 -34.6296 -34.6200 -34.5950 -34.5885 -34.5829 -34.5634 -34.5442
   -34.5442 -34.5285 -34.5272 -34.5271 -34.5209 -34.5209 -34.5170 -34.4529
   -34.4357 -34.3838 -34.3838 -34.3718 -34.3718 -34.3707 -34.3561 -34.3524
   -34.3408 -34.3377 -34.3293 -34.3266 -34.3265 -34.3107 -34.3107 -34.3052
   -34.2844 -34.2835 -34.2835 -34.2778 -34.2665 -34.2665 -34.2635 -34.2610
    12.6632  13.5626  13.5626  14.1989  14.3006  14.7729  14.7730  15.1812
    15.2704  15.2988  15.4064  15.4064  15.4304  15.4304  15.5045  15.6469
    15.6604  15.6605  15.7406  15.7733  16.1273  16.1637  16.2349  16.2349
    16.2378  16.2642  16.2642  16.2652  16.3663  16.4136  16.4612  16.5849
    16.5849  16.6058  16.6059  16.6436  16.6593  16.6959  16.6959  16.7369
    16.7369  16.7682  16.7977  16.8244  16.8345  17.1091  17.1091  17.6209
    18.3081  18.3081  18.3428  18.4224  18.5036  18.5431  18.5499  18.5499
    18.5526  18.5634  18.6407  18.6407  18.6448  18.6552  18.6663  18.7169
    18.7169  18.7219  18.7280  18.7280  18.7553  18.7553  18.7981  18.8323
    19.0129  19.1352  19.1352  19.2501  19.3836  19.3837  19.4508  19.6574
    19.6575  19.6766  19.7017  19.7911  19.8478  20.6427  20.6427  21.6851
    23.7669  24.3913

          k = 0.2802 0.3923-0.5043 ( 11700 PWs)   bands (ev):

   -68.4559 -68.4557 -68.4399 -68.4397 -68.4271 -68.4269 -68.4183 -68.4181
   -68.3885 -68.3883 -68.3845 -68.3843 -68.3759 -68.3757 -68.3646 -68.3644
   -34.6642 -34.6642 -34.6574 -34.6573 -34.6427 -34.6426 -34.6420 -34.6419
   -34.6342 -34.6341 -34.6062 -34.6062 -34.5695 -34.5693 -34.5613 -34.5613
   -34.5461 -34.5460 -34.5345 -34.5344 -34.5305 -34.5304 -34.4898 -34.4898
   -34.4094 -34.4093 -34.3705 -34.3704 -34.3615 -34.3615 -34.3595 -34.3595
   -34.3370 -34.3369 -34.3243 -34.3243 -34.3063 -34.3062 -34.3057 -34.3056
   -34.3029 -34.3027 -34.2810 -34.2810 -34.2641 -34.2641 -34.2624 -34.2623
    13.0880  13.0880  13.8852  13.8852  14.5658  14.5658  15.1443  15.1444
    15.3012  15.3013  15.3687  15.3687  15.4719  15.4720  15.5730  15.5730
    15.6657  15.6657  15.9544  15.9545  16.0179  16.0180  16.1290  16.1291
    16.1752  16.1753  16.3228  16.3229  16.4234  16.4234  16.4714  16.4714
    16.5130  16.5130  16.5905  16.5906  16.6349  16.6349  16.6777  16.6777
    16.7338  16.7339  16.7694  16.7694  16.8542  16.8542  17.3255  17.3255
    18.3772  18.3772  18.4260  18.4261  18.4513  18.4513  18.6013  18.6014
    18.6160  18.6161  18.6544  18.6545  18.6658  18.6658  18.6769  18.6770
    18.7249  18.7249  18.7628  18.7629  18.7647  18.7648  18.8366  18.8366
    19.0054  19.0056  19.1620  19.1621  19.4011  19.4011  19.4553  19.4554
    19.6897  19.6898  19.6922  19.6923  20.2375  20.2375  21.1547  21.1547
    24.1684  24.1685

          k = 0.2802-0.5043-0.5043 ( 11704 PWs)   bands (ev):

   -68.4486 -68.4484 -68.4484 -68.4482 -68.4231 -68.4229 -68.4229 -68.4227
   -68.3863 -68.3861 -68.3861 -68.3858 -68.3697 -68.3696 -68.3696 -68.3693
   -34.6536 -34.6536 -34.6536 -34.6536 -34.6459 -34.6458 -34.6458 -34.6457
   -34.6199 -34.6198 -34.6198 -34.6197 -34.5562 -34.5561 -34.5561 -34.5559
   -34.5461 -34.5460 -34.5460 -34.5460 -34.5258 -34.5258 -34.5257 -34.5257
   -34.3837 -34.3836 -34.3836 -34.3836 -34.3634 -34.3634 -34.3633 -34.3633
   -34.3171 -34.3170 -34.3170 -34.3168 -34.3134 -34.3133 -34.3133 -34.3133
   -34.2947 -34.2946 -34.2946 -34.2945 -34.2624 -34.2624 -34.2624 -34.2624
    13.4735  13.4735  13.4735  13.4735  14.8851  14.8851  14.8851  14.8851
    15.3498  15.3499  15.3499  15.3499  15.7168  15.7169  15.7169  15.7169
    15.7749  15.7749  15.7749  15.7749  15.9450  15.9451  15.9451  15.9451
    16.2446  16.2447  16.2447  16.2447  16.4358  16.4359  16.4359  16.4360
    16.5273  16.5273  16.5273  16.5274  16.5582  16.5582  16.5582  16.5582
    16.7280  16.7280  16.7280  16.7281  17.0473  17.0473  17.0473  17.0474
    18.4382  18.4383  18.4383  18.4383  18.5267  18.5268  18.5268  18.5269
    18.6089  18.6090  18.6090  18.6092  18.7429  18.7430  18.7430  18.7431
    18.7571  18.7572  18.7572  18.7572  18.8351  18.8352  18.8352  18.8353
    19.1365  19.1366  19.1366  19.1366  19.2407  19.2408  19.2408  19.2409
    19.7057  19.7057  19.7058  19.7058  20.6871  20.6872  20.6872  20.6872
    24.7043  24.7043

          k = 0.3923 0.3923 0.3923 ( 11689 PWs)   bands (ev):

   -68.4581 -68.4414 -68.4414 -68.4414 -68.4290 -68.4290 -68.4289 -68.4197
   -68.3867 -68.3821 -68.3821 -68.3820 -68.3745 -68.3745 -68.3744 -68.3625
   -34.6565 -34.6564 -34.6564 -34.6450 -34.6450 -34.6449 -34.6289 -34.6116
   -34.6116 -34.6048 -34.6048 -34.6048 -34.5987 -34.5987 -34.5601 -34.5601
   -34.5601 -34.5513 -34.5512 -34.5512 -34.5453 -34.5453 -34.5453 -34.4841
   -34.4096 -34.3616 -34.3616 -34.3616 -34.3486 -34.3486 -34.3486 -34.3371
   -34.3371 -34.3261 -34.3261 -34.3261 -34.3248 -34.3247 -34.3247 -34.3082
   -34.2824 -34.2824 -34.2824 -34.2781 -34.2781 -34.2745 -34.2745 -34.2744
    12.9977  13.8585  13.8585  13.8585  14.5205  14.5205  14.5205  15.2813
    15.3676  15.3676  15.5398  15.5398  15.5398  15.6267  15.6267  15.6267
    15.6760  15.6761  15.6761  15.8884  16.1762  16.1762  16.2006  16.2006
    16.2527  16.2527  16.2527  16.3048  16.3048  16.3048  16.4062  16.4062
    16.4062  16.5148  16.5148  16.5148  16.5530  16.5530  16.5530  16.5850
    16.5850  16.5850  16.6956  16.6956  16.8197  16.8197  16.8197  17.2831
    18.3925  18.3925  18.3925  18.5008  18.5008  18.5457  18.5457  18.5457
    18.6609  18.6609  18.6673  18.6673  18.6673  18.6931  18.6931  18.6931
    18.7366  18.7366  18.7366  18.8452  18.8653  18.8653  18.8653  18.9780
    18.9780  19.4069  19.4069  19.4273  19.4274  19.4274  19.4768  19.4768
    19.4768  19.5045  19.5045  19.5046  20.2247  20.2247  20.2247  21.1676
    25.0399  25.0399

          k = 0.3923 0.3923-0.5043 ( 11706 PWs)   bands (ev):

   -68.4505 -68.4503 -68.4357 -68.4357 -68.4356 -68.4355 -68.4247 -68.4245
   -68.3842 -68.3840 -68.3780 -68.3779 -68.3778 -68.3777 -68.3679 -68.3677
   -34.6471 -34.6471 -34.6471 -34.6471 -34.6309 -34.6308 -34.6301 -34.6299
   -34.6169 -34.6168 -34.5882 -34.5881 -34.5780 -34.5780 -34.5780 -34.5779
   -34.5734 -34.5733 -34.5607 -34.5607 -34.5607 -34.5606 -34.5177 -34.5176
   -34.3847 -34.3846 -34.3436 -34.3435 -34.3419 -34.3419 -34.3419 -34.3419
   -34.3329 -34.3329 -34.3328 -34.3328 -34.3144 -34.3143 -34.3076 -34.3074
   -34.3000 -34.2998 -34.2803 -34.2802 -34.2802 -34.2802 -34.2746 -34.2746
    13.4083  13.4083  14.1970  14.1970  14.1970  14.1970  14.9039  14.9039
    15.4887  15.4887  15.5572  15.5572  15.6123  15.6123  15.6123  15.6123
    15.8124  15.8125  15.9495  15.9495  15.9496  15.9496  16.1817  16.1818
    16.2313  16.2313  16.2380  16.2382  16.3184  16.3184  16.4004  16.4004
    16.4004  16.4005  16.5198  16.5198  16.5199  16.5199  16.5747  16.5747
    16.5747  16.5747  16.6054  16.6054  16.6094  16.6095  16.9974  16.9975
    18.4484  18.4484  18.4829  18.4829  18.4830  18.4830  18.5930  18.5931
    18.6006  18.6007  18.6654  18.6654  18.6675  18.6675  18.6676  18.6676
    18.8390  18.8391  18.8391  18.8391  18.8839  18.8840  19.1260  19.1262
    19.1491  19.1492  19.1788  19.1789  19.4421  19.4422  19.4422  19.4422
    19.4917  19.4918  19.8412  19.8412  19.8412  19.8412  20.6851  20.6852
    25.3639  25.3639

          k = 0.3923-0.5043-0.5043 ( 11692 PWs)   bands (ev):

   -68.4437 -68.4436 -68.4436 -68.4433 -68.4307 -68.4305 -68.4305 -68.4303
   -68.3808 -68.3806 -68.3806 -68.3804 -68.3725 -68.3723 -68.3723 -68.3721
   -34.6341 -34.6341 -34.6340 -34.6340 -34.6303 -34.6302 -34.6302 -34.6301
   -34.5973 -34.5973 -34.5973 -34.5972 -34.5840 -34.5839 -34.5839 -34.5837
   -34.5796 -34.5795 -34.5795 -34.5795 -34.5479 -34.5478 -34.5478 -34.5478
   -34.3622 -34.3621 -34.3621 -34.3621 -34.3315 -34.3315 -34.3314 -34.3314
   -34.3266 -34.3265 -34.3265 -34.3265 -34.3101 -34.3100 -34.3100 -34.3098
   -34.2982 -34.2981 -34.2981 -34.2980 -34.2803 -34.2802 -34.2802 -34.2802
    13.7928  13.7928  13.7928  13.7928  14.5591  14.5591  14.5591  14.5591
    15.5758  15.5758  15.5758  15.5759  15.7661  15.7661  15.7661  15.7662
    15.8848  15.8849  15.8849  15.8849  15.9338  15.9339  15.9339  15.9339
    16.3226  16.3226  16.3226  16.3226  16.3396  16.3396  16.3396  16.3397
    16.3601  16.3602  16.3602  16.3603  16.4865  16.4865  16.4865  16.4865
    16.5408  16.5408  16.5408  16.5409  16.7219  16.7220  16.7220  16.7220
    18.4997  18.4997  18.4997  18.4998  18.5505  18.5506  18.5506  18.5507
    18.5949  18.5950  18.5950  18.5952  18.6569  18.6569  18.6569  18.6570
    18.9406  18.9407  18.9407  18.9407  19.0341  19.0342  19.0342  19.0343
    19.2420  19.2421  19.2421  19.2422  19.4373  19.4373  19.4373  19.4373
    19.4843  19.4844  19.4844  19.4844  20.2523  20.2524  20.2524  20.2524
    25.9136  25.9136

          k =-0.5043-0.5043-0.5043 ( 11656 PWs)   bands (ev):

   -68.4377 -68.4376 -68.4376 -68.4376 -68.4374 -68.4374 -68.4374 -68.4371
   -68.3762 -68.3760 -68.3760 -68.3760 -68.3759 -68.3759 -68.3759 -68.3755
   -34.6091 -34.6091 -34.6091 -34.6090 -34.6090 -34.6090 -34.6090 -34.6090
   -34.6089 -34.6089 -34.6088 -34.6088 -34.6088 -34.6087 -34.6087 -34.6087
   -34.5725 -34.5725 -34.5725 -34.5725 -34.5724 -34.5724 -34.5724 -34.5724
   -34.3428 -34.3427 -34.3427 -34.3427 -34.3426 -34.3426 -34.3426 -34.3426
   -34.3037 -34.3037 -34.3037 -34.3037 -34.3037 -34.3037 -34.3036 -34.3036
   -34.3035 -34.3035 -34.3035 -34.3035 -34.3035 -34.3034 -34.3034 -34.3034
    14.1722  14.1722  14.1722  14.1722  14.1722  14.1722  14.1722  14.1722
    15.8240  15.8240  15.8240  15.8240  15.8240  15.8240  15.8240  15.8240
    15.8240  15.8240  15.8240  15.8241  15.8241  15.8241  15.8241  15.8241
    16.4051  16.4051  16.4051  16.4051  16.4051  16.4051  16.4052  16.4052
    16.4053  16.4053  16.4053  16.4053  16.4053  16.4054  16.4054  16.4054
    16.4383  16.4383  16.4383  16.4383  16.4384  16.4384  16.4384  16.4384
    18.5747  18.5747  18.5747  18.5747  18.5747  18.5748  18.5748  18.5748
    18.5748  18.5748  18.5748  18.5749  18.5749  18.5749  18.5750  18.5750
    19.1728  19.1728  19.1728  19.1728  19.1728  19.1728  19.1729  19.1729
    19.1730  19.1730  19.1730  19.1730  19.1730  19.1731  19.1731  19.1731
    19.8569  19.8570  19.8570  19.8570  19.8570  19.8570  19.8570  19.8570
    27.0850  27.0850

 ------ SPIN DOWN ----------


          k = 0.0560 0.0560 0.0560 ( 11666 PWs)   bands (ev):

   -66.0496 -65.9580 -65.9580 -65.9580 -65.9432 -65.9431 -65.9431 -65.9418
   -65.9417 -65.9417 -65.9416 -65.9416 -65.9415 -65.9352 -65.9346 -65.8642
   -32.3801 -32.3801 -32.3801 -32.3772 -32.3772 -32.3772 -32.2209 -32.2209
   -32.2142 -32.1469 -32.1440 -32.1440 -32.1440 -32.1233 -32.1233 -32.1105
   -32.1105 -32.1105 -32.0752 -32.0752 -32.0516 -32.0357 -32.0357 -32.0357
   -32.0249 -32.0249 -32.0249 -32.0124 -32.0124 -32.0124 -32.0093 -32.0093
   -32.0093 -32.0015 -32.0015 -32.0014 -31.9911 -31.9911 -31.9911 -31.8350
   -31.8335 -31.8334 -31.8334 -31.8305 -31.8305 -31.8304 -31.8276 -31.8276
    10.9653  14.9550  14.9551  14.9551  15.5398  15.5398  15.5398  15.5784
    15.5784  15.5784  15.5889  15.5889  15.5889  16.1891  16.1891  17.3181
    17.3976  17.3976  17.5046  17.5046  17.5245  17.5767  17.5767  17.5767
    17.5901  17.5901  17.5901  18.3334  18.3334  18.3335  18.7317  18.7317
    18.7317  18.9471  18.9471  18.9946  19.2215  19.2216  19.2216  19.3698
    19.3698  19.3699  19.4113  19.4113  19.4113  19.5200  19.5200  19.5200
    19.9887  19.9887  19.9887  20.0404  20.0404  20.0404  20.3235  20.3235
    20.3235  20.5778  20.5778  20.5778  21.0628  21.0628  21.0628  21.0887
    21.0887  21.0887  21.2556  21.2556  21.5436  21.5436  21.5436  21.5914
    21.5914  21.5924  21.5924  21.6944  21.6944  21.6944  21.7894  21.8737
    21.8737  22.1408  22.1408  22.1408  22.2523  22.2524  22.2524  22.2999
    22.2999  22.2999

          k = 0.0560 0.0560 0.1681 ( 11679 PWs)   bands (ev):

   -66.0466 -65.9745 -65.9574 -65.9573 -65.9449 -65.9449 -65.9427 -65.9416
   -65.9415 -65.9411 -65.9407 -65.9407 -65.9355 -65.9349 -65.9263 -65.8664
   -32.3724 -32.3724 -32.3714 -32.3689 -32.3639 -32.3638 -32.2235 -32.2143
   -32.2042 -32.1822 -32.1741 -32.1740 -32.1720 -32.1710 -32.1415 -32.1415
   -32.1078 -32.0809 -32.0720 -32.0701 -32.0586 -32.0355 -32.0355 -32.0280
   -32.0180 -32.0159 -32.0159 -32.0149 -32.0144 -32.0069 -32.0069 -32.0020
   -32.0020 -31.9979 -31.9979 -31.9680 -31.9655 -31.9654 -31.9584 -31.8498
   -31.8424 -31.8424 -31.8409 -31.8386 -31.8342 -31.8334 -31.8334 -31.8309
    11.1004  14.2504  15.0239  15.0239  15.5196  15.5196  15.6388  15.6388
    15.6399  15.6444  15.6444  15.6771  16.0848  16.2415  16.2576  17.2202
    17.3069  17.3420  17.4244  17.5525  17.5647  17.6279  17.6280  17.6415
    17.6680  17.6683  17.6683  17.9197  18.2371  18.2371  18.5513  18.5513
    18.9188  18.9389  18.9730  19.0096  19.0096  19.0571  19.0779  19.1878
    19.1878  19.4279  19.6151  19.6151  19.6208  19.6208  19.6468  19.6813
    19.6813  19.6997  19.6997  19.7128  19.7324  19.7511  20.0754  20.5528
    20.5528  20.8017  20.8017  20.8303  20.9803  20.9804  21.0518  21.0518
    21.0897  21.1118  21.1741  21.2873  21.5466  21.5513  21.5543  21.5877
    21.5902  21.6003  21.6152  21.6393  21.6394  21.7209  21.8670  21.9320
    21.9483  21.9483  22.1395  22.1395  22.1621  22.1621  22.3422  22.3422
    22.4858  22.4858

          k = 0.0560 0.0560 0.2802 ( 11685 PWs)   bands (ev):

   -66.0402 -65.9905 -65.9561 -65.9560 -65.9471 -65.9471 -65.9418 -65.9412
   -65.9412 -65.9403 -65.9402 -65.9401 -65.9365 -65.9357 -65.9118 -65.8713
   -32.3547 -32.3547 -32.3542 -32.3523 -32.3408 -32.3408 -32.2245 -32.2223
   -32.2168 -32.2143 -32.2143 -32.2017 -32.1934 -32.1905 -32.1841 -32.1841
   -32.1029 -32.0934 -32.0909 -32.0766 -32.0338 -32.0338 -32.0298 -32.0287
   -32.0241 -32.0196 -32.0196 -32.0049 -32.0049 -32.0022 -32.0022 -31.9836
   -31.9757 -31.9642 -31.9642 -31.9363 -31.9338 -31.9338 -31.9277 -31.8736
   -31.8567 -31.8566 -31.8555 -31.8541 -31.8452 -31.8424 -31.8423 -31.8402
    11.3671  13.5374  15.1442  15.1442  15.5042  15.5042  15.7142  15.7142
    15.7311  15.7311  15.8322  15.8662  16.3332  16.3932  16.3974  17.0423
    17.0678  17.3294  17.3596  17.5088  17.5188  17.5255  17.7419  17.7419
    17.8087  17.8087  17.8598  17.8907  18.1482  18.1482  18.3979  18.3979
    18.7196  18.7196  18.8786  18.8786  18.8978  18.9279  18.9729  18.9785
    19.1419  19.1419  19.1507  19.2216  19.2216  19.3088  19.3139  19.7596
    19.8406  19.9278  19.9288  19.9288  19.9397  19.9397  20.0395  20.8470
    20.8470  20.8624  20.8624  20.9480  20.9480  21.0141  21.0737  21.1015
    21.1015  21.1412  21.1592  21.3160  21.3485  21.4483  21.4802  21.4851
    21.5525  21.5789  21.5818  21.5852  21.7656  21.7656  21.7791  21.7931
    21.9980  21.9980  22.0508  22.0508  22.1344  22.1344  22.4694  22.4694
    22.5336  22.5336

          k = 0.0560 0.0560 0.3923 ( 11693 PWs)   bands (ev):

   -66.0311 -66.0055 -65.9542 -65.9542 -65.9496 -65.9495 -65.9409 -65.9408
   -65.9405 -65.9402 -65.9401 -65.9392 -65.9378 -65.9368 -65.8988 -65.8783
   -32.3291 -32.3285 -32.3284 -32.3281 -32.3098 -32.3098 -32.2617 -32.2594
   -32.2560 -32.2559 -32.2287 -32.2287 -32.2227 -32.2084 -32.1836 -32.1716
   -32.1335 -32.1213 -32.0773 -32.0657 -32.0432 -32.0372 -32.0311 -32.0311
   -32.0237 -32.0237 -32.0036 -32.0036 -32.0024 -32.0024 -31.9856 -31.9426
   -31.9386 -31.9314 -31.9314 -31.9074 -31.9057 -31.9037 -31.9036 -31.8995
   -31.8769 -31.8769 -31.8768 -31.8768 -31.8615 -31.8572 -31.8572 -31.8553
    11.7583  12.8637  15.2826  15.2826  15.4717  15.4717  15.7857  15.7857
    15.8046  15.8046  16.1006  16.1290  16.4403  16.5287  16.5930  16.7563
    16.7608  17.1662  17.3515  17.3632  17.4533  17.4613  17.9136  17.9136
    18.0050  18.0050  18.1431  18.1603  18.1603  18.1729  18.3278  18.3278
    18.4572  18.4573  18.5669  18.5669  18.6977  18.6977  18.7926  18.7927
    18.8796  18.8863  18.8983  18.9186  18.9192  18.9388  19.2774  19.6259
    20.1361  20.1947  20.1947  20.2513  20.2562  20.2562  20.3725  20.6671
[...]
   -31.8696 -31.8695 -31.8695 -31.8524 -31.8524 -31.8524 -31.8471 -31.8471
    12.1349  14.1260  14.1260  14.1260  15.3427  15.3427  15.3427  16.3740
    16.3740  16.3740  16.6912  16.6912  16.7109  16.7109  16.7109  16.7948
    16.9940  17.4485  17.4485  17.4772  17.4772  17.4772  17.7118  17.7118
    17.7118  17.7211  17.7211  17.9089  17.9089  17.9089  18.3199  18.3199
    18.3199  18.3928  18.3928  18.3929  18.3954  18.3954  18.3954  18.4201
    18.4202  18.4202  18.6180  18.6180  18.8589  18.8589  18.8589  19.8226
    19.9413  20.3807  20.3807  20.3808  20.4552  20.4552  20.4552  20.7442
    20.7442  20.7442  20.8358  20.8358  20.8359  21.0675  21.0675  21.0675
    21.1399  21.1399  21.3695  21.3695  21.4445  21.4445  21.4699  21.4699
    21.4700  21.5193  21.5193  21.5193  21.5300  21.5300  21.6655  21.6655
    21.6655  21.7384  21.7384  21.7385  22.2126  22.2126  22.2126  24.2719
    24.4032  24.4032

          k = 0.2802 0.2802 0.3923 ( 11724 PWs)   bands (ev):

   -66.0155 -65.9940 -65.9769 -65.9769 -65.9655 -65.9655 -65.9563 -65.9496
   -65.9302 -65.9288 -65.9242 -65.9242 -65.9181 -65.9180 -65.9055 -65.8890
   -32.3147 -32.3146 -32.3040 -32.2795 -32.2794 -32.2764 -32.2684 -32.2653
   -32.2493 -32.2493 -32.2457 -32.2374 -32.2094 -32.1792 -32.1792 -32.1710
   -32.1558 -32.1256 -32.1256 -32.1125 -32.1059 -32.1037 -32.1037 -32.0674
   -32.0220 -32.0098 -31.9855 -31.9827 -31.9685 -31.9685 -31.9556 -31.9556
   -31.9493 -31.9493 -31.9368 -31.9139 -31.9108 -31.9108 -31.8989 -31.8914
   -31.8742 -31.8644 -31.8625 -31.8625 -31.8568 -31.8532 -31.8532 -31.8452
    12.5013  13.5197  14.3986  14.3986  15.0442  15.0442  15.6532  16.4361
    16.5595  16.5595  16.5992  16.7784  16.7784  16.8154  16.8407  16.8860
    16.9779  17.2458  17.4980  17.5281  17.5281  17.5872  17.6177  17.6415
    17.7555  17.8159  17.8160  17.8822  17.9728  17.9728  18.1119  18.1381
    18.1381  18.1950  18.1950  18.2370  18.2819  18.2819  18.2824  18.2824
    18.3787  18.4074  18.4987  18.5574  18.5926  18.5926  18.9959  19.5598
    20.0579  20.4811  20.4811  20.5750  20.6145  20.6420  20.6420  20.6458
    20.6458  20.6458  20.9097  20.9902  20.9902  21.0044  21.1464  21.1469
    21.1469  21.2207  21.2362  21.2477  21.3476  21.3949  21.4548  21.4548
    21.4583  21.4699  21.5072  21.5692  21.5762  21.5762  21.6018  21.6266
    21.6371  21.6371  21.7199  21.7199  21.9001  21.9001  22.6958  23.7355
    24.7069  24.7069

          k = 0.2802 0.2802-0.5043 ( 11732 PWs)   bands (ev):

   -66.0056 -66.0054 -65.9718 -65.9717 -65.9716 -65.9716 -65.9532 -65.9531
   -65.9295 -65.9293 -65.9208 -65.9208 -65.9206 -65.9206 -65.8965 -65.8964
   -32.2974 -32.2974 -32.2973 -32.2973 -32.2738 -32.2736 -32.2724 -32.2723
   -32.2584 -32.2584 -32.2149 -32.2148 -32.2148 -32.2148 -32.1850 -32.1848
   -32.1422 -32.1422 -32.1183 -32.1182 -32.1181 -32.1181 -32.0632 -32.0632
   -32.0388 -32.0387 -31.9859 -31.9858 -31.9575 -31.9575 -31.9574 -31.9573
   -31.9318 -31.9317 -31.9317 -31.9317 -31.9027 -31.9025 -31.8932 -31.8931
   -31.8869 -31.8867 -31.8569 -31.8569 -31.8569 -31.8569 -31.8484 -31.8484
    12.9693  12.9694  14.7173  14.7173  14.7173  14.7173  16.0307  16.0308
    16.7138  16.7138  16.7139  16.7139  16.8302  16.8303  16.9033  16.9034
    17.0290  17.0291  17.5662  17.5664  17.6344  17.6345  17.7280  17.7281
    17.7282  17.7282  17.8237  17.8237  17.9611  17.9611  17.9612  17.9612
    18.0599  18.0600  18.2377  18.2377  18.2378  18.2378  18.3530  18.3530
    18.3530  18.3530  18.4152  18.4153  18.4862  18.4863  19.2317  19.2318
    20.3109  20.3110  20.5575  20.5576  20.5576  20.5576  20.8354  20.8355
    20.8360  20.8360  20.8361  20.8361  20.9034  20.9035  21.0791  21.0792
    21.2435  21.2436  21.3723  21.3724  21.3983  21.3983  21.3983  21.3983
    21.4569  21.4569  21.4665  21.4666  21.6452  21.6454  21.6571  21.6571
    21.6571  21.6571  21.6684  21.6684  21.6684  21.6685  23.2104  23.2105
    24.9436  24.9436

          k = 0.2802 0.3923 0.3923 ( 11714 PWs)   bands (ev):

   -66.0082 -65.9886 -65.9886 -65.9739 -65.9729 -65.9624 -65.9624 -65.9542
   -65.9280 -65.9250 -65.9250 -65.9197 -65.9179 -65.9086 -65.9086 -65.8941
   -32.3046 -32.2931 -32.2931 -32.2781 -32.2755 -32.2755 -32.2637 -32.2531
   -32.2531 -32.2517 -32.2422 -32.2153 -32.2061 -32.2019 -32.1797 -32.1576
   -32.1576 -32.1407 -32.1407 -32.1406 -32.1324 -32.1324 -32.1278 -32.0590
   -32.0386 -31.9819 -31.9819 -31.9690 -31.9690 -31.9683 -31.9518 -31.9475
   -31.9348 -31.9316 -31.9230 -31.9194 -31.9194 -31.9021 -31.9021 -31.8961
   -31.8734 -31.8728 -31.8727 -31.8663 -31.8540 -31.8540 -31.8509 -31.8480
    12.8557  13.8291  13.8292  14.6254  14.6822  15.3529  15.3529  16.1097
    16.7611  16.7822  16.7822  16.9276  16.9333  16.9665  16.9666  16.9884
    17.0610  17.3476  17.3476  17.4794  17.5795  17.6103  17.6132  17.7375
    17.7375  17.7794  17.7794  17.8569  17.8569  17.9006  18.0159  18.0175
    18.0175  18.0801  18.0801  18.1113  18.1952  18.1953  18.2019  18.2357
    18.3108  18.3108  18.3652  18.3779  18.4606  18.6749  18.6749  19.1810
    20.3212  20.6116  20.6459  20.6493  20.6493  20.7924  20.7958  20.7959
    20.8366  20.8367  20.8886  20.8886  21.0108  21.0342  21.0797  21.0798
    21.1163  21.1677  21.2291  21.2911  21.3609  21.3910  21.3995  21.4355
    21.4523  21.4523  21.4563  21.4563  21.5114  21.5410  21.5410  21.5498
    21.5979  21.6233  21.6234  21.7132  21.7228  22.3272  22.3272  23.2537
    25.0955  25.5907

          k = 0.2802 0.3923-0.5043 ( 11700 PWs)   bands (ev):

   -65.9992 -65.9990 -65.9818 -65.9817 -65.9681 -65.9679 -65.9585 -65.9584
   -65.9264 -65.9262 -65.9221 -65.9219 -65.9128 -65.9126 -65.9007 -65.9005
   -32.2903 -32.2902 -32.2830 -32.2830 -32.2670 -32.2669 -32.2653 -32.2653
   -32.2582 -32.2581 -32.2275 -32.2274 -32.1853 -32.1851 -32.1783 -32.1782
   -32.1604 -32.1603 -32.1470 -32.1469 -32.1429 -32.1429 -32.0997 -32.0997
   -32.0098 -32.0097 -31.9679 -31.9678 -31.9578 -31.9578 -31.9554 -31.9554
   -31.9308 -31.9307 -31.9169 -31.9169 -31.8972 -31.8971 -31.8971 -31.8969
   -31.8935 -31.8934 -31.8699 -31.8699 -31.8515 -31.8514 -31.8495 -31.8494
    13.3053  13.3054  14.2080  14.2081  15.0144  15.0145  15.7237  15.7237
    16.9086  16.9087  16.9292  16.9292  16.9937  16.9938  16.9987  16.9987
    17.1661  17.1662  17.5829  17.5830  17.5926  17.5927  17.6246  17.6247
    17.6548  17.6549  17.7808  17.7809  17.8688  17.8688  17.9578  17.9578
    18.0197  18.0199  18.0279  18.0279  18.1734  18.1734  18.2496  18.2498
    18.2684  18.2684  18.3801  18.3802  18.4041  18.4041  18.8706  18.8706
    20.6006  20.6006  20.6239  20.6239  20.7576  20.7576  20.8760  20.8762
    20.9372  20.9373  20.9405  20.9406  20.9479  20.9480  21.0211  21.0212
    21.1865  21.1866  21.2101  21.2101  21.3218  21.3219  21.4114  21.4115
    21.4174  21.4174  21.4438  21.4439  21.4544  21.4545  21.5090  21.5090
    21.6307  21.6308  21.6824  21.6824  21.9817  21.9818  22.7852  22.7853
    25.4397  25.4398

          k = 0.2802-0.5043-0.5043 ( 11704 PWs)   bands (ev):

   -65.9913 -65.9911 -65.9911 -65.9910 -65.9637 -65.9635 -65.9635 -65.9634
   -65.9240 -65.9238 -65.9238 -65.9237 -65.9062 -65.9060 -65.9060 -65.9059
   -32.2783 -32.2783 -32.2783 -32.2783 -32.2705 -32.2703 -32.2703 -32.2702
   -32.2424 -32.2423 -32.2423 -32.2422 -32.1708 -32.1706 -32.1706 -32.1705
   -32.1603 -32.1603 -32.1603 -32.1602 -32.1392 -32.1392 -32.1392 -32.1391
   -31.9817 -31.9817 -31.9817 -31.9816 -31.9600 -31.9600 -31.9600 -31.9600
   -31.9091 -31.9089 -31.9089 -31.9087 -31.9049 -31.9048 -31.9048 -31.9048
   -31.8849 -31.8848 -31.8848 -31.8847 -31.8496 -31.8496 -31.8496 -31.8495
    13.7265  13.7266  13.7266  13.7266  15.3656  15.3656  15.3656  15.3657
    16.9988  16.9989  16.9989  16.9990  17.0737  17.0737  17.0737  17.0738
    17.3803  17.3804  17.3804  17.3805  17.5239  17.5240  17.5240  17.5241
    17.7677  17.7677  17.7677  17.7677  17.8480  17.8481  17.8481  17.8482
    18.0270  18.0271  18.0271  18.0271  18.1293  18.1293  18.1294  18.1294
    18.3021  18.3022  18.3022  18.3023  18.5797  18.5797  18.5797  18.5798
    20.7458  20.7459  20.7459  20.7460  20.9057  20.9057  20.9057  20.9057
    20.9190  20.9190  20.9190  20.9191  20.9912  20.9913  20.9913  20.9913
    21.0739  21.0740  21.0740  21.0741  21.3171  21.3172  21.3172  21.3173
    21.4258  21.4258  21.4258  21.4258  21.4504  21.4506  21.4506  21.4507
    21.6676  21.6676  21.6676  21.6676  22.3750  22.3750  22.3750  22.3751
    25.9269  25.9269

          k = 0.3923 0.3923 0.3923 ( 11689 PWs)   bands (ev):

   -66.0016 -65.9836 -65.9835 -65.9835 -65.9701 -65.9700 -65.9700 -65.9600
   -65.9245 -65.9195 -65.9195 -65.9195 -65.9113 -65.9113 -65.9113 -65.8984
   -32.2819 -32.2819 -32.2819 -32.2690 -32.2690 -32.2690 -32.2523 -32.2317
   -32.2317 -32.2259 -32.2259 -32.2259 -32.2184 -32.2184 -32.1753 -32.1753
   -32.1753 -32.1671 -32.1671 -32.1671 -32.1592 -32.1592 -32.1592 -32.0933
   -32.0099 -31.9576 -31.9576 -31.9576 -31.9437 -31.9436 -31.9436 -31.9315
   -31.9315 -31.9190 -31.9190 -31.9190 -31.9174 -31.9174 -31.9174 -31.8992
   -31.8716 -31.8716 -31.8715 -31.8666 -31.8666 -31.8627 -31.8627 -31.8627
    13.2014  14.1417  14.1417  14.1417  14.9409  14.9409  14.9409  15.7328
    16.9925  16.9925  16.9925  17.0888  17.0888  17.1634  17.1634  17.1634
    17.2411  17.3445  17.3445  17.3445  17.6495  17.6495  17.6780  17.6780
    17.8088  17.8088  17.8089  17.8213  17.8213  17.8213  17.9194  17.9194
    17.9194  17.9954  17.9954  17.9954  18.1117  18.1117  18.1117  18.1122
    18.1122  18.1123  18.2992  18.2992  18.3536  18.3536  18.3536  18.7938
    20.6075  20.8134  20.8134  20.8134  20.8442  20.8442  20.8442  20.9206
    20.9206  20.9206  21.1036  21.1036  21.1036  21.1473  21.1473  21.2094
    21.2094  21.2094  21.2272  21.2272  21.3175  21.3175  21.3307  21.3307
    21.3851  21.3851  21.3851  21.4312  21.4312  21.4312  21.5007  21.5008
    21.5008  21.5100  21.5100  21.5100  21.9463  21.9463  21.9463  22.8019
    26.2160  26.2160

          k = 0.3923 0.3923-0.5043 ( 11706 PWs)   bands (ev):

   -65.9933 -65.9932 -65.9774 -65.9773 -65.9772 -65.9772 -65.9655 -65.9653
   -65.9217 -65.9215 -65.9151 -65.9151 -65.9149 -65.9149 -65.9043 -65.9041
   -32.2715 -32.2715 -32.2714 -32.2714 -32.2532 -32.2532 -32.2529 -32.2527
   -32.2391 -32.2390 -32.2062 -32.2060 -32.1965 -32.1964 -32.1964 -32.1963
   -32.1903 -32.1903 -32.1761 -32.1761 -32.1760 -32.1760 -32.1302 -32.1301
   -31.9828 -31.9827 -31.9384 -31.9383 -31.9361 -31.9361 -31.9360 -31.9360
   -31.9265 -31.9265 -31.9264 -31.9264 -31.9060 -31.9059 -31.8991 -31.8989
   -31.8905 -31.8904 -31.8691 -31.8691 -31.8691 -31.8691 -31.8629 -31.8628
    13.6379  13.6379  14.5234  14.5234  14.5234  14.5234  15.3235  15.3235
    17.1482  17.1482  17.1482  17.1482  17.2048  17.2049  17.2107  17.2108
    17.2251  17.2251  17.5419  17.5419  17.5420  17.5420  17.6790  17.6791
    17.7335  17.7337  17.7472  17.7472  17.7881  17.7882  17.9446  17.9447
    17.9447  17.9447  18.0361  18.0362  18.0363  18.0363  18.0908  18.0908
    18.0908  18.0908  18.1772  18.1772  18.2082  18.2083  18.4913  18.4913
    20.8602  20.8602  20.8602  20.8603  20.9120  20.9120  21.0406  21.0407
    21.0407  21.0407  21.0422  21.0423  21.0443  21.0444  21.0543  21.0543
    21.2143  21.2144  21.2772  21.2773  21.3407  21.3408  21.3622  21.3623
    21.3647  21.3647  21.3648  21.3648  21.4427  21.4428  21.4755  21.4755
    21.4755  21.4756  21.5953  21.5954  21.5954  21.5954  22.3684  22.3685
    26.5079  26.5079

          k = 0.3923-0.5043-0.5043 ( 11692 PWs)   bands (ev):

   -65.9860 -65.9858 -65.9858 -65.9857 -65.9719 -65.9717 -65.9717 -65.9716
   -65.9181 -65.9179 -65.9179 -65.9178 -65.9092 -65.9090 -65.9090 -65.9089
   -32.2569 -32.2569 -32.2569 -32.2568 -32.2530 -32.2529 -32.2529 -32.2528
   -32.2177 -32.2176 -32.2176 -32.2175 -32.2016 -32.2015 -32.2015 -32.2013
   -32.1971 -32.1971 -32.1971 -32.1970 -32.1634 -32.1633 -32.1633 -32.1633
   -31.9582 -31.9581 -31.9581 -31.9580 -31.9251 -31.9251 -31.9251 -31.9250
   -31.9193 -31.9192 -31.9192 -31.9191 -31.9016 -31.9014 -31.9014 -31.9013
   -31.8887 -31.8886 -31.8886 -31.8885 -31.8691 -31.8691 -31.8691 -31.8690
    14.0528  14.0529  14.0529  14.0529  14.9074  14.9074  14.9074  14.9075
    17.2259  17.2259  17.2259  17.2260  17.3743  17.3744  17.3744  17.3744
    17.4159  17.4160  17.4160  17.4161  17.4908  17.4908  17.4908  17.4909
    17.8418  17.8418  17.8418  17.8418  17.8554  17.8554  17.8555  17.8555
    17.8592  17.8593  17.8593  17.8594  18.0457  18.0457  18.0457  18.0457
    18.1071  18.1072  18.1072  18.1073  18.1927  18.1927  18.1927  18.1927
    20.9995  20.9995  20.9995  20.9996  21.0265  21.0265  21.0265  21.0266
    21.0967  21.0968  21.0968  21.0969  21.1518  21.1519  21.1519  21.1520
    21.2433  21.2434  21.2434  21.2434  21.2765  21.2766  21.2766  21.2767
    21.3360  21.3360  21.3360  21.3361  21.3458  21.3459  21.3459  21.3460
    21.4196  21.4196  21.4196  21.4196  21.9737  21.9737  21.9737  21.9738
    27.0320  27.0320

          k =-0.5043-0.5043-0.5043 ( 11656 PWs)   bands (ev):

   -65.9796 -65.9793 -65.9793 -65.9793 -65.9792 -65.9792 -65.9792 -65.9791
   -65.9132 -65.9129 -65.9129 -65.9129 -65.9128 -65.9128 -65.9128 -65.9127
   -32.2294 -32.2294 -32.2294 -32.2294 -32.2294 -32.2293 -32.2293 -32.2293
   -32.2292 -32.2292 -32.2292 -32.2292 -32.2292 -32.2291 -32.2291 -32.2291
   -32.1905 -32.1904 -32.1904 -32.1904 -32.1903 -32.1903 -32.1903 -32.1902
   -31.9369 -31.9369 -31.9369 -31.9369 -31.9367 -31.9367 -31.9367 -31.9367
   -31.8948 -31.8948 -31.8948 -31.8947 -31.8947 -31.8946 -31.8946 -31.8946
   -31.8945 -31.8945 -31.8945 -31.8945 -31.8945 -31.8944 -31.8944 -31.8944
    14.4565  14.4566  14.4566  14.4566  14.4566  14.4566  14.4566  14.4567
    17.4543  17.4543  17.4544  17.4544  17.4544  17.4544  17.4544  17.4544
    17.4545  17.4545  17.4545  17.4545  17.4545  17.4545  17.4545  17.4545
    17.8530  17.8530  17.8530  17.8531  17.8531  17.8531  17.8531  17.8531
    17.9508  17.9508  17.9508  17.9509  17.9509  17.9509  17.9509  17.9509
    17.9510  17.9510  17.9511  17.9511  17.9511  17.9511  17.9511  17.9511
    21.1972  21.1972  21.1972  21.1972  21.1972  21.1972  21.1973  21.1973
    21.1973  21.1973  21.1974  21.1974  21.1974  21.1974  21.1974  21.1974
    21.2206  21.2206  21.2208  21.2208  21.2208  21.2208  21.2208  21.2208
    21.2209  21.2209  21.2209  21.2209  21.2209  21.2209  21.2210  21.2210
    21.6012  21.6012  21.6012  21.6012  21.6013  21.6013  21.6013  21.6013
    28.1316  28.1316

     the Fermi energy is    19.6035 ev

!    total energy              =   -5268.17356262 Ry
     Harris-Foulkes estimate   =   -5268.17356146 Ry
     estimated scf accuracy    <       0.00000035 Ry

     total all-electron energy =    -40728.918092 Ry

     The total energy is the sum of the following terms:

     one-electron contribution =   -1669.02637945 Ry
     hartree contribution      =    1008.52891930 Ry
     xc contribution           =    -444.55110233 Ry
     ewald contribution        =   -2838.56050131 Ry
     one-center paw contrib.   =   -1324.67584784 Ry
     smearing contrib. (-TS)   =       0.11134901 Ry

     total magnetization       =    32.46 Bohr mag/cell
     absolute magnetization    =    34.10 Bohr mag/cell

     convergence has been achieved in  18 iterations

     negative rho (up, down):  0.000E+00 2.313E-03

     Forces acting on atoms (cartesian axes, Ry/au):

     atom    1 type  1   force =     0.00000000    0.00000000    0.00000000
     atom    2 type  2   force =     0.00001936    0.00001936    0.00001936
     atom    3 type  1   force =     0.00000000   -0.00000000    0.00000000
     atom    4 type  2   force =     0.00001936    0.00001936   -0.00001936
     atom    5 type  1   force =     0.00000000    0.00000000    0.00000000
     atom    6 type  2   force =     0.00001936   -0.00001936    0.00001936
     atom    7 type  1   force =     0.00000000    0.00000000    0.00000000
     atom    8 type  2   force =     0.00001936   -0.00001936   -0.00001936
     atom    9 type  1   force =     0.00000000    0.00000000    0.00000000
     atom   10 type  2   force =    -0.00001936    0.00001936    0.00001936
     atom   11 type  1   force =     0.00000000   -0.00000000    0.00000000
     atom   12 type  2   force =    -0.00001936    0.00001936   -0.00001936
     atom   13 type  1   force =     0.00000000    0.00000000    0.00000000
     atom   14 type  2   force =    -0.00001936   -0.00001936    0.00001936
     atom   15 type  1   force =     0.00000000    0.00000000   -0.00000000
     atom   16 type  2   force =    -0.00001936   -0.00001936   -0.00001936

     Total force =     0.000095     Total SCF correction =     0.001641
     SCF correction compared to forces is large: reduce conv_thr to get better values


     Computing stress (Cartesian axis) and pressure


     negative rho (up, down):  0.000E+00 2.313E-03
          total   stress  (Ry/bohr**3)                   (kbar)     P=   62.33
   0.00042373   0.00000000   0.00000000         62.33      0.00      0.00
   0.00000000   0.00042373   0.00000000          0.00     62.33      0.00
   0.00000000   0.00000000   0.00042373          0.00      0.00     62.33


     Writing output data file xbAMiXfJvBKHDrUf.save/
 
     init_run     :      7.27s CPU      7.58s WALL (       1 calls)
     electrons    :    454.23s CPU    463.91s WALL (       1 calls)
     forces       :      2.40s CPU      2.52s WALL (       1 calls)
     stress       :      9.73s CPU      9.79s WALL (       1 calls)

     Called by init_run:
     wfcinit      :      6.71s CPU      6.93s WALL (       1 calls)
     potinit      :      0.30s CPU      0.32s WALL (       1 calls)
     hinit0       :      0.09s CPU      0.09s WALL (       1 calls)

     Called by electrons:
     c_bands      :    404.26s CPU    411.82s WALL (      19 calls)
     sum_band     :     43.84s CPU     45.49s WALL (      19 calls)
     v_of_rho     :      0.47s CPU      0.50s WALL (      19 calls)
     newd         :      0.96s CPU      1.16s WALL (      19 calls)
     PAW_pot      :      4.80s CPU      5.02s WALL (      19 calls)
     mix_rho      :      0.12s CPU      0.13s WALL (      19 calls)

     Called by c_bands:
     init_us_2    :      2.86s CPU      2.90s WALL (    2870 calls)
     cegterg      :    388.95s CPU    396.37s WALL (    1330 calls)

     Called by sum_band:
     sum_band:bec :      0.47s CPU      0.47s WALL (    1330 calls)
     addusdens    :      1.92s CPU      2.14s WALL (      19 calls)

     Called by *egterg:
     h_psi        :    170.70s CPU    175.84s WALL (    4553 calls)
     s_psi        :     12.24s CPU     12.29s WALL (    4553 calls)
     g_psi        :      0.59s CPU      0.60s WALL (    3153 calls)
     cdiaghg      :    163.68s CPU    164.11s WALL (    4413 calls)

     Called by h_psi:
     h_psi:pot    :    169.50s CPU    174.63s WALL (    4553 calls)
     h_psi:calbec :     14.56s CPU     15.71s WALL (    4553 calls)
     vloc_psi     :    142.43s CPU    146.36s WALL (    4553 calls)
     add_vuspsi   :     12.47s CPU     12.53s WALL (    4553 calls)

     General routines
     calbec       :     22.58s CPU     24.35s WALL (    6233 calls)
     fft          :      0.37s CPU      0.40s WALL (     517 calls)
     ffts         :      0.03s CPU      0.04s WALL (      76 calls)
     fftw         :    162.68s CPU    167.14s WALL ( 1131256 calls)
     interpolate  :      0.05s CPU      0.05s WALL (      38 calls)
 
     Parallel routines
     fft_scatt_xy :     13.95s CPU     14.33s WALL ( 1131849 calls)
     fft_scatt_yz :     92.56s CPU     95.15s WALL ( 1131849 calls)
 
     PWSCF        :  7m57.13s CPU     8m14.69s WALL

 
   This run was terminated on:  22:40: 3  13Jun2020            

=------------------------------------------------------------------------------=
   JOB DONE.
=------------------------------------------------------------------------------=
