--------------------------------------------------------------------------
WARNING: No preset parameters were found for the device that Open MPI
detected:

  Local host:            bear-pg0206u26a
  Device name:           mlx5_0
  Device vendor ID:      0x02c9
  Device vendor part ID: 4123

Default device parameters will be used, which may result in lower
performance.  You can edit any of the files specified by the
btl_openib_device_param_files MCA parameter to set values for your
device.

NOTE: You can turn off this warning by setting the MCA parameter
      btl_openib_warn_no_device_params_found to 0.
--------------------------------------------------------------------------
--------------------------------------------------------------------------
WARNING: There was an error initializing an OpenFabrics device.

  Local host:   bear-pg0206u26a
  Local device: mlx5_0
--------------------------------------------------------------------------

     Program PWSCF v.6.3 starts on  2Nov2020 at  6:40:37 

     This program is part of the open-source Quantum ESPRESSO suite
     for quantum simulation of materials; please cite
         "P. Giannozzi et al., J. Phys.:Condens. Matter 21 395502 (2009);
         "P. Giannozzi et al., J. Phys.:Condens. Matter 29 465901 (2017);
          URL http://www.quantum-espresso.org", 
     in publications or presentations arising from this work. More details at
     http://www.quantum-espresso.org/quote

     Parallel version (MPI & OpenMP), running on      40 processor cores
     Number of MPI processes:                40
     Threads/MPI process:                     1

     MPI processes distributed on     1 nodes
     R & G space division:  proc/nbgrp/npool/nimage =      40
     Reading input from wd/ec/ec_2_007.in
Warning: card &IONS ignored
Warning: card ION_DYNAMICS = 'BFGS', ignored
Warning: card / ignored
Warning: card &CELL ignored
Warning: card CELL_DYNAMICS = 'BFGS', ignored
Warning: card CELL_FACTOR = 2.0, ignored
Warning: card PRESS = 0.0, ignored
Warning: card / ignored

     Current dimensions of program PWSCF are:
     Max number of different atomic species (ntypx) = 10
     Max number of k-points (npk) =  40000
     Max angular momentum in pseudopotentials (lmaxx) =  3
               file Fe.pbe-spn-kjpaw_psl.1.0.0.UPF: wavefunction(s)  3P 3D renormalized
               file Fe.pbe-spn-kjpaw_psl.1.0.0.UPF: wavefunction(s)  3P 3D renormalized

     Subspace diagonalization in iterative solution of the eigenvalue problem:
     a serial algorithm will be used

     Found symmetry operation: I + (  0.0000  0.0000 -0.5000)
     This is a supercell, fractional translations are disabled
 
     Parallelization info
     --------------------
     sticks:   dense  smooth     PW     G-vecs:    dense   smooth      PW
     Min          96      63     17                 4490     2411     357
     Max          97      64     18                 4493     2416     362
     Sum        3859    2553    717               179655    96553   14371
 


     bravais-lattice index     =            0
     lattice parameter (alat)  =      10.5935  a.u.
     unit-cell volume          =    1193.5882 (a.u.)^3
     number of atoms/cell      =           16
     number of atomic types    =            2
     number of electrons       =       256.00
     number of Kohn-Sham states=          154
     kinetic-energy cutoff     =      71.0000  Ry
     charge density cutoff     =     430.0000  Ry
     convergence threshold     =      1.0E-06
     mixing beta               =       0.1000
     number of iterations used =           10  plain     mixing
     Exchange-correlation      = SLA PW PBX PBC ( 1  4  3  4 0 0)

     celldm(1)=  10.593520  celldm(2)=   0.000000  celldm(3)=   0.000000
     celldm(4)=   0.000000  celldm(5)=   0.000000  celldm(6)=   0.000000

     crystal axes: (cart. coord. in units of alat)
               a(1) = (   1.000000   0.000000   0.000000 )  
               a(2) = (   0.000000   1.004000   0.000000 )  
               a(3) = (   0.000000   0.000000   1.000000 )  

     reciprocal axes: (cart. coord. in units 2 pi/alat)
               b(1) = (  1.000000  0.000000  0.000000 )  
               b(2) = (  0.000000  0.996016  0.000000 )  
               b(3) = (  0.000000  0.000000  1.000000 )  


     PseudoPot. # 1 for Fe read from file:
     /rds/homes/b/bxp912/pp/Fe.pbe-spn-kjpaw_psl.1.0.0.UPF
     MD5 check sum: 42f43b795421b414b0dc916aa790dbcb
     Pseudo is Projector augmented-wave + core cor, Zval = 16.0
     Generated using "atomic" code by A. Dal Corso v.6.3
     Shape of augmentation charge: PSQ
     Using radial grid of 1191 points,  6 beta functions with: 
                l(1) =   0
                l(2) =   0
                l(3) =   1
                l(4) =   1
                l(5) =   2
                l(6) =   2
     Q(r) pseudized with 0 coefficients 


     PseudoPot. # 2 for Fe read from file:
     /rds/homes/b/bxp912/pp/Fe.pbe-spn-kjpaw_psl.1.0.0.UPF
     MD5 check sum: 42f43b795421b414b0dc916aa790dbcb
     Pseudo is Projector augmented-wave + core cor, Zval = 16.0
     Generated using "atomic" code by A. Dal Corso v.6.3
     Shape of augmentation charge: PSQ
     Using radial grid of 1191 points,  6 beta functions with: 
                l(1) =   0
                l(2) =   0
                l(3) =   1
                l(4) =   1
                l(5) =   2
                l(6) =   2
     Q(r) pseudized with 0 coefficients 


     atomic species   valence    mass     pseudopotential
        Fe1           16.00    55.84500     Fe( 1.00)
        Fe2           16.00    55.84500     Fe( 1.00)

     Starting magnetic structure 
     atomic species   magnetization
        Fe1          0.100
        Fe2          0.100

     16 Sym. Ops., with inversion, found



   Cartesian axes

     site n.     atom                  positions (alat units)
         1           Fe1 tau(   1) = (   0.0000000   0.0000000   0.0000000  )
         2           Fe2 tau(   2) = (   0.2500004   0.2510004   0.2500004  )
         3           Fe1 tau(   3) = (   0.0000000   0.0000000   0.5000000  )
         4           Fe2 tau(   4) = (   0.2500004   0.2510004   0.7499996  )
         5           Fe1 tau(   5) = (   0.0000000   0.5020000   0.0000000  )
         6           Fe2 tau(   6) = (   0.2500004   0.7529996   0.2500004  )
         7           Fe1 tau(   7) = (   0.0000000   0.5020000   0.5000000  )
         8           Fe2 tau(   8) = (   0.2500004   0.7529996   0.7499996  )
         9           Fe1 tau(   9) = (   0.5000000   0.0000000   0.0000000  )
        10           Fe2 tau(  10) = (   0.7499996   0.2510004   0.2500004  )
        11           Fe1 tau(  11) = (   0.5000000   0.0000000   0.5000000  )
        12           Fe2 tau(  12) = (   0.7499996   0.2510004   0.7499996  )
        13           Fe1 tau(  13) = (   0.5000000   0.5020000   0.0000000  )
        14           Fe2 tau(  14) = (   0.7499996   0.7529996   0.2500004  )
        15           Fe1 tau(  15) = (   0.5000000   0.5020000   0.5000000  )
        16           Fe2 tau(  16) = (   0.7499996   0.7529996   0.7499996  )

     number of k points=    75  Marzari-Vanderbilt smearing, width (Ry)=  0.0400
                       cart. coord. in units 2pi/alat
        k(    1) = (   0.0555556   0.0553342   0.0555556), wk =   0.0109739
        k(    2) = (   0.0555556   0.0553342   0.1666667), wk =   0.0219479
        k(    3) = (   0.0555556   0.0553342   0.2777778), wk =   0.0219479
        k(    4) = (   0.0555556   0.0553342   0.3888889), wk =   0.0219479
        k(    5) = (   0.0555556   0.0553342  -0.5000000), wk =   0.0109739
        k(    6) = (   0.0555556   0.1660027   0.0555556), wk =   0.0109739
        k(    7) = (   0.0555556   0.1660027   0.1666667), wk =   0.0219479
        k(    8) = (   0.0555556   0.1660027   0.2777778), wk =   0.0219479
        k(    9) = (   0.0555556   0.1660027   0.3888889), wk =   0.0219479
        k(   10) = (   0.0555556   0.1660027  -0.5000000), wk =   0.0109739
        k(   11) = (   0.0555556   0.2766711   0.0555556), wk =   0.0109739
        k(   12) = (   0.0555556   0.2766711   0.1666667), wk =   0.0219479
        k(   13) = (   0.0555556   0.2766711   0.2777778), wk =   0.0219479
        k(   14) = (   0.0555556   0.2766711   0.3888889), wk =   0.0219479
        k(   15) = (   0.0555556   0.2766711  -0.5000000), wk =   0.0109739
        k(   16) = (   0.0555556   0.3873395   0.0555556), wk =   0.0109739
        k(   17) = (   0.0555556   0.3873395   0.1666667), wk =   0.0219479
        k(   18) = (   0.0555556   0.3873395   0.2777778), wk =   0.0219479
        k(   19) = (   0.0555556   0.3873395   0.3888889), wk =   0.0219479
        k(   20) = (   0.0555556   0.3873395  -0.5000000), wk =   0.0109739
        k(   21) = (   0.0555556  -0.4980080   0.0555556), wk =   0.0054870
        k(   22) = (   0.0555556  -0.4980080   0.1666667), wk =   0.0109739
        k(   23) = (   0.0555556  -0.4980080   0.2777778), wk =   0.0109739
        k(   24) = (   0.0555556  -0.4980080   0.3888889), wk =   0.0109739
        k(   25) = (   0.0555556  -0.4980080  -0.5000000), wk =   0.0054870
        k(   26) = (   0.1666667   0.0553342   0.1666667), wk =   0.0109739
        k(   27) = (   0.1666667   0.0553342   0.2777778), wk =   0.0219479
        k(   28) = (   0.1666667   0.0553342   0.3888889), wk =   0.0219479
        k(   29) = (   0.1666667   0.0553342  -0.5000000), wk =   0.0109739
        k(   30) = (   0.1666667   0.1660027   0.1666667), wk =   0.0109739
        k(   31) = (   0.1666667   0.1660027   0.2777778), wk =   0.0219479
        k(   32) = (   0.1666667   0.1660027   0.3888889), wk =   0.0219479
        k(   33) = (   0.1666667   0.1660027  -0.5000000), wk =   0.0109739
        k(   34) = (   0.1666667   0.2766711   0.1666667), wk =   0.0109739
        k(   35) = (   0.1666667   0.2766711   0.2777778), wk =   0.0219479
        k(   36) = (   0.1666667   0.2766711   0.3888889), wk =   0.0219479
        k(   37) = (   0.1666667   0.2766711  -0.5000000), wk =   0.0109739
        k(   38) = (   0.1666667   0.3873395   0.1666667), wk =   0.0109739
        k(   39) = (   0.1666667   0.3873395   0.2777778), wk =   0.0219479
        k(   40) = (   0.1666667   0.3873395   0.3888889), wk =   0.0219479
        k(   41) = (   0.1666667   0.3873395  -0.5000000), wk =   0.0109739
        k(   42) = (   0.1666667  -0.4980080   0.1666667), wk =   0.0054870
        k(   43) = (   0.1666667  -0.4980080   0.2777778), wk =   0.0109739
        k(   44) = (   0.1666667  -0.4980080   0.3888889), wk =   0.0109739
        k(   45) = (   0.1666667  -0.4980080  -0.5000000), wk =   0.0054870
        k(   46) = (   0.2777778   0.0553342   0.2777778), wk =   0.0109739
        k(   47) = (   0.2777778   0.0553342   0.3888889), wk =   0.0219479
        k(   48) = (   0.2777778   0.0553342  -0.5000000), wk =   0.0109739
        k(   49) = (   0.2777778   0.1660027   0.2777778), wk =   0.0109739
        k(   50) = (   0.2777778   0.1660027   0.3888889), wk =   0.0219479
        k(   51) = (   0.2777778   0.1660027  -0.5000000), wk =   0.0109739
        k(   52) = (   0.2777778   0.2766711   0.2777778), wk =   0.0109739
        k(   53) = (   0.2777778   0.2766711   0.3888889), wk =   0.0219479
        k(   54) = (   0.2777778   0.2766711  -0.5000000), wk =   0.0109739
        k(   55) = (   0.2777778   0.3873395   0.2777778), wk =   0.0109739
        k(   56) = (   0.2777778   0.3873395   0.3888889), wk =   0.0219479
        k(   57) = (   0.2777778   0.3873395  -0.5000000), wk =   0.0109739
        k(   58) = (   0.2777778  -0.4980080   0.2777778), wk =   0.0054870
        k(   59) = (   0.2777778  -0.4980080   0.3888889), wk =   0.0109739
        k(   60) = (   0.2777778  -0.4980080  -0.5000000), wk =   0.0054870
        k(   61) = (   0.3888889   0.0553342   0.3888889), wk =   0.0109739
        k(   62) = (   0.3888889   0.0553342  -0.5000000), wk =   0.0109739
        k(   63) = (   0.3888889   0.1660027   0.3888889), wk =   0.0109739
        k(   64) = (   0.3888889   0.1660027  -0.5000000), wk =   0.0109739
        k(   65) = (   0.3888889   0.2766711   0.3888889), wk =   0.0109739
        k(   66) = (   0.3888889   0.2766711  -0.5000000), wk =   0.0109739
        k(   67) = (   0.3888889   0.3873395   0.3888889), wk =   0.0109739
        k(   68) = (   0.3888889   0.3873395  -0.5000000), wk =   0.0109739
        k(   69) = (   0.3888889  -0.4980080   0.3888889), wk =   0.0054870
        k(   70) = (   0.3888889  -0.4980080  -0.5000000), wk =   0.0054870
        k(   71) = (  -0.5000000   0.0553342  -0.5000000), wk =   0.0027435
        k(   72) = (  -0.5000000   0.1660027  -0.5000000), wk =   0.0027435
        k(   73) = (  -0.5000000   0.2766711  -0.5000000), wk =   0.0027435
        k(   74) = (  -0.5000000   0.3873395  -0.5000000), wk =   0.0027435
        k(   75) = (  -0.5000000  -0.4980080  -0.5000000), wk =   0.0013717

     Dense  grid:   179655 G-vectors     FFT dimensions: (  72,  72,  72)

     Smooth grid:    96553 G-vectors     FFT dimensions: (  60,  60,  60)

     Estimated max dynamical RAM per process >     145.28 MB

     Estimated total dynamical RAM >       5.68 GB
     Generating pointlists ...
     new r_m :   0.1789 (alat units)  1.8947 (a.u.) for type    1
     new r_m :   0.1789 (alat units)  1.8947 (a.u.) for type    2

     Check: negative/imaginary core charge=   -0.000006    0.000000

     Initial potential from superposition of free atoms

     starting charge  255.99300, renormalised to  256.00000
     Starting wfcs are  160 randomized atomic wfcs
     Checking if some PAW data can be deallocated... 

     total cpu time spent up to now is       15.0 secs

     Self-consistent Calculation

     iteration #  1     ecut=    71.00 Ry     beta= 0.10
     Davidson diagonalization with overlap
     ethr =  1.00E-02,  avg # of iterations =  3.3

     Threshold (ethr) on eigenvalues was too large:
     Diagonalizing with lowered threshold

     Davidson diagonalization with overlap
     ethr =  2.20E-04,  avg # of iterations =  3.6

     total cpu time spent up to now is      128.9 secs

     total energy              =   -5268.05108276 Ry
     Harris-Foulkes estimate   =   -5268.13463331 Ry
     estimated scf accuracy    <       0.64821748 Ry

     total magnetization       =    28.21 Bohr mag/cell
     absolute magnetization    =    28.34 Bohr mag/cell

     iteration #  2     ecut=    71.00 Ry     beta= 0.10
     Davidson diagonalization with overlap
     ethr =  2.53E-04,  avg # of iterations =  1.0

     total cpu time spent up to now is      161.8 secs

     total energy              =   -5267.99721265 Ry
     Harris-Foulkes estimate   =   -5268.06444243 Ry
     estimated scf accuracy    <       0.38658640 Ry

     total magnetization       =    28.81 Bohr mag/cell
     absolute magnetization    =    28.97 Bohr mag/cell

     iteration #  3     ecut=    71.00 Ry     beta= 0.10
     Davidson diagonalization with overlap
     ethr =  1.51E-04,  avg # of iterations =  2.8

     total cpu time spent up to now is      211.6 secs

     total energy              =   -5268.02695439 Ry
     Harris-Foulkes estimate   =   -5268.04813951 Ry
     estimated scf accuracy    <       0.57549045 Ry

     total magnetization       =    29.68 Bohr mag/cell
     absolute magnetization    =    29.98 Bohr mag/cell

     iteration #  4     ecut=    71.00 Ry     beta= 0.10
     Davidson diagonalization with overlap
     ethr =  1.51E-04,  avg # of iterations =  1.1

     total cpu time spent up to now is      245.4 secs

     total energy              =   -5268.05180653 Ry
     Harris-Foulkes estimate   =   -5268.04915122 Ry
     estimated scf accuracy    <       0.12993959 Ry

     total magnetization       =    30.28 Bohr mag/cell
     absolute magnetization    =    30.62 Bohr mag/cell

     iteration #  5     ecut=    71.00 Ry     beta= 0.10
     Davidson diagonalization with overlap
     ethr =  5.08E-05,  avg # of iterations =  1.1

     total cpu time spent up to now is      279.2 secs

     total energy              =   -5268.10819614 Ry
     Harris-Foulkes estimate   =   -5268.05386898 Ry
     estimated scf accuracy    <       0.10679173 Ry

     total magnetization       =    30.34 Bohr mag/cell
     absolute magnetization    =    30.71 Bohr mag/cell

     iteration #  6     ecut=    71.00 Ry     beta= 0.10
     Davidson diagonalization with overlap
     ethr =  4.17E-05,  avg # of iterations =  3.4

     negative rho (up, down):  0.000E+00 4.521E-04

     total cpu time spent up to now is      343.3 secs

     total energy              =   -5268.16158903 Ry
     Harris-Foulkes estimate   =   -5268.15376490 Ry
     estimated scf accuracy    <       0.17177923 Ry

     total magnetization       =    31.06 Bohr mag/cell
     absolute magnetization    =    31.83 Bohr mag/cell

     iteration #  7     ecut=    71.00 Ry     beta= 0.10
     Davidson diagonalization with overlap
     ethr =  4.17E-05,  avg # of iterations =  2.6

     negative rho (up, down):  0.000E+00 1.352E-03

     total cpu time spent up to now is      393.2 secs

     total energy              =   -5268.17623249 Ry
     Harris-Foulkes estimate   =   -5268.17665568 Ry
     estimated scf accuracy    <       0.05543998 Ry

     total magnetization       =    31.85 Bohr mag/cell
     absolute magnetization    =    32.98 Bohr mag/cell

     iteration #  8     ecut=    71.00 Ry     beta= 0.10
     Davidson diagonalization with overlap
     ethr =  2.17E-05,  avg # of iterations =  2.4

     negative rho (up, down):  0.000E+00 1.731E-03

     total cpu time spent up to now is      440.0 secs

     total energy              =   -5268.18494236 Ry
     Harris-Foulkes estimate   =   -5268.18211737 Ry
     estimated scf accuracy    <       0.02641591 Ry

     total magnetization       =    32.23 Bohr mag/cell
     absolute magnetization    =    33.57 Bohr mag/cell

     iteration #  9     ecut=    71.00 Ry     beta= 0.10
     Davidson diagonalization with overlap
     ethr =  1.03E-05,  avg # of iterations =  1.2

     negative rho (up, down):  0.000E+00 2.389E-03

     total cpu time spent up to now is      474.5 secs

     total energy              =   -5268.18858786 Ry
     Harris-Foulkes estimate   =   -5268.18589130 Ry
     estimated scf accuracy    <       0.01023960 Ry

     total magnetization       =    32.38 Bohr mag/cell
     absolute magnetization    =    33.78 Bohr mag/cell

     iteration # 10     ecut=    71.00 Ry     beta= 0.10
     Davidson diagonalization with overlap
     ethr =  4.00E-06,  avg # of iterations =  3.2

     negative rho (up, down):  0.000E+00 2.584E-03

     total cpu time spent up to now is      526.5 secs

     total energy              =   -5268.18989943 Ry
     Harris-Foulkes estimate   =   -5268.18988254 Ry
     estimated scf accuracy    <       0.00224483 Ry

     total magnetization       =    32.65 Bohr mag/cell
     absolute magnetization    =    34.25 Bohr mag/cell

     iteration # 11     ecut=    71.00 Ry     beta= 0.10
     Davidson diagonalization with overlap
     ethr =  8.77E-07,  avg # of iterations =  2.7

     negative rho (up, down):  0.000E+00 2.422E-03

     total cpu time spent up to now is      574.1 secs

     total energy              =   -5268.19019192 Ry
     Harris-Foulkes estimate   =   -5268.19009272 Ry
     estimated scf accuracy    <       0.00072638 Ry

     total magnetization       =    32.74 Bohr mag/cell
     absolute magnetization    =    34.42 Bohr mag/cell

     iteration # 12     ecut=    71.00 Ry     beta= 0.10
     Davidson diagonalization with overlap
     ethr =  2.84E-07,  avg # of iterations =  2.3

     negative rho (up, down):  0.000E+00 2.389E-03

     total cpu time spent up to now is      618.7 secs

     total energy              =   -5268.19046686 Ry
     Harris-Foulkes estimate   =   -5268.19025639 Ry
     estimated scf accuracy    <       0.00066927 Ry

     total magnetization       =    32.77 Bohr mag/cell
     absolute magnetization    =    34.44 Bohr mag/cell

     iteration # 13     ecut=    71.00 Ry     beta= 0.10
     Davidson diagonalization with overlap
     ethr =  2.61E-07,  avg # of iterations =  2.0

     negative rho (up, down):  0.000E+00 2.483E-03

     total cpu time spent up to now is      661.7 secs

     total energy              =   -5268.19059158 Ry
     Harris-Foulkes estimate   =   -5268.19052540 Ry
     estimated scf accuracy    <       0.00045885 Ry

     total magnetization       =    32.82 Bohr mag/cell
     absolute magnetization    =    34.53 Bohr mag/cell

     iteration # 14     ecut=    71.00 Ry     beta= 0.10
     Davidson diagonalization with overlap
     ethr =  1.79E-07,  avg # of iterations =  2.9

     negative rho (up, down):  0.000E+00 2.413E-03

     total cpu time spent up to now is      713.3 secs

     total energy              =   -5268.19069039 Ry
     Harris-Foulkes estimate   =   -5268.19068005 Ry
     estimated scf accuracy    <       0.00011258 Ry

     total magnetization       =    32.90 Bohr mag/cell
     absolute magnetization    =    34.67 Bohr mag/cell

     iteration # 15     ecut=    71.00 Ry     beta= 0.10
     Davidson diagonalization with overlap
     ethr =  4.40E-08,  avg # of iterations =  2.8

     negative rho (up, down):  0.000E+00 2.467E-03

     total cpu time spent up to now is      764.2 secs

     total energy              =   -5268.19070875 Ry
     Harris-Foulkes estimate   =   -5268.19070885 Ry
     estimated scf accuracy    <       0.00007349 Ry

     total magnetization       =    32.91 Bohr mag/cell
     absolute magnetization    =    34.66 Bohr mag/cell

     iteration # 16     ecut=    71.00 Ry     beta= 0.10
     Davidson diagonalization with overlap
     ethr =  2.87E-08,  avg # of iterations =  3.2

     negative rho (up, down):  0.000E+00 2.446E-03

     total cpu time spent up to now is      820.9 secs

     total energy              =   -5268.19074229 Ry
     Harris-Foulkes estimate   =   -5268.19073730 Ry
     estimated scf accuracy    <       0.00001610 Ry

     total magnetization       =    32.95 Bohr mag/cell
     absolute magnetization    =    34.74 Bohr mag/cell

     iteration # 17     ecut=    71.00 Ry     beta= 0.10
     Davidson diagonalization with overlap
     ethr =  6.29E-09,  avg # of iterations =  2.6

     negative rho (up, down):  0.000E+00 2.459E-03

     total cpu time spent up to now is      866.4 secs

     total energy              =   -5268.19074474 Ry
     Harris-Foulkes estimate   =   -5268.19074410 Ry
     estimated scf accuracy    <       0.00000893 Ry

     total magnetization       =    32.95 Bohr mag/cell
     absolute magnetization    =    34.74 Bohr mag/cell

     iteration # 18     ecut=    71.00 Ry     beta= 0.10
     Davidson diagonalization with overlap
     ethr =  3.49E-09,  avg # of iterations =  1.3

     negative rho (up, down):  0.000E+00 2.468E-03

     total cpu time spent up to now is      901.5 secs

     total energy              =   -5268.19074655 Ry
     Harris-Foulkes estimate   =   -5268.19074524 Ry
     estimated scf accuracy    <       0.00000583 Ry

     total magnetization       =    32.96 Bohr mag/cell
     absolute magnetization    =    34.74 Bohr mag/cell

     iteration # 19     ecut=    71.00 Ry     beta= 0.10
     Davidson diagonalization with overlap
     ethr =  2.28E-09,  avg # of iterations =  2.5

     negative rho (up, down):  0.000E+00 2.465E-03

     total cpu time spent up to now is      948.1 secs

     total energy              =   -5268.19074797 Ry
     Harris-Foulkes estimate   =   -5268.19074750 Ry
     estimated scf accuracy    <       0.00000377 Ry

     total magnetization       =    32.97 Bohr mag/cell
     absolute magnetization    =    34.75 Bohr mag/cell

     iteration # 20     ecut=    71.00 Ry     beta= 0.10
     Davidson diagonalization with overlap
     ethr =  1.47E-09,  avg # of iterations =  1.2

     negative rho (up, down):  0.000E+00 2.472E-03

     total cpu time spent up to now is      983.0 secs

     total energy              =   -5268.19074887 Ry
     Harris-Foulkes estimate   =   -5268.19074825 Ry
     estimated scf accuracy    <       0.00000230 Ry

     total magnetization       =    32.97 Bohr mag/cell
     absolute magnetization    =    34.75 Bohr mag/cell

     iteration # 21     ecut=    71.00 Ry     beta= 0.10
     Davidson diagonalization with overlap
     ethr =  9.00E-10,  avg # of iterations =  1.2

     negative rho (up, down):  0.000E+00 2.478E-03

     total cpu time spent up to now is     1017.2 secs

     total energy              =   -5268.19074986 Ry
     Harris-Foulkes estimate   =   -5268.19074903 Ry
     estimated scf accuracy    <       0.00000100 Ry

     total magnetization       =    32.97 Bohr mag/cell
     absolute magnetization    =    34.76 Bohr mag/cell

     iteration # 22     ecut=    71.00 Ry     beta= 0.10
     Davidson diagonalization with overlap
     ethr =  3.91E-10,  avg # of iterations =  1.7

     negative rho (up, down):  0.000E+00 2.487E-03
 
     Magnetic moment per site:
     atom:    1    charge:   14.3696    magn:    2.1044    constr:    0.0000
     atom:    2    charge:   14.3697    magn:    2.1070    constr:    0.0000
     atom:    3    charge:   14.3697    magn:    2.1041    constr:    0.0000
     atom:    4    charge:   14.3697    magn:    2.1070    constr:    0.0000
     atom:    5    charge:   14.3699    magn:    2.1061    constr:    0.0000
     atom:    6    charge:   14.3697    magn:    2.1070    constr:    0.0000
     atom:    7    charge:   14.3697    magn:    2.1056    constr:    0.0000
     atom:    8    charge:   14.3697    magn:    2.1070    constr:    0.0000
     atom:    9    charge:   14.3697    magn:    2.1041    constr:    0.0000
     atom:   10    charge:   14.3697    magn:    2.1070    constr:    0.0000
     atom:   11    charge:   14.3698    magn:    2.1037    constr:    0.0000
     atom:   12    charge:   14.3697    magn:    2.1070    constr:    0.0000
     atom:   13    charge:   14.3697    magn:    2.1056    constr:    0.0000
     atom:   14    charge:   14.3697    magn:    2.1070    constr:    0.0000
     atom:   15    charge:   14.3696    magn:    2.1052    constr:    0.0000
     atom:   16    charge:   14.3697    magn:    2.1070    constr:    0.0000

     total cpu time spent up to now is     1055.9 secs

     End of self-consistent calculation

     Number of k-points >= 100: set verbosity='high' to print the bands.

     the Fermi energy is    18.8786 ev

!    total energy              =   -5268.19075117 Ry
     Harris-Foulkes estimate   =   -5268.19074993 Ry
     estimated scf accuracy    <       0.00000057 Ry

     total all-electron energy =    -40728.935280 Ry

     The total energy is the sum of the following terms:

     one-electron contribution =   -1713.35898524 Ry
     hartree contribution      =    1024.41776252 Ry
     xc contribution           =    -444.21836097 Ry
     ewald contribution        =   -2810.48685220 Ry
     one-center paw contrib.   =   -1324.67028972 Ry
     smearing contrib. (-TS)   =       0.12597444 Ry

     total magnetization       =    32.97 Bohr mag/cell
     absolute magnetization    =    34.76 Bohr mag/cell

     convergence has been achieved in  22 iterations

     negative rho (up, down):  0.000E+00 2.487E-03

     Forces acting on atoms (cartesian axes, Ry/au):

     atom    1 type  1   force =     0.00000000    0.00000000    0.00000000
     atom    2 type  2   force =    -0.00002374    0.00015493   -0.00002374
     atom    3 type  1   force =     0.00000000    0.00000000    0.00000000
     atom    4 type  2   force =    -0.00002374    0.00015493    0.00002374
     atom    5 type  1   force =     0.00000000   -0.00000000    0.00000000
     atom    6 type  2   force =    -0.00002374   -0.00015493   -0.00002374
     atom    7 type  1   force =     0.00000000    0.00000000    0.00000000
     atom    8 type  2   force =    -0.00002374   -0.00015493    0.00002374
     atom    9 type  1   force =     0.00000000   -0.00000000    0.00000000
     atom   10 type  2   force =     0.00002374    0.00015493   -0.00002374
     atom   11 type  1   force =     0.00000000   -0.00000000    0.00000000
     atom   12 type  2   force =     0.00002374    0.00015493    0.00002374
     atom   13 type  1   force =     0.00000000    0.00000000    0.00000000
     atom   14 type  2   force =     0.00002374   -0.00015493   -0.00002374
     atom   15 type  1   force =     0.00000000   -0.00000000    0.00000000
     atom   16 type  2   force =     0.00002374   -0.00015493    0.00002374

     Total force =     0.000448     Total SCF correction =     0.003911
     SCF correction compared to forces is large: reduce conv_thr to get better values


     Computing stress (Cartesian axis) and pressure


     negative rho (up, down):  0.000E+00 2.487E-03
          total   stress  (Ry/bohr**3)                   (kbar)     P=  -10.46
  -0.00005962   0.00000000   0.00000000         -8.77      0.00      0.00
   0.00000000  -0.00009413   0.00000000          0.00    -13.85      0.00
   0.00000000   0.00000000  -0.00005962          0.00      0.00     -8.77


     Writing output data file fIHkrsAviHvoRzlH.save/
 
     init_run     :     13.09s CPU     13.68s WALL (       1 calls)
     electrons    :   1010.15s CPU   1040.96s WALL (       1 calls)
     forces       :      4.58s CPU      5.00s WALL (       1 calls)
     stress       :     12.30s CPU     12.45s WALL (       1 calls)

     Called by init_run:
     wfcinit      :     12.61s CPU     13.13s WALL (       1 calls)
     potinit      :      0.22s CPU      0.24s WALL (       1 calls)
     hinit0       :      0.16s CPU      0.17s WALL (       1 calls)

     Called by electrons:
     c_bands      :    910.21s CPU    935.59s WALL (      23 calls)
     sum_band     :     95.30s CPU    100.16s WALL (      23 calls)
     v_of_rho     :      0.37s CPU      0.37s WALL (      23 calls)
     newd         :      0.76s CPU      0.97s WALL (      23 calls)
     PAW_pot      :      3.48s CPU      3.73s WALL (      23 calls)
     mix_rho      :      0.13s CPU      0.14s WALL (      23 calls)

     Called by c_bands:
     init_us_2    :      4.89s CPU      4.96s WALL (    7350 calls)
     cegterg      :    885.23s CPU    910.33s WALL (    3450 calls)

     Called by sum_band:
     sum_band:bec :      1.34s CPU      1.36s WALL (    3450 calls)
     addusdens    :      1.09s CPU      1.27s WALL (      23 calls)

     Called by *egterg:
     h_psi        :    375.98s CPU    391.42s WALL (   11412 calls)
     s_psi        :     19.96s CPU     20.08s WALL (   11412 calls)
     g_psi        :      0.82s CPU      0.83s WALL (    7812 calls)
     cdiaghg      :    400.27s CPU    401.83s WALL (   11112 calls)

     Called by h_psi:
     h_psi:pot    :    373.97s CPU    389.38s WALL (   11412 calls)
     h_psi:calbec :     31.41s CPU     36.12s WALL (   11412 calls)
     vloc_psi     :    322.28s CPU    332.86s WALL (   11412 calls)
     add_vuspsi   :     20.18s CPU     20.33s WALL (   11412 calls)

     General routines
     calbec       :     48.13s CPU     55.48s WALL (   15612 calls)
     fft          :      0.36s CPU      0.39s WALL (     617 calls)
     ffts         :      0.04s CPU      0.22s WALL (      92 calls)
     fftw         :    375.42s CPU    387.67s WALL ( 2871842 calls)
     interpolate  :      0.06s CPU      0.14s WALL (      46 calls)
 
     Parallel routines
     fft_scatt_xy :     24.60s CPU     25.44s WALL ( 2872551 calls)
     fft_scatt_yz :    252.63s CPU    261.18s WALL ( 2872551 calls)
 
     PWSCF        : 17m29.68s CPU    18m26.88s WALL

 
   This run was terminated on:   6:59: 4   2Nov2020            

=------------------------------------------------------------------------------=
   JOB DONE.
=------------------------------------------------------------------------------=
