--------------------------------------------------------------------------
WARNING: No preset parameters were found for the device that Open MPI
detected:

  Local host:            bear-pg0206u26a
  Device name:           mlx5_0
  Device vendor ID:      0x02c9
  Device vendor part ID: 4123

Default device parameters will be used, which may result in lower
performance.  You can edit any of the files specified by the
btl_openib_device_param_files MCA parameter to set values for your
device.

NOTE: You can turn off this warning by setting the MCA parameter
      btl_openib_warn_no_device_params_found to 0.
--------------------------------------------------------------------------
--------------------------------------------------------------------------
WARNING: There was an error initializing an OpenFabrics device.

  Local host:   bear-pg0206u26a
  Local device: mlx5_0
--------------------------------------------------------------------------

     Program PWSCF v.6.3 starts on  2Nov2020 at 19:12: 8 

     This program is part of the open-source Quantum ESPRESSO suite
     for quantum simulation of materials; please cite
         "P. Giannozzi et al., J. Phys.:Condens. Matter 21 395502 (2009);
         "P. Giannozzi et al., J. Phys.:Condens. Matter 29 465901 (2017);
          URL http://www.quantum-espresso.org", 
     in publications or presentations arising from this work. More details at
     http://www.quantum-espresso.org/quote

     Parallel version (MPI & OpenMP), running on      40 processor cores
     Number of MPI processes:                40
     Threads/MPI process:                     1

     MPI processes distributed on     1 nodes
     R & G space division:  proc/nbgrp/npool/nimage =      40
     Reading input from wd/ec/ec_8_002.in
Warning: card &IONS ignored
Warning: card ION_DYNAMICS = 'BFGS', ignored
Warning: card / ignored
Warning: card &CELL ignored
Warning: card CELL_DYNAMICS = 'BFGS', ignored
Warning: card CELL_FACTOR = 2.0, ignored
Warning: card PRESS = 0.0, ignored
Warning: card / ignored

     Current dimensions of program PWSCF are:
     Max number of different atomic species (ntypx) = 10
     Max number of k-points (npk) =  40000
     Max angular momentum in pseudopotentials (lmaxx) =  3
               file Fe.pbe-spn-kjpaw_psl.1.0.0.UPF: wavefunction(s)  3P 3D renormalized
               file Fe.pbe-spn-kjpaw_psl.1.0.0.UPF: wavefunction(s)  3P 3D renormalized

     Subspace diagonalization in iterative solution of the eigenvalue problem:
     a serial algorithm will be used

     Found symmetry operation: I + (  0.0000  0.0000  0.5000)
     This is a supercell, fractional translations are disabled
 
     Parallelization info
     --------------------
     sticks:   dense  smooth     PW     G-vecs:    dense   smooth      PW
     Min          95      63     17                 4471     2401     355
     Max          96      64     18                 4478     2406     360
     Sum        3833    2537    717               178981    96113   14347
 


     bravais-lattice index     =            0
     lattice parameter (alat)  =      10.5935  a.u.
     unit-cell volume          =    1188.8329 (a.u.)^3
     number of atoms/cell      =           16
     number of atomic types    =            2
     number of electrons       =       256.00
     number of Kohn-Sham states=          154
     kinetic-energy cutoff     =      71.0000  Ry
     charge density cutoff     =     430.0000  Ry
     convergence threshold     =      1.0E-06
     mixing beta               =       0.1000
     number of iterations used =           10  plain     mixing
     Exchange-correlation      = SLA PW PBX PBC ( 1  4  3  4 0 0)

     celldm(1)=  10.593520  celldm(2)=   0.000000  celldm(3)=   0.000000
     celldm(4)=   0.000000  celldm(5)=   0.000000  celldm(6)=   0.000000

     crystal axes: (cart. coord. in units of alat)
               a(1) = (   1.000667   0.000000   0.000000 )  
               a(2) = (   0.000000   1.000000   0.000000 )  
               a(3) = (   0.000000   0.000000   0.999333 )  

     reciprocal axes: (cart. coord. in units 2 pi/alat)
               b(1) = (  0.999334  0.000000  0.000000 )  
               b(2) = (  0.000000  1.000000  0.000000 )  
               b(3) = (  0.000000  0.000000  1.000667 )  


     PseudoPot. # 1 for Fe read from file:
     /rds/homes/b/bxp912/pp/Fe.pbe-spn-kjpaw_psl.1.0.0.UPF
     MD5 check sum: 42f43b795421b414b0dc916aa790dbcb
     Pseudo is Projector augmented-wave + core cor, Zval = 16.0
     Generated using "atomic" code by A. Dal Corso v.6.3
     Shape of augmentation charge: PSQ
     Using radial grid of 1191 points,  6 beta functions with: 
                l(1) =   0
                l(2) =   0
                l(3) =   1
                l(4) =   1
                l(5) =   2
                l(6) =   2
     Q(r) pseudized with 0 coefficients 


     PseudoPot. # 2 for Fe read from file:
     /rds/homes/b/bxp912/pp/Fe.pbe-spn-kjpaw_psl.1.0.0.UPF
     MD5 check sum: 42f43b795421b414b0dc916aa790dbcb
     Pseudo is Projector augmented-wave + core cor, Zval = 16.0
     Generated using "atomic" code by A. Dal Corso v.6.3
     Shape of augmentation charge: PSQ
     Using radial grid of 1191 points,  6 beta functions with: 
                l(1) =   0
                l(2) =   0
                l(3) =   1
                l(4) =   1
                l(5) =   2
                l(6) =   2
     Q(r) pseudized with 0 coefficients 


     atomic species   valence    mass     pseudopotential
        Fe1           16.00    55.84500     Fe( 1.00)
        Fe2           16.00    55.84500     Fe( 1.00)

     Starting magnetic structure 
     atomic species   magnetization
        Fe1          0.100
        Fe2          0.100

      8 Sym. Ops., with inversion, found



   Cartesian axes

     site n.     atom                  positions (alat units)
         1           Fe1 tau(   1) = (   0.0000000   0.0000000   0.0000000  )
         2           Fe2 tau(   2) = (   0.2501671   0.2500005   0.2498338  )
         3           Fe1 tau(   3) = (   0.0000000   0.0000000   0.4996667  )
         4           Fe2 tau(   4) = (   0.2501671   0.2500005   0.7494997  )
         5           Fe1 tau(   5) = (   0.0000000   0.5000001   0.0000000  )
         6           Fe2 tau(   6) = (   0.2501671   0.7499997   0.2498338  )
         7           Fe1 tau(   7) = (   0.0000000   0.5000001   0.4996667  )
         8           Fe2 tau(   8) = (   0.2501671   0.7499997   0.7494997  )
         9           Fe1 tau(   9) = (   0.5003334   0.0000000   0.0000000  )
        10           Fe2 tau(  10) = (   0.7504997   0.2500005   0.2498338  )
        11           Fe1 tau(  11) = (   0.5003334   0.0000000   0.4996667  )
        12           Fe2 tau(  12) = (   0.7504997   0.2500005   0.7494997  )
        13           Fe1 tau(  13) = (   0.5003334   0.5000001   0.0000000  )
        14           Fe2 tau(  14) = (   0.7504997   0.7499997   0.2498338  )
        15           Fe1 tau(  15) = (   0.5003334   0.5000001   0.4996667  )
        16           Fe2 tau(  16) = (   0.7504997   0.7499997   0.7494997  )

     number of k points=   125  Marzari-Vanderbilt smearing, width (Ry)=  0.0400

     Number of k-points >= 100: set verbosity='high' to print them.

     Dense  grid:   178981 G-vectors     FFT dimensions: (  72,  72,  72)

     Smooth grid:    96113 G-vectors     FFT dimensions: (  60,  60,  60)

     Estimated max dynamical RAM per process >     215.38 MB

     Estimated total dynamical RAM >       8.41 GB
     Generating pointlists ...
     new r_m :   0.1786 (alat units)  1.8922 (a.u.) for type    1
     new r_m :   0.1786 (alat units)  1.8922 (a.u.) for type    2

     Check: negative/imaginary core charge=   -0.000006    0.000000

     Initial potential from superposition of free atoms

     starting charge  255.99300, renormalised to  256.00000
     Starting wfcs are  160 randomized atomic wfcs
     Checking if some PAW data can be deallocated... 

     total cpu time spent up to now is       23.7 secs

     Self-consistent Calculation

     iteration #  1     ecut=    71.00 Ry     beta= 0.10
     Davidson diagonalization with overlap
     ethr =  1.00E-02,  avg # of iterations =  3.4

     Threshold (ethr) on eigenvalues was too large:
     Diagonalizing with lowered threshold

     Davidson diagonalization with overlap
     ethr =  2.83E-04,  avg # of iterations =  3.4

     total cpu time spent up to now is      209.9 secs

     total energy              =   -5268.17618323 Ry
     Harris-Foulkes estimate   =   -5268.32786435 Ry
     estimated scf accuracy    <       0.82041412 Ry

     total magnetization       =    28.04 Bohr mag/cell
     absolute magnetization    =    28.41 Bohr mag/cell

     iteration #  2     ecut=    71.00 Ry     beta= 0.10
     Davidson diagonalization with overlap
     ethr =  3.20E-04,  avg # of iterations =  1.0

     total cpu time spent up to now is      264.9 secs

     total energy              =   -5268.07012341 Ry
     Harris-Foulkes estimate   =   -5268.19496608 Ry
     estimated scf accuracy    <       0.49783462 Ry

     total magnetization       =    28.67 Bohr mag/cell
     absolute magnetization    =    28.96 Bohr mag/cell

     iteration #  3     ecut=    71.00 Ry     beta= 0.10
     Davidson diagonalization with overlap
     ethr =  1.94E-04,  avg # of iterations =  2.5

     total cpu time spent up to now is      340.6 secs

     total energy              =   -5268.03734636 Ry
     Harris-Foulkes estimate   =   -5268.11686315 Ry
     estimated scf accuracy    <       0.57558808 Ry

     total magnetization       =    29.37 Bohr mag/cell
     absolute magnetization    =    29.71 Bohr mag/cell

     iteration #  4     ecut=    71.00 Ry     beta= 0.10
     Davidson diagonalization with overlap
     ethr =  1.94E-04,  avg # of iterations =  2.1

     total cpu time spent up to now is      409.1 secs

     total energy              =   -5268.06934284 Ry
     Harris-Foulkes estimate   =   -5268.07317115 Ry
     estimated scf accuracy    <       0.17923263 Ry

     total magnetization       =    30.20 Bohr mag/cell
     absolute magnetization    =    30.58 Bohr mag/cell

     iteration #  5     ecut=    71.00 Ry     beta= 0.10
     Davidson diagonalization with overlap
     ethr =  7.00E-05,  avg # of iterations =  1.3

     total cpu time spent up to now is      467.1 secs

     total energy              =   -5268.08823896 Ry
     Harris-Foulkes estimate   =   -5268.07357071 Ry
     estimated scf accuracy    <       0.11150040 Ry

     total magnetization       =    30.30 Bohr mag/cell
     absolute magnetization    =    30.69 Bohr mag/cell

     iteration #  6     ecut=    71.00 Ry     beta= 0.10
     Davidson diagonalization with overlap
     ethr =  4.36E-05,  avg # of iterations =  3.3

     total cpu time spent up to now is      570.7 secs

     total energy              =   -5268.14465611 Ry
     Harris-Foulkes estimate   =   -5268.12711075 Ry
     estimated scf accuracy    <       0.13306986 Ry

     total magnetization       =    30.92 Bohr mag/cell
     absolute magnetization    =    31.63 Bohr mag/cell

     iteration #  7     ecut=    71.00 Ry     beta= 0.10
     Davidson diagonalization with overlap
     ethr =  4.36E-05,  avg # of iterations =  2.0

     total cpu time spent up to now is      641.3 secs

     total energy              =   -5268.15341324 Ry
     Harris-Foulkes estimate   =   -5268.15255207 Ry
     estimated scf accuracy    <       0.09895623 Ry

     total magnetization       =    31.45 Bohr mag/cell
     absolute magnetization    =    32.36 Bohr mag/cell

     iteration #  8     ecut=    71.00 Ry     beta= 0.10
     Davidson diagonalization with overlap
     ethr =  3.87E-05,  avg # of iterations =  1.0

     negative rho (up, down):  0.000E+00 1.878E-03

     total cpu time spent up to now is      696.7 secs

     total energy              =   -5268.17030860 Ry
     Harris-Foulkes estimate   =   -5268.15479354 Ry
     estimated scf accuracy    <       0.07663487 Ry

     total magnetization       =    31.60 Bohr mag/cell
     absolute magnetization    =    32.58 Bohr mag/cell

     iteration #  9     ecut=    71.00 Ry     beta= 0.10
     Davidson diagonalization with overlap
     ethr =  2.99E-05,  avg # of iterations =  2.7

     negative rho (up, down):  0.000E+00 2.159E-03

     total cpu time spent up to now is      787.2 secs

     total energy              =   -5268.18966520 Ry
     Harris-Foulkes estimate   =   -5268.18850220 Ry
     estimated scf accuracy    <       0.02808248 Ry

     total magnetization       =    32.37 Bohr mag/cell
     absolute magnetization    =    33.79 Bohr mag/cell

     iteration # 10     ecut=    71.00 Ry     beta= 0.10
     Davidson diagonalization with overlap
     ethr =  1.10E-05,  avg # of iterations =  1.0

     negative rho (up, down):  0.000E+00 2.515E-03

     total cpu time spent up to now is      843.4 secs

     total energy              =   -5268.18803658 Ry
     Harris-Foulkes estimate   =   -5268.19015088 Ry
     estimated scf accuracy    <       0.01580213 Ry

     total magnetization       =    32.48 Bohr mag/cell
     absolute magnetization    =    33.95 Bohr mag/cell

     iteration # 11     ecut=    71.00 Ry     beta= 0.10
     Davidson diagonalization with overlap
     ethr =  6.17E-06,  avg # of iterations =  2.2

     negative rho (up, down):  0.000E+00 2.562E-03

     total cpu time spent up to now is      916.4 secs

     total energy              =   -5268.18876103 Ry
     Harris-Foulkes estimate   =   -5268.18897759 Ry
     estimated scf accuracy    <       0.00172831 Ry

     total magnetization       =    32.65 Bohr mag/cell
     absolute magnetization    =    34.26 Bohr mag/cell

     iteration # 12     ecut=    71.00 Ry     beta= 0.10
     Davidson diagonalization with overlap
     ethr =  6.75E-07,  avg # of iterations =  2.8

     negative rho (up, down):  0.000E+00 2.579E-03

     total cpu time spent up to now is      995.5 secs

     total energy              =   -5268.18904387 Ry
     Harris-Foulkes estimate   =   -5268.18889867 Ry
     estimated scf accuracy    <       0.00080087 Ry

     total magnetization       =    32.70 Bohr mag/cell
     absolute magnetization    =    34.35 Bohr mag/cell

     iteration # 13     ecut=    71.00 Ry     beta= 0.10
     Davidson diagonalization with overlap
     ethr =  3.13E-07,  avg # of iterations =  2.2

     negative rho (up, down):  0.000E+00 2.543E-03

     total cpu time spent up to now is     1066.8 secs

     total energy              =   -5268.18900603 Ry
     Harris-Foulkes estimate   =   -5268.18912595 Ry
     estimated scf accuracy    <       0.00123534 Ry

     total magnetization       =    32.75 Bohr mag/cell
     absolute magnetization    =    34.43 Bohr mag/cell

     iteration # 14     ecut=    71.00 Ry     beta= 0.10
     Davidson diagonalization with overlap
     ethr =  3.13E-07,  avg # of iterations =  2.6

     negative rho (up, down):  0.000E+00 2.489E-03

     total cpu time spent up to now is     1148.7 secs

     total energy              =   -5268.18926812 Ry
     Harris-Foulkes estimate   =   -5268.18915683 Ry
     estimated scf accuracy    <       0.00059608 Ry

     total magnetization       =    32.78 Bohr mag/cell
     absolute magnetization    =    34.51 Bohr mag/cell

     iteration # 15     ecut=    71.00 Ry     beta= 0.10
     Davidson diagonalization with overlap
     ethr =  2.33E-07,  avg # of iterations =  1.3

     negative rho (up, down):  0.000E+00 2.483E-03

     total cpu time spent up to now is     1209.1 secs

     total energy              =   -5268.18934522 Ry
     Harris-Foulkes estimate   =   -5268.18929982 Ry
     estimated scf accuracy    <       0.00018743 Ry

     total magnetization       =    32.79 Bohr mag/cell
     absolute magnetization    =    34.51 Bohr mag/cell

     iteration # 16     ecut=    71.00 Ry     beta= 0.10
     Davidson diagonalization with overlap
     ethr =  7.32E-08,  avg # of iterations =  2.5

     negative rho (up, down):  0.000E+00 2.460E-03

     total cpu time spent up to now is     1288.6 secs

     total energy              =   -5268.18940933 Ry
     Harris-Foulkes estimate   =   -5268.18936507 Ry
     estimated scf accuracy    <       0.00010431 Ry

     total magnetization       =    32.82 Bohr mag/cell
     absolute magnetization    =    34.55 Bohr mag/cell

     iteration # 17     ecut=    71.00 Ry     beta= 0.10
     Davidson diagonalization with overlap
     ethr =  4.07E-08,  avg # of iterations =  2.1

     negative rho (up, down):  0.000E+00 2.395E-03

     total cpu time spent up to now is     1360.6 secs

     total energy              =   -5268.18944073 Ry
     Harris-Foulkes estimate   =   -5268.18941875 Ry
     estimated scf accuracy    <       0.00006863 Ry

     total magnetization       =    32.83 Bohr mag/cell
     absolute magnetization    =    34.58 Bohr mag/cell

     iteration # 18     ecut=    71.00 Ry     beta= 0.10
     Davidson diagonalization with overlap
     ethr =  2.68E-08,  avg # of iterations =  2.5

     negative rho (up, down):  0.000E+00 2.444E-03

     total cpu time spent up to now is     1443.7 secs

     total energy              =   -5268.18946249 Ry
     Harris-Foulkes estimate   =   -5268.18946016 Ry
     estimated scf accuracy    <       0.00004179 Ry

     total magnetization       =    32.85 Bohr mag/cell
     absolute magnetization    =    34.60 Bohr mag/cell

     iteration # 19     ecut=    71.00 Ry     beta= 0.10
     Davidson diagonalization with overlap
     ethr =  1.63E-08,  avg # of iterations =  2.8

     negative rho (up, down):  0.000E+00 2.460E-03

     total cpu time spent up to now is     1528.6 secs

     total energy              =   -5268.18947052 Ry
     Harris-Foulkes estimate   =   -5268.18947060 Ry
     estimated scf accuracy    <       0.00001635 Ry

     total magnetization       =    32.87 Bohr mag/cell
     absolute magnetization    =    34.64 Bohr mag/cell

     iteration # 20     ecut=    71.00 Ry     beta= 0.10
     Davidson diagonalization with overlap
     ethr =  6.39E-09,  avg # of iterations =  2.0

     negative rho (up, down):  0.000E+00 2.463E-03

     total cpu time spent up to now is     1596.6 secs

     total energy              =   -5268.18947377 Ry
     Harris-Foulkes estimate   =   -5268.18947149 Ry
     estimated scf accuracy    <       0.00001322 Ry

     total magnetization       =    32.88 Bohr mag/cell
     absolute magnetization    =    34.65 Bohr mag/cell

     iteration # 21     ecut=    71.00 Ry     beta= 0.10
     Davidson diagonalization with overlap
     ethr =  5.16E-09,  avg # of iterations =  1.2

     negative rho (up, down):  0.000E+00 2.464E-03

     total cpu time spent up to now is     1653.4 secs

     total energy              =   -5268.18947728 Ry
     Harris-Foulkes estimate   =   -5268.18947431 Ry
     estimated scf accuracy    <       0.00000868 Ry

     total magnetization       =    32.88 Bohr mag/cell
     absolute magnetization    =    34.65 Bohr mag/cell

     iteration # 22     ecut=    71.00 Ry     beta= 0.10
     Davidson diagonalization with overlap
     ethr =  3.39E-09,  avg # of iterations =  2.1

     negative rho (up, down):  0.000E+00 2.458E-03

     total cpu time spent up to now is     1721.5 secs

     total energy              =   -5268.18948009 Ry
     Harris-Foulkes estimate   =   -5268.18947830 Ry
     estimated scf accuracy    <       0.00000676 Ry

     total magnetization       =    32.89 Bohr mag/cell
     absolute magnetization    =    34.66 Bohr mag/cell

     iteration # 23     ecut=    71.00 Ry     beta= 0.10
     Davidson diagonalization with overlap
     ethr =  2.64E-09,  avg # of iterations =  2.4

     negative rho (up, down):  0.000E+00 2.454E-03

     total cpu time spent up to now is     1797.1 secs

     total energy              =   -5268.18948201 Ry
     Harris-Foulkes estimate   =   -5268.18948124 Ry
     estimated scf accuracy    <       0.00000116 Ry

     total magnetization       =    32.90 Bohr mag/cell
     absolute magnetization    =    34.67 Bohr mag/cell

     iteration # 24     ecut=    71.00 Ry     beta= 0.10
     Davidson diagonalization with overlap
     ethr =  4.54E-10,  avg # of iterations =  2.7

     negative rho (up, down):  0.000E+00 2.467E-03
 
     Magnetic moment per site:
     atom:    1    charge:   14.3663    magn:    2.0995    constr:    0.0000
     atom:    2    charge:   14.3664    magn:    2.1017    constr:    0.0000
     atom:    3    charge:   14.3665    magn:    2.1002    constr:    0.0000
     atom:    4    charge:   14.3664    magn:    2.1017    constr:    0.0000
     atom:    5    charge:   14.3663    magn:    2.1002    constr:    0.0000
     atom:    6    charge:   14.3664    magn:    2.1017    constr:    0.0000
     atom:    7    charge:   14.3665    magn:    2.1004    constr:    0.0000
     atom:    8    charge:   14.3664    magn:    2.1017    constr:    0.0000
     atom:    9    charge:   14.3666    magn:    2.0983    constr:    0.0000
     atom:   10    charge:   14.3664    magn:    2.1017    constr:    0.0000
     atom:   11    charge:   14.3665    magn:    2.0987    constr:    0.0000
     atom:   12    charge:   14.3664    magn:    2.1017    constr:    0.0000
     atom:   13    charge:   14.3664    magn:    2.0989    constr:    0.0000
     atom:   14    charge:   14.3664    magn:    2.1017    constr:    0.0000
     atom:   15    charge:   14.3664    magn:    2.0994    constr:    0.0000
     atom:   16    charge:   14.3664    magn:    2.1017    constr:    0.0000

     total cpu time spent up to now is     1876.7 secs

     End of self-consistent calculation

     Number of k-points >= 100: set verbosity='high' to print the bands.

     the Fermi energy is    18.9743 ev

!    total energy              =   -5268.18948391 Ry
     Harris-Foulkes estimate   =   -5268.18948212 Ry
     estimated scf accuracy    <       0.00000076 Ry

     total all-electron energy =    -40728.934013 Ry

     The total energy is the sum of the following terms:

     one-electron contribution =   -1707.42995964 Ry
     hartree contribution      =    1022.27726065 Ry
     xc contribution           =    -444.25998358 Ry
     ewald contribution        =   -2814.22991436 Ry
     one-center paw contrib.   =   -1324.67105666 Ry
     smearing contrib. (-TS)   =       0.12416968 Ry

     total magnetization       =    32.90 Bohr mag/cell
     absolute magnetization    =    34.67 Bohr mag/cell

     convergence has been achieved in  24 iterations

     negative rho (up, down):  0.000E+00 2.467E-03

     Forces acting on atoms (cartesian axes, Ry/au):

     atom    1 type  1   force =     0.00000000    0.00000000    0.00000000
     atom    2 type  2   force =    -0.00002435    0.00024082    0.00003025
     atom    3 type  1   force =     0.00000000    0.00000000    0.00000000
     atom    4 type  2   force =    -0.00002435    0.00024082   -0.00003025
     atom    5 type  1   force =     0.00000000    0.00000000    0.00000000
     atom    6 type  2   force =    -0.00002435   -0.00024082    0.00003025
     atom    7 type  1   force =     0.00000000    0.00000000    0.00000000
     atom    8 type  2   force =    -0.00002435   -0.00024082   -0.00003025
     atom    9 type  1   force =     0.00000000    0.00000000    0.00000000
     atom   10 type  2   force =     0.00002435    0.00024082    0.00003025
     atom   11 type  1   force =     0.00000000    0.00000000    0.00000000
     atom   12 type  2   force =     0.00002435    0.00024082   -0.00003025
     atom   13 type  1   force =     0.00000000    0.00000000    0.00000000
     atom   14 type  2   force =     0.00002435   -0.00024082    0.00003025
     atom   15 type  1   force =     0.00000000    0.00000000    0.00000000
     atom   16 type  2   force =     0.00002435   -0.00024082   -0.00003025

     Total force =     0.000690     Total SCF correction =     0.005673
     SCF correction compared to forces is large: reduce conv_thr to get better values


     Computing stress (Cartesian axis) and pressure


     negative rho (up, down):  0.000E+00 2.467E-03
          total   stress  (Ry/bohr**3)                   (kbar)     P=   -2.80
  -0.00002498   0.00000000   0.00000000         -3.67      0.00      0.00
   0.00000000  -0.00001918   0.00000000          0.00     -2.82      0.00
   0.00000000   0.00000000  -0.00001297          0.00      0.00     -1.91


     Writing output data file ygnGuDIrAxmghEsL.save/
 
     init_run     :     21.44s CPU     22.40s WALL (       1 calls)
     electrons    :   1797.07s CPU   1852.98s WALL (       1 calls)
     forces       :      7.73s CPU      8.43s WALL (       1 calls)
     stress       :     20.91s CPU     21.14s WALL (       1 calls)

     Called by init_run:
     wfcinit      :     21.00s CPU     21.86s WALL (       1 calls)
     potinit      :      0.20s CPU      0.23s WALL (       1 calls)
     hinit0       :      0.14s CPU      0.15s WALL (       1 calls)

     Called by electrons:
     c_bands      :   1620.90s CPU   1667.54s WALL (      25 calls)
     sum_band     :    171.15s CPU    179.76s WALL (      25 calls)
     v_of_rho     :      0.44s CPU      0.45s WALL (      25 calls)
     newd         :      0.79s CPU      1.01s WALL (      25 calls)
     PAW_pot      :      3.69s CPU      4.05s WALL (      25 calls)
     mix_rho      :      0.15s CPU      0.15s WALL (      25 calls)

     Called by c_bands:
     init_us_2    :      8.69s CPU      8.80s WALL (   13250 calls)
     cegterg      :   1575.74s CPU   1621.88s WALL (    6250 calls)

     Called by sum_band:
     sum_band:bec :      2.40s CPU      2.44s WALL (    6250 calls)
     addusdens    :      1.31s CPU      1.51s WALL (      25 calls)

     Called by *egterg:
     h_psi        :    677.67s CPU    705.88s WALL (   20264 calls)
     s_psi        :     35.90s CPU     36.15s WALL (   20264 calls)
     g_psi        :      1.46s CPU      1.48s WALL (   13764 calls)
     cdiaghg      :    702.70s CPU    705.14s WALL (   19764 calls)

     Called by h_psi:
     h_psi:pot    :    673.66s CPU    701.83s WALL (   20264 calls)
     h_psi:calbec :     55.67s CPU     64.47s WALL (   20264 calls)
     vloc_psi     :    581.40s CPU    600.53s WALL (   20264 calls)
     add_vuspsi   :     36.42s CPU     36.70s WALL (   20264 calls)

     General routines
     calbec       :     85.51s CPU     99.09s WALL (   27764 calls)
     fft          :      0.46s CPU      0.49s WALL (     667 calls)
     ffts         :      0.07s CPU      0.26s WALL (     100 calls)
     fftw         :    677.56s CPU    699.70s WALL ( 5181324 calls)
     interpolate  :      0.08s CPU      0.16s WALL (      50 calls)
 
     Parallel routines
     fft_scatt_xy :     44.37s CPU     45.92s WALL ( 5182091 calls)
     fft_scatt_yz :    456.51s CPU    471.73s WALL ( 5182091 calls)
 
     PWSCF        : 31m 2.15s CPU    32m48.70s WALL

 
   This run was terminated on:  19:44:56   2Nov2020            

=------------------------------------------------------------------------------=
   JOB DONE.
=------------------------------------------------------------------------------=
