--------------------------------------------------------------------------
WARNING: No preset parameters were found for the device that Open MPI
detected:

  Local host:            bear-pg0206u37a
  Device name:           mlx5_0
  Device vendor ID:      0x02c9
  Device vendor part ID: 4123

Default device parameters will be used, which may result in lower
performance.  You can edit any of the files specified by the
btl_openib_device_param_files MCA parameter to set values for your
device.

NOTE: You can turn off this warning by setting the MCA parameter
      btl_openib_warn_no_device_params_found to 0.
--------------------------------------------------------------------------
--------------------------------------------------------------------------
WARNING: There was an error initializing an OpenFabrics device.

  Local host:   bear-pg0206u37a
  Local device: mlx5_0
--------------------------------------------------------------------------

     Program PWSCF v.6.3 starts on 14Jun2020 at  1:14: 3 

     This program is part of the open-source Quantum ESPRESSO suite
     for quantum simulation of materials; please cite
         "P. Giannozzi et al., J. Phys.:Condens. Matter 21 395502 (2009);
         "P. Giannozzi et al., J. Phys.:Condens. Matter 29 465901 (2017);
          URL http://www.quantum-espresso.org", 
     in publications or presentations arising from this work. More details at
     http://www.quantum-espresso.org/quote

     Parallel version (MPI & OpenMP), running on      20 processor cores
     Number of MPI processes:                20
     Threads/MPI process:                     1

     MPI processes distributed on     1 nodes
     R & G space division:  proc/nbgrp/npool/nimage =      20
     Reading input from wd/eos/eos_012.in
Warning: card &IONS ignored
Warning: card ION_DYNAMICS = 'BFGS', ignored
Warning: card / ignored
Warning: card &CELL ignored
Warning: card CELL_DYNAMICS = 'BFGS', ignored
Warning: card CELL_FACTOR = 2.0, ignored
Warning: card PRESS = 0.0, ignored
Warning: card / ignored

     Current dimensions of program PWSCF are:
     Max number of different atomic species (ntypx) = 10
     Max number of k-points (npk) =  40000
     Max angular momentum in pseudopotentials (lmaxx) =  3
               file Fe.pbe-spn-kjpaw_psl.1.0.0.UPF: wavefunction(s)  3P 3D renormalized
               file Fe.pbe-spn-kjpaw_psl.1.0.0.UPF: wavefunction(s)  3P 3D renormalized

     Subspace diagonalization in iterative solution of the eigenvalue problem:
     a serial algorithm will be used

     Found symmetry operation: I + (  0.0000  0.0000 -0.5000)
     This is a supercell, fractional translations are disabled
 
     Parallelization info
     --------------------
     sticks:   dense  smooth     PW     G-vecs:    dense   smooth      PW
     Min         196     129     36                 9258     4975     738
     Max         198     130     37                 9260     4980     741
     Sum        3937    2593    733               185183    99561   14795
 


     bravais-lattice index     =            0
     lattice parameter (alat)  =      10.5935  a.u.
     unit-cell volume          =    1230.0605 (a.u.)^3
     number of atoms/cell      =           16
     number of atomic types    =            2
     number of electrons       =       256.00
     number of Kohn-Sham states=          154
     kinetic-energy cutoff     =      71.0000  Ry
     charge density cutoff     =     430.0000  Ry
     convergence threshold     =      1.0E-06
     mixing beta               =       0.1000
     number of iterations used =           10  plain     mixing
     Exchange-correlation      = SLA PW PBX PBC ( 1  4  3  4 0 0)

     celldm(1)=  10.593520  celldm(2)=   0.000000  celldm(3)=   0.000000
     celldm(4)=   0.000000  celldm(5)=   0.000000  celldm(6)=   0.000000

     crystal axes: (cart. coord. in units of alat)
               a(1) = (   1.011429   0.000000   0.000000 )  
               a(2) = (   0.000000   1.011429   0.000000 )  
               a(3) = (   0.000000   0.000000   1.011429 )  

     reciprocal axes: (cart. coord. in units 2 pi/alat)
               b(1) = (  0.988701  0.000000  0.000000 )  
               b(2) = (  0.000000  0.988701  0.000000 )  
               b(3) = (  0.000000  0.000000  0.988701 )  


     PseudoPot. # 1 for Fe read from file:
     /rds/homes/b/bxp912/pp/Fe.pbe-spn-kjpaw_psl.1.0.0.UPF
     MD5 check sum: 42f43b795421b414b0dc916aa790dbcb
     Pseudo is Projector augmented-wave + core cor, Zval = 16.0
     Generated using "atomic" code by A. Dal Corso v.6.3
     Shape of augmentation charge: PSQ
     Using radial grid of 1191 points,  6 beta functions with: 
                l(1) =   0
                l(2) =   0
                l(3) =   1
                l(4) =   1
                l(5) =   2
                l(6) =   2
     Q(r) pseudized with 0 coefficients 


     PseudoPot. # 2 for Fe read from file:
     /rds/homes/b/bxp912/pp/Fe.pbe-spn-kjpaw_psl.1.0.0.UPF
     MD5 check sum: 42f43b795421b414b0dc916aa790dbcb
     Pseudo is Projector augmented-wave + core cor, Zval = 16.0
     Generated using "atomic" code by A. Dal Corso v.6.3
     Shape of augmentation charge: PSQ
     Using radial grid of 1191 points,  6 beta functions with: 
                l(1) =   0
                l(2) =   0
                l(3) =   1
                l(4) =   1
                l(5) =   2
                l(6) =   2
     Q(r) pseudized with 0 coefficients 


     atomic species   valence    mass     pseudopotential
        Fe1           16.00    55.84500     Fe( 1.00)
        Fe2           16.00    55.84500     Fe( 1.00)

     Starting magnetic structure 
     atomic species   magnetization
        Fe1          0.100
        Fe2          0.100

     48 Sym. Ops., with inversion, found



   Cartesian axes

     site n.     atom                  positions (alat units)
         1           Fe1 tau(   1) = (   0.0000000   0.0000000   0.0000000  )
         2           Fe2 tau(   2) = (   0.2528576   0.2528576   0.2528576  )
         3           Fe1 tau(   3) = (   0.0000000   0.0000000   0.5057143  )
         4           Fe2 tau(   4) = (   0.2528576   0.2528576   0.7585710  )
         5           Fe1 tau(   5) = (   0.0000000   0.5057143   0.0000000  )
         6           Fe2 tau(   6) = (   0.2528576   0.7585710   0.2528576  )
         7           Fe1 tau(   7) = (   0.0000000   0.5057143   0.5057143  )
         8           Fe2 tau(   8) = (   0.2528576   0.7585710   0.7585710  )
         9           Fe1 tau(   9) = (   0.5057143   0.0000000   0.0000000  )
        10           Fe2 tau(  10) = (   0.7585710   0.2528576   0.2528576  )
        11           Fe1 tau(  11) = (   0.5057143   0.0000000   0.5057143  )
        12           Fe2 tau(  12) = (   0.7585710   0.2528576   0.7585710  )
        13           Fe1 tau(  13) = (   0.5057143   0.5057143   0.0000000  )
        14           Fe2 tau(  14) = (   0.7585710   0.7585710   0.2528576  )
        15           Fe1 tau(  15) = (   0.5057143   0.5057143   0.5057143  )
        16           Fe2 tau(  16) = (   0.7585710   0.7585710   0.7585710  )

     number of k points=    35  Marzari-Vanderbilt smearing, width (Ry)=  0.0400
                       cart. coord. in units 2pi/alat
        k(    1) = (   0.0549278   0.0549278   0.0549278), wk =   0.0109739
        k(    2) = (   0.0549278   0.0549278   0.1647834), wk =   0.0329218
        k(    3) = (   0.0549278   0.0549278   0.2746390), wk =   0.0329218
        k(    4) = (   0.0549278   0.0549278   0.3844947), wk =   0.0329218
        k(    5) = (   0.0549278   0.0549278  -0.4943503), wk =   0.0164609
        k(    6) = (   0.0549278   0.1647834   0.1647834), wk =   0.0329218
        k(    7) = (   0.0549278   0.1647834   0.2746390), wk =   0.0658436
        k(    8) = (   0.0549278   0.1647834   0.3844947), wk =   0.0658436
        k(    9) = (   0.0549278   0.1647834  -0.4943503), wk =   0.0329218
        k(   10) = (   0.0549278   0.2746390   0.2746390), wk =   0.0329218
        k(   11) = (   0.0549278   0.2746390   0.3844947), wk =   0.0658436
        k(   12) = (   0.0549278   0.2746390  -0.4943503), wk =   0.0329218
        k(   13) = (   0.0549278   0.3844947   0.3844947), wk =   0.0329218
        k(   14) = (   0.0549278   0.3844947  -0.4943503), wk =   0.0329218
        k(   15) = (   0.0549278  -0.4943503  -0.4943503), wk =   0.0082305
        k(   16) = (   0.1647834   0.1647834   0.1647834), wk =   0.0109739
        k(   17) = (   0.1647834   0.1647834   0.2746390), wk =   0.0329218
        k(   18) = (   0.1647834   0.1647834   0.3844947), wk =   0.0329218
        k(   19) = (   0.1647834   0.1647834  -0.4943503), wk =   0.0164609
        k(   20) = (   0.1647834   0.2746390   0.2746390), wk =   0.0329218
        k(   21) = (   0.1647834   0.2746390   0.3844947), wk =   0.0658436
        k(   22) = (   0.1647834   0.2746390  -0.4943503), wk =   0.0329218
        k(   23) = (   0.1647834   0.3844947   0.3844947), wk =   0.0329218
        k(   24) = (   0.1647834   0.3844947  -0.4943503), wk =   0.0329218
        k(   25) = (   0.1647834  -0.4943503  -0.4943503), wk =   0.0082305
        k(   26) = (   0.2746390   0.2746390   0.2746390), wk =   0.0109739
        k(   27) = (   0.2746390   0.2746390   0.3844947), wk =   0.0329218
        k(   28) = (   0.2746390   0.2746390  -0.4943503), wk =   0.0164609
        k(   29) = (   0.2746390   0.3844947   0.3844947), wk =   0.0329218
        k(   30) = (   0.2746390   0.3844947  -0.4943503), wk =   0.0329218
        k(   31) = (   0.2746390  -0.4943503  -0.4943503), wk =   0.0082305
        k(   32) = (   0.3844947   0.3844947   0.3844947), wk =   0.0109739
        k(   33) = (   0.3844947   0.3844947  -0.4943503), wk =   0.0164609
        k(   34) = (   0.3844947  -0.4943503  -0.4943503), wk =   0.0082305
        k(   35) = (  -0.4943503  -0.4943503  -0.4943503), wk =   0.0013717

     Dense  grid:   185183 G-vectors     FFT dimensions: (  72,  72,  72)

     Smooth grid:    99561 G-vectors     FFT dimensions: (  60,  60,  60)

     Estimated max dynamical RAM per process >     157.77 MB

     Estimated total dynamical RAM >       3.08 GB
     Generating pointlists ...
     new r_m :   0.1807 (alat units)  1.9138 (a.u.) for type    1
     new r_m :   0.1807 (alat units)  1.9138 (a.u.) for type    2

     Check: negative/imaginary core charge=   -0.000006    0.000000

     Initial potential from superposition of free atoms

     starting charge  255.99300, renormalised to  256.00000
     Starting wfcs are  160 randomized atomic wfcs
     Checking if some PAW data can be deallocated... 

     total cpu time spent up to now is        8.9 secs

     Self-consistent Calculation

     iteration #  1     ecut=    71.00 Ry     beta= 0.10
     Davidson diagonalization with overlap
     ethr =  1.00E-02,  avg # of iterations =  3.3

     Threshold (ethr) on eigenvalues was too large:
     Diagonalizing with lowered threshold

     Davidson diagonalization with overlap
     ethr =  1.85E-04,  avg # of iterations =  3.6

     total cpu time spent up to now is       68.6 secs

     total energy              =   -5267.96156703 Ry
     Harris-Foulkes estimate   =   -5268.00151961 Ry
     estimated scf accuracy    <       0.55877840 Ry

     total magnetization       =    28.59 Bohr mag/cell
     absolute magnetization    =    28.71 Bohr mag/cell

     iteration #  2     ecut=    71.00 Ry     beta= 0.10
     Davidson diagonalization with overlap
     ethr =  2.18E-04,  avg # of iterations =  1.0

     total cpu time spent up to now is       86.7 secs

     total energy              =   -5267.96008255 Ry
     Harris-Foulkes estimate   =   -5267.97230995 Ry
     estimated scf accuracy    <       0.33054820 Ry

     total magnetization       =    29.23 Bohr mag/cell
     absolute magnetization    =    29.39 Bohr mag/cell

     iteration #  3     ecut=    71.00 Ry     beta= 0.10
     Davidson diagonalization with overlap
     ethr =  1.29E-04,  avg # of iterations =  3.0

     total cpu time spent up to now is      115.6 secs

     total energy              =   -5268.01526487 Ry
     Harris-Foulkes estimate   =   -5268.01715694 Ry
     estimated scf accuracy    <       0.38443191 Ry

     total magnetization       =    30.47 Bohr mag/cell
     absolute magnetization    =    30.83 Bohr mag/cell

     iteration #  4     ecut=    71.00 Ry     beta= 0.10
     Davidson diagonalization with overlap
     ethr =  1.29E-04,  avg # of iterations =  1.0

     total cpu time spent up to now is      133.7 secs

     total energy              =   -5268.03382500 Ry
     Harris-Foulkes estimate   =   -5268.02446363 Ry
     estimated scf accuracy    <       0.12374123 Ry

     total magnetization       =    30.72 Bohr mag/cell
     absolute magnetization    =    31.10 Bohr mag/cell

     iteration #  5     ecut=    71.00 Ry     beta= 0.10
     Davidson diagonalization with overlap
     ethr =  4.83E-05,  avg # of iterations =  1.1

     total cpu time spent up to now is      152.0 secs

     total energy              =   -5268.12307124 Ry
     Harris-Foulkes estimate   =   -5268.03764519 Ry
     estimated scf accuracy    <       0.11230312 Ry

     total magnetization       =    30.77 Bohr mag/cell
     absolute magnetization    =    31.20 Bohr mag/cell

     iteration #  6     ecut=    71.00 Ry     beta= 0.10
     Davidson diagonalization with overlap
     ethr =  4.39E-05,  avg # of iterations =  3.4

     negative rho (up, down):  0.000E+00 3.802E-03

     total cpu time spent up to now is      184.3 secs

     total energy              =   -5268.13757663 Ry
     Harris-Foulkes estimate   =   -5268.16512760 Ry
     estimated scf accuracy    <       0.24084495 Ry

     total magnetization       =    31.44 Bohr mag/cell
     absolute magnetization    =    32.27 Bohr mag/cell

     iteration #  7     ecut=    71.00 Ry     beta= 0.10
     Davidson diagonalization with overlap
     ethr =  4.39E-05,  avg # of iterations =  2.9

     negative rho (up, down):  0.000E+00 2.459E-03

     total cpu time spent up to now is      213.8 secs

     total energy              =   -5268.18443170 Ry
     Harris-Foulkes estimate   =   -5268.18899346 Ry
     estimated scf accuracy    <       0.01207427 Ry

     total magnetization       =    32.94 Bohr mag/cell
     absolute magnetization    =    34.68 Bohr mag/cell

     iteration #  8     ecut=    71.00 Ry     beta= 0.10
     Davidson diagonalization with overlap
     ethr =  4.72E-06,  avg # of iterations =  2.3

     negative rho (up, down):  0.000E+00 2.163E-03

     total cpu time spent up to now is      238.4 secs

     total energy              =   -5268.18575518 Ry
     Harris-Foulkes estimate   =   -5268.18618001 Ry
     estimated scf accuracy    <       0.00907528 Ry

     total magnetization       =    32.85 Bohr mag/cell
     absolute magnetization    =    34.39 Bohr mag/cell

     iteration #  9     ecut=    71.00 Ry     beta= 0.10
     Davidson diagonalization with overlap
     ethr =  3.55E-06,  avg # of iterations =  1.2

     negative rho (up, down):  0.000E+00 2.659E-03

     total cpu time spent up to now is      256.9 secs

     total energy              =   -5268.18901270 Ry
     Harris-Foulkes estimate   =   -5268.18601318 Ry
     estimated scf accuracy    <       0.00571663 Ry

     total magnetization       =    32.91 Bohr mag/cell
     absolute magnetization    =    34.46 Bohr mag/cell

     iteration # 10     ecut=    71.00 Ry     beta= 0.10
     Davidson diagonalization with overlap
     ethr =  2.23E-06,  avg # of iterations =  3.4

     negative rho (up, down):  0.000E+00 2.601E-03

     total cpu time spent up to now is      287.3 secs

     total energy              =   -5268.19086267 Ry
     Harris-Foulkes estimate   =   -5268.19076787 Ry
     estimated scf accuracy    <       0.00089752 Ry

     total magnetization       =    33.29 Bohr mag/cell
     absolute magnetization    =    35.11 Bohr mag/cell

     iteration # 11     ecut=    71.00 Ry     beta= 0.10
     Davidson diagonalization with overlap
     ethr =  3.51E-07,  avg # of iterations =  1.1

     negative rho (up, down):  0.000E+00 2.365E-03

     total cpu time spent up to now is      305.8 secs

     total energy              =   -5268.19109240 Ry
     Harris-Foulkes estimate   =   -5268.19087714 Ry
     estimated scf accuracy    <       0.00070323 Ry

     total magnetization       =    33.30 Bohr mag/cell
     absolute magnetization    =    35.13 Bohr mag/cell

     iteration # 12     ecut=    71.00 Ry     beta= 0.10
     Davidson diagonalization with overlap
     ethr =  2.75E-07,  avg # of iterations =  1.8

     negative rho (up, down):  0.000E+00 2.621E-03

     total cpu time spent up to now is      326.8 secs

     total energy              =   -5268.19118859 Ry
     Harris-Foulkes estimate   =   -5268.19116962 Ry
     estimated scf accuracy    <       0.00071463 Ry

     total magnetization       =    33.37 Bohr mag/cell
     absolute magnetization    =    35.20 Bohr mag/cell

     iteration # 13     ecut=    71.00 Ry     beta= 0.10
     Davidson diagonalization with overlap
     ethr =  2.75E-07,  avg # of iterations =  3.3

     negative rho (up, down):  0.000E+00 2.661E-03

     total cpu time spent up to now is      357.1 secs

     total energy              =   -5268.19146678 Ry
     Harris-Foulkes estimate   =   -5268.19147818 Ry
     estimated scf accuracy    <       0.00021203 Ry

     total magnetization       =    33.55 Bohr mag/cell
     absolute magnetization    =    35.49 Bohr mag/cell

     iteration # 14     ecut=    71.00 Ry     beta= 0.10
     Davidson diagonalization with overlap
     ethr =  8.28E-08,  avg # of iterations =  1.8

     negative rho (up, down):  0.000E+00 2.665E-03

     total cpu time spent up to now is      378.1 secs

     total energy              =   -5268.19151193 Ry
     Harris-Foulkes estimate   =   -5268.19149522 Ry
     estimated scf accuracy    <       0.00014674 Ry

     total magnetization       =    33.59 Bohr mag/cell
     absolute magnetization    =    35.53 Bohr mag/cell

     iteration # 15     ecut=    71.00 Ry     beta= 0.10
     Davidson diagonalization with overlap
     ethr =  5.73E-08,  avg # of iterations =  1.0

     negative rho (up, down):  0.000E+00 2.681E-03

     total cpu time spent up to now is      396.1 secs

     total energy              =   -5268.19154657 Ry
     Harris-Foulkes estimate   =   -5268.19152325 Ry
     estimated scf accuracy    <       0.00002808 Ry

     total magnetization       =    33.61 Bohr mag/cell
     absolute magnetization    =    35.56 Bohr mag/cell

     iteration # 16     ecut=    71.00 Ry     beta= 0.10
     Davidson diagonalization with overlap
     ethr =  1.10E-08,  avg # of iterations =  3.0

     negative rho (up, down):  0.000E+00 2.677E-03

     total cpu time spent up to now is      424.3 secs

     total energy              =   -5268.19155503 Ry
     Harris-Foulkes estimate   =   -5268.19155167 Ry
     estimated scf accuracy    <       0.00001077 Ry

     total magnetization       =    33.61 Bohr mag/cell
     absolute magnetization    =    35.55 Bohr mag/cell

     iteration # 17     ecut=    71.00 Ry     beta= 0.10
     Davidson diagonalization with overlap
     ethr =  4.21E-09,  avg # of iterations =  2.8

     negative rho (up, down):  0.000E+00 2.699E-03

     total cpu time spent up to now is      451.4 secs

     total energy              =   -5268.19155969 Ry
     Harris-Foulkes estimate   =   -5268.19155713 Ry
     estimated scf accuracy    <       0.00000432 Ry

     total magnetization       =    33.62 Bohr mag/cell
     absolute magnetization    =    35.56 Bohr mag/cell

     iteration # 18     ecut=    71.00 Ry     beta= 0.10
     Davidson diagonalization with overlap
     ethr =  1.69E-09,  avg # of iterations =  2.5

     negative rho (up, down):  0.000E+00 2.718E-03
 
     Magnetic moment per site:
     atom:    1    charge:   14.3939    magn:    2.1513    constr:    0.0000
     atom:    2    charge:   14.3939    magn:    2.1535    constr:    0.0000
     atom:    3    charge:   14.3939    magn:    2.1521    constr:    0.0000
     atom:    4    charge:   14.3939    magn:    2.1535    constr:    0.0000
     atom:    5    charge:   14.3939    magn:    2.1521    constr:    0.0000
     atom:    6    charge:   14.3939    magn:    2.1535    constr:    0.0000
     atom:    7    charge:   14.3941    magn:    2.1526    constr:    0.0000
     atom:    8    charge:   14.3939    magn:    2.1535    constr:    0.0000
     atom:    9    charge:   14.3939    magn:    2.1521    constr:    0.0000
     atom:   10    charge:   14.3939    magn:    2.1535    constr:    0.0000
     atom:   11    charge:   14.3941    magn:    2.1526    constr:    0.0000
     atom:   12    charge:   14.3939    magn:    2.1535    constr:    0.0000
     atom:   13    charge:   14.3941    magn:    2.1526    constr:    0.0000
     atom:   14    charge:   14.3939    magn:    2.1535    constr:    0.0000
     atom:   15    charge:   14.3941    magn:    2.1532    constr:    0.0000
     atom:   16    charge:   14.3939    magn:    2.1535    constr:    0.0000

     total cpu time spent up to now is      475.1 secs

     End of self-consistent calculation

 ------ SPIN UP ------------


          k = 0.0549 0.0549 0.0549 ( 12437 PWs)   bands (ev):

   -69.8449 -69.7788 -69.7788 -69.7788 -69.7687 -69.7686 -69.7686 -69.7675
   -69.7673 -69.7673 -69.7668 -69.7668 -69.7665 -69.7634 -69.7620 -69.7110
   -36.0466 -36.0466 -36.0466 -36.0441 -36.0441 -36.0441 -35.9338 -35.9338
   -35.9292 -35.8742 -35.8713 -35.8713 -35.8713 -35.8568 -35.8568 -35.8458
   -35.8458 -35.8458 -35.8211 -35.8211 -35.8036 -35.7948 -35.7948 -35.7948
   -35.7865 -35.7865 -35.7865 -35.7785 -35.7785 -35.7785 -35.7758 -35.7758
   -35.7758 -35.7690 -35.7690 -35.7690 -35.7609 -35.7609 -35.7609 -35.6442
   -35.6419 -35.6419 -35.6419 -35.6398 -35.6398 -35.6398 -35.6392 -35.6392
     9.7758  13.3170  13.3170  13.3170  13.3195  13.3195  13.3195  13.3358
    13.3358  13.3358  13.3841  13.3841  13.7287  13.7287  13.7287  14.8878
    14.9016  14.9016  14.9016  14.9136  14.9136  14.9136  14.9692  14.9692
    15.0453  15.0453  15.0453  15.1057  15.1057  15.1580  15.3670  15.3670
    15.3670  15.9787  15.9787  16.0183  16.2932  16.2932  16.2932  16.3684
    16.3684  16.3684  16.4577  16.4577  16.4577  16.5347  16.5347  16.5347
    17.1282  17.1282  17.1372  17.1372  17.1372  17.1715  17.1715  17.1715
    17.2116  17.2116  17.2116  17.2177  17.2177  17.2177  17.3240  17.3241
    17.3241  17.3479  17.3479  17.3479  17.3599  17.3599  17.3613  17.3613
    18.1860  18.1860  18.1860  18.2904  18.2904  18.2905  18.3514  18.4141
    18.4141  18.4550  18.4550  18.4550  18.7406  18.7406  18.7406  18.9658
    18.9658  18.9658

          k = 0.0549 0.0549 0.1648 ( 12434 PWs)   bands (ev):

   -69.8425 -69.7906 -69.7784 -69.7784 -69.7698 -69.7698 -69.7683 -69.7672
   -69.7670 -69.7665 -69.7664 -69.7663 -69.7636 -69.7622 -69.7558 -69.7126
   -36.0408 -36.0408 -36.0398 -36.0378 -36.0344 -36.0344 -35.9354 -35.9289
   -35.9213 -35.9001 -35.8942 -35.8942 -35.8925 -35.8919 -35.8698 -35.8698
   -35.8452 -35.8256 -35.8206 -35.8175 -35.8117 -35.7948 -35.7948 -35.7862
   -35.7823 -35.7810 -35.7810 -35.7793 -35.7767 -35.7740 -35.7740 -35.7696
   -35.7696 -35.7657 -35.7657 -35.7439 -35.7415 -35.7414 -35.7365 -35.6548
   -35.6485 -35.6485 -35.6477 -35.6455 -35.6434 -35.6419 -35.6419 -35.6411
     9.9037  12.7727  13.3326  13.3326  13.3681  13.3681  13.3915  13.3915
    13.4063  13.4242  13.4384  13.4410  13.7653  13.7653  13.9584  14.7271
    14.7862  14.8799  14.8891  14.8988  14.8998  14.9440  14.9440  14.9801
    14.9802  14.9991  15.0282  15.0282  15.2932  15.2950  15.3196  15.3196
    15.6756  15.9585  15.9762  16.0720  16.1094  16.1094  16.1630  16.2513
    16.2640  16.2640  16.4790  16.4790  16.5979  16.5979  16.6586  16.7438
    16.8159  16.8159  16.9307  17.0634  17.0635  17.0722  17.1233  17.1514
    17.1724  17.1724  17.2239  17.2266  17.2451  17.2451  17.3263  17.3295
    17.3295  17.3566  17.3577  17.3591  17.3610  17.5342  17.5342  17.5572
    17.6834  17.8296  17.9050  18.2071  18.2071  18.2088  18.2088  18.2132
    18.3054  18.4077  18.5297  18.5297  18.8028  18.8028  18.8308  18.8308
    19.2968  19.2969

          k = 0.0549 0.0549 0.2746 ( 12451 PWs)   bands (ev):

   -69.8379 -69.8022 -69.7775 -69.7775 -69.7713 -69.7713 -69.7677 -69.7669
   -69.7668 -69.7661 -69.7661 -69.7659 -69.7643 -69.7628 -69.7454 -69.7161
   -36.0280 -36.0280 -36.0271 -36.0257 -36.0177 -36.0177 -35.9359 -35.9298
   -35.9258 -35.9243 -35.9243 -35.9196 -35.9111 -35.9087 -35.9016 -35.9016
   -35.8455 -35.8362 -35.8347 -35.8223 -35.7936 -35.7936 -35.7897 -35.7862
   -35.7861 -35.7838 -35.7838 -35.7727 -35.7727 -35.7699 -35.7699 -35.7534
   -35.7479 -35.7401 -35.7400 -35.7199 -35.7173 -35.7173 -35.7133 -35.6715
   -35.6594 -35.6594 -35.6585 -35.6575 -35.6517 -35.6488 -35.6487 -35.6480
    10.1560  12.1615  13.3760  13.3760  13.4378  13.4378  13.4790  13.4790
    13.5452  13.5462  13.5778  13.5934  13.8001  13.8001  14.0205  14.4246
    14.6422  14.6872  14.8306  14.8669  14.8760  14.8776  15.0390  15.0390
    15.0574  15.0574  15.0987  15.0987  15.3066  15.3066  15.5282  15.5394
    15.8624  15.8624  15.9226  15.9478  15.9738  16.0024  16.0024  16.0667
    16.1521  16.2199  16.3746  16.3746  16.6119  16.6119  16.6540  16.6540
    16.7035  16.7035  16.7344  16.8966  16.9425  16.9618  16.9906  17.1114
    17.1114  17.1123  17.1905  17.1905  17.1972  17.2466  17.2644  17.3302
    17.3471  17.3499  17.3537  17.3608  17.5387  17.5783  17.5783  17.6057
    17.7584  17.7768  17.7768  18.0022  18.1059  18.1927  18.1927  18.2560
    18.2560  18.3481  18.4964  18.4964  18.6984  18.6984  18.9180  18.9180
    19.3733  19.3733

          k = 0.0549 0.0549 0.3845 ( 12443 PWs)   bands (ev):

   -69.8312 -69.8130 -69.7762 -69.7762 -69.7729 -69.7729 -69.7670 -69.7665
   -69.7665 -69.7660 -69.7660 -69.7653 -69.7651 -69.7635 -69.7360 -69.7212
   -36.0088 -36.0086 -36.0086 -36.0080 -35.9945 -35.9945 -35.9590 -35.9574
   -35.9550 -35.9550 -35.9347 -35.9347 -35.9338 -35.9207 -35.9062 -35.8968
   -35.8685 -35.8590 -35.8236 -35.8149 -35.7997 -35.7951 -35.7916 -35.7916
   -35.7866 -35.7866 -35.7714 -35.7714 -35.7702 -35.7702 -35.7540 -35.7234
   -35.7203 -35.7153 -35.7153 -35.6982 -35.6950 -35.6946 -35.6944 -35.6923
   -35.6748 -35.6747 -35.6743 -35.6743 -35.6636 -35.6597 -35.6597 -35.6591
    10.5248  11.5536  13.4327  13.4327  13.4838  13.4839  13.5884  13.5884
    13.6858  13.7019  13.7814  13.7814  13.8177  13.8289  13.9619  14.1476
    14.3970  14.4065  14.8139  14.8292  14.8415  14.8490  15.1822  15.1822
    15.2073  15.2073  15.2637  15.2637  15.4008  15.4008  15.6298  15.6298
    15.7400  15.7400  15.8319  15.8402  15.9255  15.9255  15.9484  15.9757
    15.9930  16.0019  16.1213  16.1213  16.2601  16.3731  16.5543  16.5846
    16.6297  16.8015  16.8209  16.8209  16.8345  16.8345  17.0310  17.0310
    17.1099  17.1099  17.1656  17.2616  17.2665  17.2755  17.2799  17.3298
    17.3317  17.3358  17.3481  17.3630  17.4088  17.4562  17.7402  17.8174
    17.8174  17.8466  17.9447  18.0142  18.0142  18.1383  18.1383  18.2459
    18.3298  18.3298  18.3874  18.3874  18.5608  18.5608  19.0668  19.0668
    19.3363  19.3363

          k = 0.0549 0.0549-0.4944 ( 12408 PWs)   bands (ev):

   -69.8230 -69.8227 -69.7747 -69.7747 -69.7745 -69.7744 -69.7664 -69.7664
   -69.7661 -69.7660 -69.7660 -69.7659 -69.7647 -69.7641 -69.7281 -69.7277
   -35.9855 -35.9853 -35.9852 -35.9851 -35.9837 -35.9837 -35.9837 -35.9837
   -35.9661 -35.9661 -35.9661 -35.9661 -35.9290 -35.9287 -35.8892 -35.8889
   -35.8794 -35.8792 -35.8115 -35.8112 -35.8051 -35.8047 -35.7894 -35.7894
   -35.7891 -35.7891 -35.7708 -35.7708 -35.7705 -35.7705 -35.7232 -35.7230
   -35.6969 -35.6966 -35.6956 -35.6954 -35.6931 -35.6931 -35.6930 -35.6930
   -35.6794 -35.6791 -35.6750 -35.6750 -35.6750 -35.6749 -35.6739 -35.6737
    10.9974  10.9974  13.4784  13.4784  13.4785  13.4785  13.6999  13.7000
    13.7001  13.7001  13.8357  13.8357  13.9045  13.9045  14.1040  14.1041
    14.1081  14.1082  14.8208  14.8210  14.8287  14.8289  15.3616  15.3616
    15.3616  15.3616  15.4254  15.4254  15.4254  15.4254  15.5731  15.5732
    15.5732  15.5732  15.7166  15.7166  15.7167  15.7167  15.9646  15.9647
    15.9839  15.9842  16.1939  16.1942  16.1996  16.1999  16.3947  16.3949
    16.5986  16.5987  16.9329  16.9329  16.9330  16.9330  16.9908  16.9908
    16.9909  16.9909  17.3055  17.3057  17.3062  17.3065  17.3420  17.3421
    17.3465  17.3468  17.3733  17.3734  17.4531  17.4533  17.5582  17.5585
    18.0119  18.0119  18.0119  18.0119  18.1091  18.1093  18.2222  18.2222
    18.2223  18.2223  18.4325  18.4325  18.4326  18.4326  19.2192  19.2192
    19.2193  19.2193

          k = 0.0549 0.1648 0.1648 ( 12435 PWs)   bands (ev):

   -69.8402 -69.7898 -69.7898 -69.7779 -69.7730 -69.7694 -69.7694 -69.7669
   -69.7662 -69.7661 -69.7641 -69.7639 -69.7624 -69.7561 -69.7560 -69.7143
   -36.0395 -36.0346 -36.0346 -36.0289 -36.0288 -36.0207 -35.9402 -35.9259
   -35.9170 -35.9139 -35.9139 -35.9102 -35.9082 -35.9026 -35.8852 -35.8527
   -35.8414 -35.8414 -35.8200 -35.8200 -35.8179 -35.7986 -35.7904 -35.7904
   -35.7880 -35.7855 -35.7855 -35.7774 -35.7774 -35.7725 -35.7722 -35.7679
   -35.7569 -35.7496 -35.7449 -35.7449 -35.7275 -35.7179 -35.7178 -35.6690
   -35.6593 -35.6531 -35.6531 -35.6474 -35.6474 -35.6470 -35.6398 -35.6392
    10.0303  12.8405  12.8405  13.2976  13.4234  13.4235  13.4235  13.4785
    13.4789  13.4789  13.4905  13.4982  13.8118  13.9942  13.9942  14.6954
    14.7322  14.7322  14.7946  14.9288  14.9288  14.9484  14.9608  14.9608
    14.9618  14.9950  15.0593  15.0699  15.2573  15.2905  15.3040  15.5833
    15.5833  15.9080  15.9646  15.9899  15.9899  16.0394  16.1546  16.1603
    16.4066  16.4066  16.4524  16.4525  16.4699  16.5170  16.6394  16.7504
    16.7504  16.7597  16.7597  17.0033  17.0033  17.0642  17.0981  17.1125
    17.1260  17.1260  17.1353  17.1870  17.1870  17.2406  17.2406  17.3065
    17.3497  17.3565  17.3573  17.3662  17.4538  17.6308  17.6959  17.7280
    17.7280  17.7356  17.7356  17.8241  17.8242  18.0287  18.0804  18.0804
    18.2233  18.2687  18.4304  18.5942  18.6130  18.9004  19.4837  19.4837
    19.6306  19.6306

          k = 0.0549 0.1648 0.2746 ( 12440 PWs)   bands (ev):

   -69.8357 -69.8010 -69.7882 -69.7770 -69.7765 -69.7709 -69.7688 -69.7666
   -69.7659 -69.7656 -69.7648 -69.7629 -69.7616 -69.7565 -69.7459 -69.7177
   -36.0310 -36.0226 -36.0224 -36.0181 -36.0132 -36.0001 -35.9445 -35.9417
   -35.9382 -35.9308 -35.9287 -35.9286 -35.9171 -35.9098 -35.8962 -35.8743
   -35.8450 -35.8444 -35.8174 -35.8152 -35.8147 -35.8105 -35.7999 -35.7951
   -35.7939 -35.7891 -35.7841 -35.7762 -35.7740 -35.7640 -35.7620 -35.7468
   -35.7461 -35.7344 -35.7293 -35.7216 -35.7089 -35.6964 -35.6960 -35.6892
   -35.6738 -35.6620 -35.6619 -35.6585 -35.6548 -35.6530 -35.6420 -35.6417
    10.2797  12.2479  12.9567  13.2754  13.4686  13.5059  13.5663  13.5902
    13.5918  13.5980  13.6077  13.6462  13.8644  14.0162  14.0615  14.4468
    14.5903  14.6669  14.7967  14.8824  14.9021  14.9279  14.9626  14.9929
    15.0157  15.0321  15.0667  15.2108  15.2128  15.4391  15.4741  15.5213
    15.7638  15.7787  15.8631  15.8679  15.9072  15.9526  15.9627  16.0749
    16.1803  16.2744  16.3204  16.4098  16.5281  16.5921  16.6215  16.6565
    16.6762  16.7338  16.7411  16.7760  16.7822  16.9271  16.9691  16.9818
    17.0197  17.1292  17.1701  17.1890  17.2148  17.2377  17.2426  17.3365
    17.3463  17.3565  17.3760  17.3789  17.4621  17.5868  17.5967  17.6033
    17.7341  17.7694  17.7853  17.8087  17.8164  17.9264  17.9665  18.0301
    18.1443  18.3960  18.4018  18.4168  18.5967  19.0769  19.2704  19.8063
    19.8875  20.2044

          k = 0.0549 0.1648 0.3845 ( 12434 PWs)   bands (ev):

   -69.8293 -69.8116 -69.7859 -69.7799 -69.7757 -69.7725 -69.7679 -69.7663
   -69.7659 -69.7657 -69.7650 -69.7635 -69.7597 -69.7572 -69.7369 -69.7226
   -36.0159 -36.0051 -36.0048 -36.0025 -35.9919 -35.9737 -35.9694 -35.9611
   -35.9567 -35.9565 -35.9461 -35.9386 -35.9380 -35.9089 -35.9038 -35.8790
   -35.8670 -35.8380 -35.8324 -35.8130 -35.8098 -35.8057 -35.8017 -35.7987
   -35.7927 -35.7924 -35.7779 -35.7755 -35.7747 -35.7571 -35.7493 -35.7378
   -35.7193 -35.7161 -35.7119 -35.7088 -35.7005 -35.6921 -35.6907 -35.6771
   -35.6760 -35.6750 -35.6745 -35.6744 -35.6666 -35.6621 -35.6495 -35.6489
    10.6437  11.6547  13.0853  13.2465  13.5260  13.5661  13.6758  13.7236
    13.7294  13.7602  13.8415  13.8616  13.8772  13.9682  14.0073  14.1836
    14.4049  14.4261  14.8415  14.8714  14.8791  14.8911  14.9828  15.0981
    15.1387  15.1509  15.1989  15.2470  15.3938  15.4876  15.6301  15.6752
    15.6996  15.7020  15.7303  15.7573  15.8349  15.8419  15.8934  15.9011
    15.9060  15.9386  16.0633  16.2220  16.3340  16.4067  16.4089  16.5154
    16.7380  16.8202  16.8276  16.8343  16.8462  16.8476  16.9336  16.9433
    17.0520  17.1058  17.1512  17.2204  17.2355  17.2516  17.2611  17.3154
    17.3237  17.3574  17.3837  17.3963  17.4333  17.5068  17.5350  17.6088
    17.6520  17.7199  17.7764  17.8273  17.8309  17.9111  18.0984  18.1197
    18.1877  18.1949  18.3522  18.5136  18.5857  19.0450  19.3013  19.7455
    20.0184  20.3057

          k = 0.0549 0.1648-0.4944 ( 12410 PWs)   bands (ev):

   -69.8213 -69.8210 -69.7832 -69.7829 -69.7743 -69.7740 -69.7669 -69.7668
   -69.7662 -69.7658 -69.7645 -69.7640 -69.7585 -69.7581 -69.7292 -69.7288
   -35.9948 -35.9948 -35.9833 -35.9831 -35.9828 -35.9825 -35.9820 -35.9820
   -35.9661 -35.9661 -35.9443 -35.9442 -35.9426 -35.9426 -35.8872 -35.8869
   -35.8595 -35.8594 -35.8189 -35.8187 -35.8079 -35.8076 -35.8017 -35.8013
   -35.7962 -35.7959 -35.7750 -35.7748 -35.7529 -35.7526 -35.7460 -35.7458
   -35.7137 -35.7136 -35.6951 -35.6948 -35.6919 -35.6917 -35.6903 -35.6902
   -35.6820 -35.6817 -35.6748 -35.6747 -35.6613 -35.6612 -35.6601 -35.6601
    11.1091  11.1091  13.1873  13.1874  13.5694  13.5695  13.7864  13.7865
    13.8581  13.8582  13.8815  13.8816  13.9524  13.9525  14.1298  14.1299
    14.1452  14.1453  14.8463  14.8465  14.8665  14.8666  15.2538  15.2539
    15.2563  15.2563  15.2811  15.2812  15.3118  15.3118  15.6429  15.6430
    15.6587  15.6588  15.7305  15.7305  15.8279  15.8280  15.8283  15.8283
    15.9228  15.9231  16.0280  16.0282  16.0318  16.0321  16.5638  16.5639
    16.6807  16.6808  16.8749  16.8750  16.9569  16.9569  16.9838  16.9838
    17.0164  17.0164  17.2158  17.2160  17.2884  17.2886  17.2904  17.2906
    17.3222  17.3224  17.3628  17.3629  17.4398  17.4399  17.4970  17.4973
    17.6837  17.6838  17.7944  17.7945  17.9772  17.9773  18.0344  18.0344
    18.2431  18.2432  18.3744  18.3744  18.8116  18.8116  19.5368  19.5368
    20.2109  20.2109

          k = 0.0549 0.2746 0.2746 ( 12431 PWs)   bands (ev):

   -69.8315 -69.7988 -69.7988 -69.7817 -69.7761 -69.7702 -69.7702 -69.7663
   -69.7658 -69.7654 -69.7653 -69.7631 -69.7575 -69.7470 -69.7470 -69.7208
   -36.0270 -36.0121 -36.0121 -36.0049 -36.0048 -35.9764 -35.9536 -35.9535
   -35.9534 -35.9499 -35.9434 -35.9408 -35.9252 -35.9089 -35.8781 -35.8457
   -35.8436 -35.8436 -35.8402 -35.8401 -35.8117 -35.8060 -35.8055 -35.7987
   -35.7987 -35.7882 -35.7882 -35.7829 -35.7829 -35.7780 -35.7523 -35.7291
   -35.7251 -35.7251 -35.7182 -35.7146 -35.7143 -35.6971 -35.6915 -35.6771
   -35.6771 -35.6674 -35.6674 -35.6622 -35.6615 -35.6615 -35.6399 -35.6391
    10.5228  12.4076  12.4076  13.1617  13.6148  13.6457  13.6457  13.6764
    13.7143  13.7251  13.7324  13.7324  13.9563  14.0874  14.0874  14.5353
    14.5410  14.5410  14.5968  14.9218  14.9302  14.9754  14.9754  14.9875
    15.0125  15.0125  15.0764  15.1189  15.3729  15.3936  15.4511  15.6526
    15.6526  15.7322  15.7322  15.7347  15.7778  15.7993  15.8636  15.9236
    16.2001  16.2001  16.3377  16.3377  16.3948  16.3949  16.4262  16.5650
    16.6265  16.6265  16.7281  16.8068  16.9150  16.9151  16.9363  16.9843
    17.1505  17.1637  17.1637  17.1781  17.1781  17.1942  17.1942  17.2305
    17.2758  17.3157  17.3316  17.3669  17.3996  17.5141  17.5505  17.5505
    17.5723  17.5723  17.6280  17.7765  17.8347  17.8347  17.8447  18.1379
    18.1379  18.1850  18.4601  18.6188  18.6393  19.3413  19.8898  19.8898
    20.5244  20.5244

          k = 0.0549 0.2746 0.3845 ( 12424 PWs)   bands (ev):

   -69.8255 -69.8088 -69.7956 -69.7868 -69.7749 -69.7717 -69.7692 -69.7668
   -69.7660 -69.7654 -69.7648 -69.7635 -69.7540 -69.7487 -69.7386 -69.7253
   -36.0162 -35.9972 -35.9971 -35.9930 -35.9869 -35.9779 -35.9640 -35.9603
   -35.9602 -35.9595 -35.9590 -35.9471 -35.9449 -35.8965 -35.8789 -35.8616
   -35.8575 -35.8377 -35.8338 -35.8166 -35.8124 -35.8116 -35.8102 -35.8079
   -35.8070 -35.8034 -35.7911 -35.7823 -35.7807 -35.7615 -35.7445 -35.7435
   -35.7298 -35.7130 -35.7092 -35.7052 -35.7020 -35.6995 -35.6853 -35.6759
   -35.6756 -35.6742 -35.6734 -35.6668 -35.6613 -35.6608 -35.6423 -35.6418
    10.8766  11.8480  12.6138  13.0160  13.7031  13.7095  13.7954  13.8402
    13.8405  13.8874  13.8903  13.9583  13.9982  14.0424  14.0479  14.3009
    14.4211  14.4336  14.7471  14.8912  14.9273  14.9292  14.9529  14.9613
    15.0662  15.0958  15.0959  15.1690  15.3776  15.4753  15.5291  15.5813
    15.5825  15.6570  15.6941  15.7114  15.7154  15.7341  15.8012  15.8454
    15.8900  15.9359  16.0140  16.0655  16.1044  16.1603  16.5953  16.6446
    16.6916  16.8312  16.8574  16.8687  16.8766  16.9061  16.9133  16.9762
    17.0937  17.1085  17.1117  17.1347  17.1935  17.2101  17.2153  17.2195
    17.2850  17.3022  17.3256  17.3824  17.3894  17.4166  17.4373  17.4585
    17.5196  17.6041  17.6263  17.6274  17.6433  17.8052  17.8609  17.9586
    18.2817  18.3307  18.4505  18.5789  18.9377  19.5773  19.6562  20.2839
    20.5381  21.1377

          k = 0.0549 0.2746-0.4944 ( 12420 PWs)   bands (ev):

   -69.8180 -69.8176 -69.7916 -69.7913 -69.7735 -69.7732 -69.7681 -69.7679
   -69.7659 -69.7655 -69.7644 -69.7639 -69.7512 -69.7509 -69.7315 -69.7311
   -35.9994 -35.9994 -35.9792 -35.9791 -35.9790 -35.9789 -35.9789 -35.9787
   -35.9663 -35.9662 -35.9621 -35.9621 -35.9141 -35.9141 -35.8805 -35.8803
   -35.8355 -35.8355 -35.8259 -35.8256 -35.8254 -35.8252 -35.8069 -35.8068
   -35.8000 -35.7998 -35.7819 -35.7817 -35.7769 -35.7768 -35.7362 -35.7362
   -35.7360 -35.7357 -35.6904 -35.6902 -35.6880 -35.6877 -35.6877 -35.6875
   -35.6865 -35.6865 -35.6750 -35.6750 -35.6494 -35.6494 -35.6491 -35.6490
    11.3260  11.3261  12.8285  12.8286  13.7376  13.7377  13.9288  13.9289
    13.9454  13.9455  13.9572  13.9573  14.0819  14.0819  14.1717  14.1718
    14.2089  14.2090  14.8932  14.8933  14.9128  14.9129  15.0387  15.0388
    15.0786  15.0787  15.1174  15.1174  15.3049  15.3049  15.6700  15.6701
    15.6729  15.6730  15.6940  15.6941  15.7768  15.7770  15.7917  15.7919
    15.8287  15.8287  15.8526  15.8528  15.8568  15.8568  16.7754  16.7755
    16.8048  16.8048  16.8531  16.8533  16.9236  16.9237  16.9953  16.9953
    17.0053  17.0054  17.0062  17.0062  17.2488  17.2490  17.2595  17.2597
    17.2774  17.2776  17.3472  17.3475  17.4042  17.4043  17.4076  17.4077
    17.5043  17.5043  17.6458  17.6459  17.7169  17.7170  17.8413  17.8414
    18.3888  18.3889  18.4811  18.4812  19.2568  19.2568  19.9815  19.9815
    21.2022  21.2023

          k = 0.0549 0.3845 0.3845 ( 12413 PWs)   bands (ev):

   -69.8199 -69.8047 -69.8046 -69.7934 -69.7736 -69.7706 -69.7706 -69.7681
   -69.7657 -69.7649 -69.7649 -69.7638 -69.7489 -69.7412 -69.7411 -69.7294
   -36.0099 -35.9869 -35.9869 -35.9808 -35.9808 -35.9806 -35.9806 -35.9708
   -35.9684 -35.9668 -35.9657 -35.9549 -35.9158 -35.8853 -35.8532 -35.8532
   -35.8459 -35.8459 -35.8363 -35.8344 -35.8303 -35.8161 -35.8161 -35.8150
   -35.8039 -35.7905 -35.7905 -35.7860 -35.7858 -35.7857 -35.7767 -35.7356
   -35.7312 -35.7119 -35.7119 -35.6969 -35.6924 -35.6906 -35.6833 -35.6802
   -35.6786 -35.6786 -35.6746 -35.6745 -35.6492 -35.6492 -35.6398 -35.6393
    11.2128  12.1144  12.1144  12.7361  13.8621  13.8812  13.9345  13.9411
    13.9411  14.0381  14.0381  14.0578  14.0578  14.0654  14.1231  14.3752
    14.4032  14.5095  14.5095  14.8865  14.9108  14.9204  14.9861  14.9861
    14.9892  14.9893  15.0048  15.0760  15.2340  15.4641  15.4851  15.4851
    15.5276  15.6068  15.6301  15.6678  15.7366  15.7366  15.7542  15.7542
    15.7691  15.7691  15.8019  15.8423  15.9759  16.3459  16.3460  16.7969
    16.8566  16.8609  16.8609  16.9164  16.9384  16.9543  16.9868  16.9868
    16.9885  17.0901  17.1407  17.1407  17.1510  17.1510  17.1730  17.2254
    17.2255  17.2392  17.2406  17.2649  17.3310  17.3310  17.3864  17.4135
    17.4858  17.5154  17.5154  17.5942  17.6749  17.6749  17.7237  17.7378
    18.4354  18.4355  18.5000  18.5880  19.3272  20.0591  20.1365  20.1365
    20.8703  20.8703

          k = 0.0549 0.3845-0.4944 ( 12416 PWs)   bands (ev):

   -69.8130 -69.8127 -69.7996 -69.7993 -69.7723 -69.7720 -69.7695 -69.7692
   -69.7654 -69.7650 -69.7645 -69.7641 -69.7448 -69.7445 -69.7349 -69.7345
   -35.9977 -35.9977 -35.9782 -35.9781 -35.9762 -35.9761 -35.9758 -35.9756
   -35.9742 -35.9740 -35.9674 -35.9673 -35.8816 -35.8816 -35.8708 -35.8705
   -35.8428 -35.8425 -35.8282 -35.8280 -35.8177 -35.8177 -35.8115 -35.8114
   -35.8100 -35.8099 -35.7982 -35.7981 -35.7891 -35.7890 -35.7600 -35.7599
   -35.7208 -35.7205 -35.6965 -35.6962 -35.6849 -35.6847 -35.6844 -35.6842
   -35.6837 -35.6837 -35.6767 -35.6766 -35.6422 -35.6421 -35.6419 -35.6419
    11.6345  11.6346  12.4235  12.4236  13.9476  13.9477  13.9709  13.9709
    14.0014  14.0015  14.1379  14.1380  14.1933  14.1933  14.2751  14.2751
    14.2780  14.2781  14.7772  14.7773  14.9183  14.9184  14.9265  14.9266
    14.9355  14.9356  14.9959  14.9960  15.3412  15.3413  15.5296  15.5296
    15.5702  15.5704  15.6059  15.6061  15.6084  15.6086  15.6270  15.6271
    15.8038  15.8040  15.8245  15.8245  16.0604  16.0605  16.6200  16.6200
    16.8950  16.8951  16.9180  16.9180  17.0014  17.0015  17.0114  17.0115
    17.0427  17.0427  17.0750  17.0750  17.1681  17.1683  17.1884  17.1886
    17.2120  17.2121  17.2248  17.2250  17.2637  17.2639  17.4532  17.4533
    17.4804  17.4804  17.5564  17.5565  17.5574  17.5574  17.7024  17.7024
    18.4941  18.4941  18.5397  18.5397  19.7309  19.7310  20.4733  20.4734
    20.7096  20.7096

          k = 0.0549-0.4944-0.4944 ( 12420 PWs)   bands (ev):

   -69.8070 -69.8067 -69.8067 -69.8064 -69.7711 -69.7708 -69.7708 -69.7705
   -69.7651 -69.7647 -69.7647 -69.7643 -69.7395 -69.7392 -69.7392 -69.7388
   -35.9904 -35.9904 -35.9904 -35.9904 -35.9747 -35.9745 -35.9745 -35.9744
   -35.9700 -35.9698 -35.9698 -35.9697 -35.8580 -35.8578 -35.8578 -35.8575
   -35.8468 -35.8468 -35.8468 -35.8468 -35.8257 -35.8256 -35.8256 -35.8256
   -35.7949 -35.7948 -35.7948 -35.7948 -35.7850 -35.7849 -35.7849 -35.7849
   -35.7077 -35.7074 -35.7074 -35.7071 -35.6829 -35.6828 -35.6828 -35.6827
   -35.6801 -35.6800 -35.6800 -35.6798 -35.6398 -35.6397 -35.6397 -35.6397
    12.0115  12.0116  12.0116  12.0117  14.0007  14.0007  14.0007  14.0007
    14.1262  14.1262  14.1262  14.1263  14.2742  14.2743  14.2743  14.2743
    14.5168  14.5168  14.5168  14.5169  14.8827  14.8827  14.8827  14.8827
    14.9351  14.9351  14.9351  14.9351  15.4176  15.4176  15.4177  15.4177
    15.5286  15.5287  15.5287  15.5289  15.5731  15.5733  15.5733  15.5734
    15.7945  15.7946  15.7946  15.7948  16.3275  16.3275  16.3275  16.3276
    16.9950  16.9950  16.9950  16.9950  17.0057  17.0058  17.0058  17.0061
    17.1143  17.1144  17.1144  17.1145  17.1481  17.1483  17.1483  17.1484
    17.2029  17.2031  17.2031  17.2033  17.2451  17.2451  17.2452  17.2452
    17.4991  17.4991  17.4991  17.4993  17.6152  17.6152  17.6152  17.6153
    18.5450  18.5450  18.5450  18.5450  20.2177  20.2178  20.2178  20.2179
    20.9792  20.9792

          k = 0.1648 0.1648 0.1648 ( 12443 PWs)   bands (ev):

   -69.8379 -69.7890 -69.7890 -69.7890 -69.7726 -69.7726 -69.7726 -69.7650
   -69.7637 -69.7637 -69.7637 -69.7621 -69.7562 -69.7562 -69.7562 -69.7160
   -36.0335 -36.0334 -36.0334 -36.0162 -36.0162 -36.0162 -35.9358 -35.9358
   -35.9317 -35.9262 -35.9262 -35.9261 -35.8967 -35.8874 -35.8874 -35.8581
   -35.8581 -35.8581 -35.8250 -35.8250 -35.8250 -35.7937 -35.7937 -35.7937
   -35.7837 -35.7837 -35.7726 -35.7726 -35.7726 -35.7704 -35.7704 -35.7704
   -35.7466 -35.7466 -35.7466 -35.7391 -35.7064 -35.7064 -35.7063 -35.6833
   -35.6619 -35.6619 -35.6619 -35.6456 -35.6456 -35.6456 -35.6434 -35.6434
    10.1557  12.9124  12.9124  12.9124  13.3927  13.3927  13.3927  13.5483
    13.5483  13.5633  13.5633  13.5633  14.0430  14.0430  14.0430  14.6202
    14.7213  14.7214  14.7214  14.8788  14.8788  14.9468  14.9468  14.9468
    15.0419  15.0419  15.0419  15.2130  15.2130  15.2145  15.4855  15.4855
    15.4855  15.8982  15.8982  15.9326  15.9326  15.9326  16.2598  16.2866
    16.2866  16.2866  16.4141  16.4141  16.4141  16.4639  16.4639  16.4639
    16.8184  16.8184  16.8184  17.0320  17.0320  17.0320  17.0911  17.0911
    17.1249  17.1249  17.1249  17.2806  17.2806  17.2806  17.3092  17.3092
    17.3092  17.3342  17.3342  17.3342  17.3446  17.3446  17.3702  17.3702
    17.8054  17.8110  17.8110  17.8111  17.8429  17.8429  17.8429  18.2726
    18.2726  18.2726  18.3208  18.3208  19.1269  19.1269  19.1269  19.7548
    19.7548  19.7548

          k = 0.1648 0.1648 0.2746 ( 12432 PWs)   bands (ev):

   -69.8337 -69.7999 -69.7874 -69.7874 -69.7759 -69.7759 -69.7718 -69.7662
   -69.7633 -69.7622 -69.7615 -69.7614 -69.7567 -69.7567 -69.7464 -69.7192
   -36.0251 -36.0251 -36.0208 -36.0077 -35.9972 -35.9972 -35.9474 -35.9463
   -35.9463 -35.9435 -35.9389 -35.9262 -35.9208 -35.8841 -35.8841 -35.8800
   -35.8711 -35.8502 -35.8277 -35.8259 -35.8259 -35.8044 -35.8020 -35.8020
   -35.7958 -35.7894 -35.7755 -35.7643 -35.7642 -35.7513 -35.7507 -35.7507
   -35.7485 -35.7485 -35.7221 -35.7209 -35.7057 -35.6902 -35.6902 -35.6870
   -35.6743 -35.6743 -35.6675 -35.6572 -35.6519 -35.6475 -35.6475 -35.6436
    10.4024  12.3366  13.0367  13.0367  13.3744  13.3744  13.5757  13.6477
    13.6562  13.6759  13.6759  13.7256  14.0875  14.0875  14.1184  14.4531
    14.5471  14.7550  14.7571  14.7571  14.8453  14.9201  14.9942  15.0129
    15.0129  15.0600  15.1648  15.1648  15.2989  15.3984  15.3984  15.4077
    15.6550  15.7790  15.7790  15.8340  15.8456  15.8792  16.0362  16.0362
    16.0663  16.0663  16.2948  16.3916  16.4588  16.4930  16.5852  16.5853
    16.6273  16.6274  16.6709  16.8612  16.8612  17.0050  17.0439  17.0583
    17.0583  17.0981  17.1422  17.1723  17.2146  17.2146  17.2397  17.3140
    17.3287  17.3396  17.3601  17.3948  17.4248  17.4248  17.4555  17.4555
    17.5346  17.5776  17.9115  17.9115  17.9326  17.9398  17.9398  17.9835
    18.1230  18.3361  18.3361  18.3572  18.8369  18.8369  19.7591  19.9707
    19.9707  20.6189

          k = 0.1648 0.1648 0.3845 ( 12448 PWs)   bands (ev):

   -69.8274 -69.8102 -69.7852 -69.7852 -69.7793 -69.7793 -69.7706 -69.7677
   -69.7630 -69.7622 -69.7598 -69.7597 -69.7574 -69.7573 -69.7377 -69.7239
   -36.0108 -36.0108 -36.0028 -35.9952 -35.9728 -35.9728 -35.9693 -35.9692
   -35.9639 -35.9518 -35.9484 -35.9464 -35.9141 -35.9141 -35.9124 -35.8738
   -35.8611 -35.8536 -35.8229 -35.8229 -35.8194 -35.8186 -35.8103 -35.8103
   -35.7956 -35.7900 -35.7812 -35.7590 -35.7590 -35.7512 -35.7512 -35.7331
   -35.7288 -35.7288 -35.7219 -35.7035 -35.6996 -35.6899 -35.6899 -35.6766
   -35.6749 -35.6749 -35.6741 -35.6708 -35.6644 -35.6530 -35.6530 -35.6486
    10.7621  11.7569  13.1756  13.1756  13.3476  13.3476  13.7931  13.7982
    13.8080  13.8080  13.8328  13.9468  14.0526  14.0526  14.0708  14.2026
    14.4154  14.4660  14.8413  14.8879  14.9179  14.9179  14.9385  14.9422
    15.1206  15.1206  15.2952  15.2952  15.3503  15.3503  15.5452  15.6354
    15.6623  15.6623  15.6823  15.6823  15.7583  15.7897  15.7911  15.8354
    15.8354  15.8528  16.1051  16.1052  16.1097  16.2496  16.5448  16.5967
    16.6830  16.8178  16.8179  16.8835  16.8965  16.8965  16.9052  16.9942
    16.9942  17.1260  17.1260  17.2125  17.2297  17.2417  17.2518  17.3045
    17.3062  17.3205  17.3319  17.3339  17.4144  17.4420  17.5039  17.5039
    17.5436  17.5436  17.6840  17.8672  18.0780  18.0780  18.0865  18.0865
    18.1355  18.3091  18.3091  18.3325  18.5720  18.5720  20.2306  20.2307
    20.4258  20.6384

          k = 0.1648 0.1648-0.4944 ( 12424 PWs)   bands (ev):

   -69.8196 -69.8193 -69.7826 -69.7826 -69.7823 -69.7822 -69.7693 -69.7690
   -69.7628 -69.7624 -69.7586 -69.7585 -69.7582 -69.7581 -69.7303 -69.7299
   -35.9916 -35.9916 -35.9916 -35.9915 -35.9804 -35.9802 -35.9797 -35.9794
   -35.9496 -35.9494 -35.9444 -35.9444 -35.9444 -35.9444 -35.8949 -35.8946
   -35.8406 -35.8405 -35.8363 -35.8361 -35.8174 -35.8174 -35.8172 -35.8171
   -35.7867 -35.7863 -35.7634 -35.7633 -35.7549 -35.7549 -35.7546 -35.7546
   -35.7080 -35.7080 -35.7080 -35.7080 -35.6959 -35.6956 -35.6888 -35.6886
   -35.6803 -35.6800 -35.6621 -35.6621 -35.6621 -35.6621 -35.6578 -35.6578
    11.2209  11.2210  13.2858  13.2858  13.2859  13.2859  13.9437  13.9437
    13.9438  13.9438  13.9485  13.9485  13.9800  13.9801  14.1407  14.1408
    14.1954  14.1955  14.8587  14.8589  14.9105  14.9107  15.1818  15.1818
    15.1819  15.1819  15.2521  15.2521  15.2521  15.2521  15.6352  15.6352
    15.6352  15.6353  15.7668  15.7668  15.7668  15.7668  15.7733  15.7734
    15.8162  15.8164  15.8683  15.8685  15.8787  15.8789  16.7174  16.7174
    16.7398  16.7399  16.9395  16.9395  16.9396  16.9396  16.9502  16.9504
    16.9913  16.9913  16.9913  16.9914  17.2786  17.2788  17.2859  17.2861
    17.3011  17.3013  17.3274  17.3275  17.5295  17.5295  17.5472  17.5472
    17.5473  17.5473  17.5857  17.5860  18.2184  18.2184  18.2184  18.2184
    18.2552  18.2553  18.3150  18.3150  18.3150  18.3150  20.4777  20.4777
    20.4777  20.4777

          k = 0.1648 0.2746 0.2746 ( 12439 PWs)   bands (ev):

   -69.8296 -69.7977 -69.7977 -69.7859 -69.7811 -69.7749 -69.7749 -69.7680
   -69.7617 -69.7614 -69.7612 -69.7575 -69.7570 -69.7475 -69.7475 -69.7221
   -36.0207 -36.0134 -36.0134 -35.9915 -35.9915 -35.9750 -35.9563 -35.9562
   -35.9562 -35.9560 -35.9484 -35.9280 -35.9236 -35.9015 -35.8794 -35.8605
   -35.8547 -35.8546 -35.8508 -35.8507 -35.8328 -35.8152 -35.8152 -35.8151
   -35.7786 -35.7730 -35.7730 -35.7682 -35.7682 -35.7534 -35.7511 -35.7394
   -35.7335 -35.7299 -35.7246 -35.7246 -35.7075 -35.6895 -35.6818 -35.6759
   -35.6759 -35.6742 -35.6742 -35.6580 -35.6580 -35.6571 -35.6456 -35.6436
    10.6436  12.5010  12.5010  13.1778  13.2668  13.5654  13.5654  13.7381
    13.7683  13.7974  13.8350  13.8350  14.1684  14.1684  14.1868  14.5192
    14.5226  14.5226  14.7105  14.7254  14.8870  14.9789  14.9789  15.0572
    15.0823  15.0877  15.0877  15.1913  15.2812  15.3044  15.3710  15.5336
    15.5336  15.7069  15.7080  15.7141  15.7142  15.7584  15.8309  15.9044
    15.9539  15.9539  16.2041  16.2041  16.2845  16.2845  16.3509  16.5517
    16.6530  16.6530  16.7100  16.9449  16.9977  17.0136  17.0434  17.0434
    17.1227  17.1249  17.1249  17.1829  17.1975  17.1975  17.2427  17.2789
    17.3082  17.3146  17.3146  17.3352  17.3582  17.3583  17.3632  17.4231
    17.5022  17.5808  17.5808  17.9300  18.0223  18.0309  18.0309  18.0961
    18.0961  18.1226  18.3502  18.4147  18.5168  19.3855  19.3855  20.2482
    21.0549  21.0549

          k = 0.1648 0.2746 0.3845 ( 12410 PWs)   bands (ev):

   -69.8236 -69.8074 -69.7945 -69.7860 -69.7837 -69.7781 -69.7735 -69.7698
   -69.7614 -69.7610 -69.7597 -69.7576 -69.7542 -69.7491 -69.7393 -69.7265
   -36.0104 -36.0010 -35.9963 -35.9838 -35.9760 -35.9710 -35.9698 -35.9654
   -35.9606 -35.9556 -35.9506 -35.9479 -35.9239 -35.9114 -35.8857 -35.8739
   -35.8676 -35.8460 -35.8396 -35.8350 -35.8317 -35.8272 -35.8245 -35.8228
   -35.7955 -35.7776 -35.7722 -35.7622 -35.7586 -35.7542 -35.7498 -35.7438
   -35.7291 -35.7161 -35.7161 -35.7076 -35.7029 -35.6956 -35.6868 -35.6796
   -35.6734 -35.6733 -35.6685 -35.6617 -35.6609 -35.6609 -35.6473 -35.6454
    10.9940  11.9523  12.7136  13.1240  13.3402  13.5415  13.8335  13.8613
    13.9236  13.9239  13.9672  14.0496  14.1249  14.1353  14.2022  14.3029
    14.4512  14.4793  14.7206  14.8149  14.8804  14.9380  14.9817  15.0053
    15.0678  15.1451  15.1551  15.2122  15.3344  15.3386  15.4089  15.4945
    15.5101  15.6067  15.6137  15.6498  15.6573  15.6861  15.7021  15.7348
    15.7886  15.8265  15.8919  15.9379  15.9500  15.9952  16.3995  16.7303
    16.7336  16.8296  16.8479  16.9400  16.9429  16.9639  17.0009  17.0015
    17.0803  17.1097  17.1143  17.1384  17.1751  17.2037  17.2116  17.2723
    17.2777  17.3092  17.3347  17.3355  17.3414  17.3809  17.4064  17.4240
    17.4868  17.5023  17.7152  17.7784  17.7938  17.9615  18.0483  18.2242
    18.2294  18.2366  18.3540  18.4073  18.4107  19.0459  19.9731  20.5773
    21.1531  21.1984

          k = 0.1648 0.2746-0.4944 ( 12430 PWs)   bands (ev):

   -69.8163 -69.8160 -69.7907 -69.7904 -69.7812 -69.7809 -69.7719 -69.7716
   -69.7613 -69.7609 -69.7587 -69.7583 -69.7516 -69.7512 -69.7325 -69.7321
   -35.9949 -35.9949 -35.9858 -35.9858 -35.9751 -35.9749 -35.9748 -35.9747
   -35.9604 -35.9603 -35.9479 -35.9479 -35.9176 -35.9176 -35.8945 -35.8943
   -35.8503 -35.8501 -35.8380 -35.8378 -35.8317 -35.8316 -35.8179 -35.8179
   -35.7901 -35.7901 -35.7761 -35.7758 -35.7579 -35.7577 -35.7359 -35.7357
   -35.7279 -35.7279 -35.7002 -35.7001 -35.6932 -35.6929 -35.6863 -35.6862
   -35.6841 -35.6839 -35.6661 -35.6661 -35.6527 -35.6526 -35.6514 -35.6514
    11.4382  11.4382  12.9342  12.9343  13.4713  13.4714  14.0031  14.0031
    14.0429  14.0430  14.1036  14.1037  14.1039  14.1040  14.1532  14.1533
    14.2794  14.2795  14.9001  14.9002  14.9518  14.9519  15.0096  15.0097
    15.0310  15.0311  15.1573  15.1573  15.2682  15.2682  15.6022  15.6022
    15.6111  15.6113  15.6387  15.6387  15.6439  15.6440  15.6647  15.6648
    15.7119  15.7120  15.7418  15.7419  15.7419  15.7420  16.6509  16.6510
    16.8350  16.8350  16.9346  16.9346  16.9661  16.9662  16.9882  16.9882
    16.9926  16.9926  17.0413  17.0413  17.2426  17.2428  17.2622  17.2625
    17.2779  17.2781  17.3368  17.3370  17.3701  17.3702  17.4737  17.4739
    17.5307  17.5310  17.5997  17.5998  17.9667  17.9668  18.0136  18.0136
    18.3126  18.3127  18.3430  18.3430  18.7208  18.7209  20.5788  20.5789
    20.9019  20.9019

          k = 0.1648 0.3845 0.3845 ( 12417 PWs)   bands (ev):

   -69.8182 -69.8034 -69.8034 -69.7924 -69.7817 -69.7764 -69.7764 -69.7721
   -69.7606 -69.7598 -69.7597 -69.7580 -69.7493 -69.7418 -69.7418 -69.7304
   -36.0040 -35.9875 -35.9875 -35.9772 -35.9771 -35.9727 -35.9691 -35.9691
   -35.9664 -35.9654 -35.9580 -35.9375 -35.9190 -35.9014 -35.8685 -35.8675
   -35.8675 -35.8544 -35.8544 -35.8436 -35.8431 -35.8415 -35.8414 -35.8172
   -35.7888 -35.7722 -35.7718 -35.7718 -35.7659 -35.7659 -35.7579 -35.7304
   -35.7276 -35.7096 -35.7096 -35.7035 -35.7026 -35.6896 -35.6852 -35.6852
   -35.6785 -35.6725 -35.6725 -35.6722 -35.6523 -35.6523 -35.6452 -35.6442
    11.3283  12.2217  12.2217  12.8472  13.5409  13.8094  13.8094  13.9506
    14.0183  14.0976  14.1214  14.1215  14.1771  14.1771  14.3376  14.3718
    14.4732  14.5126  14.5126  14.7582  14.9199  14.9447  15.0055  15.0055
    15.0160  15.0160  15.0740  15.1121  15.2104  15.2655  15.4433  15.4489
    15.4489  15.5247  15.5812  15.5925  15.5925  15.6257  15.6383  15.6383
    15.6531  15.6611  15.6611  15.7362  15.8176  16.1222  16.1223  16.6363
    16.8749  16.8749  16.9319  16.9383  16.9828  16.9851  17.0839  17.0900
    17.1373  17.1373  17.1597  17.1667  17.1668  17.1773  17.1773  17.2334
    17.2407  17.2991  17.2991  17.3162  17.3487  17.3870  17.3870  17.4290
    17.4290  17.4678  17.5468  17.6030  17.8197  17.8197  17.8746  17.9519
    18.3304  18.3305  18.3871  18.4412  18.7745  19.5567  19.5567  20.6308
    20.9849  21.7521

          k = 0.1648 0.3845-0.4944 ( 12422 PWs)   bands (ev):

   -69.8115 -69.8112 -69.7985 -69.7982 -69.7793 -69.7790 -69.7745 -69.7742
   -69.7603 -69.7599 -69.7589 -69.7586 -69.7454 -69.7450 -69.7357 -69.7354
   -35.9924 -35.9924 -35.9789 -35.9788 -35.9733 -35.9732 -35.9723 -35.9721
   -35.9676 -35.9674 -35.9531 -35.9531 -35.8873 -35.8873 -35.8864 -35.8861
   -35.8579 -35.8578 -35.8570 -35.8567 -35.8462 -35.8461 -35.8215 -35.8215
   -35.7945 -35.7945 -35.7692 -35.7690 -35.7613 -35.7612 -35.7491 -35.7491
   -35.7189 -35.7186 -35.6932 -35.6931 -35.6925 -35.6922 -35.6870 -35.6868
   -35.6861 -35.6859 -35.6719 -35.6718 -35.6469 -35.6469 -35.6463 -35.6463
    11.7468  11.7469  12.5336  12.5337  13.7151  13.7152  14.0466  14.0466
    14.0850  14.0850  14.1130  14.1131  14.3004  14.3004  14.3037  14.3038
    14.3817  14.3818  14.7805  14.7806  14.8821  14.8822  14.9245  14.9246
    14.9509  14.9510  15.0599  15.0600  15.3134  15.3134  15.4049  15.4051
    15.4938  15.4939  15.5017  15.5017  15.5052  15.5053  15.5446  15.5447
    15.6917  15.6918  15.6941  15.6942  15.8692  15.8693  16.3561  16.3562
    16.9380  16.9381  17.0027  17.0028  17.0382  17.0383  17.0559  17.0561
    17.1448  17.1448  17.1720  17.1720  17.1826  17.1828  17.2180  17.2182
    17.2589  17.2590  17.2618  17.2619  17.3653  17.3654  17.3776  17.3778
    17.4304  17.4306  17.6521  17.6522  17.6825  17.6826  17.8376  17.8377
    18.3835  18.3835  18.4105  18.4106  19.1597  19.1598  20.0862  20.0863
    21.3975  21.3975

          k = 0.1648-0.4944-0.4944 ( 12416 PWs)   bands (ev):

   -69.8057 -69.8054 -69.8054 -69.8050 -69.7772 -69.7769 -69.7769 -69.7765
   -69.7596 -69.7593 -69.7593 -69.7589 -69.7402 -69.7399 -69.7399 -69.7395
   -35.9847 -35.9847 -35.9847 -35.9846 -35.9737 -35.9735 -35.9735 -35.9733
   -35.9599 -35.9598 -35.9598 -35.9597 -35.8735 -35.8733 -35.8733 -35.8730
   -35.8563 -35.8562 -35.8562 -35.8562 -35.8547 -35.8547 -35.8547 -35.8547
   -35.7713 -35.7713 -35.7713 -35.7713 -35.7648 -35.7648 -35.7648 -35.7648
   -35.7045 -35.7043 -35.7043 -35.7040 -35.6884 -35.6883 -35.6883 -35.6882
   -35.6792 -35.6790 -35.6790 -35.6789 -35.6447 -35.6447 -35.6447 -35.6447
    12.1234  12.1235  12.1235  12.1236  13.9580  13.9581  13.9581  13.9581
    14.0802  14.0802  14.0802  14.0802  14.4339  14.4340  14.4340  14.4340
    14.5342  14.5343  14.5343  14.5344  14.8313  14.8313  14.8313  14.8314
    14.9921  14.9921  14.9921  14.9921  15.3804  15.3806  15.3806  15.3808
    15.3913  15.3913  15.3913  15.3913  15.4887  15.4888  15.4888  15.4890
    15.6724  15.6725  15.6725  15.6726  16.0892  16.0893  16.0893  16.0893
    17.0056  17.0056  17.0056  17.0057  17.1093  17.1094  17.1094  17.1096
    17.1995  17.1997  17.1997  17.1999  17.2025  17.2027  17.2027  17.2029
    17.2215  17.2216  17.2216  17.2217  17.3968  17.3969  17.3969  17.3971
    17.4227  17.4227  17.4227  17.4227  17.7195  17.7196  17.7196  17.7196
    18.4224  18.4224  18.4224  18.4224  19.6159  19.6160  19.6160  19.6161
    21.9104  21.9104

          k = 0.2746 0.2746 0.2746 ( 12437 PWs)   bands (ev):

   -69.8257 -69.7956 -69.7956 -69.7956 -69.7798 -69.7798 -69.7797 -69.7706
   -69.7602 -69.7577 -69.7577 -69.7576 -69.7485 -69.7485 -69.7484 -69.7249
   -36.0089 -36.0089 -36.0089 -35.9728 -35.9728 -35.9728 -35.9625 -35.9625
   -35.9625 -35.9609 -35.9385 -35.9385 -35.9117 -35.9117 -35.8742 -35.8742
   -35.8742 -35.8591 -35.8591 -35.8591 -35.8397 -35.8308 -35.8308 -35.8308
   -35.7553 -35.7553 -35.7553 -35.7535 -35.7535 -35.7535 -35.7532 -35.7477
   -35.7477 -35.7260 -35.7260 -35.7260 -35.6981 -35.6868 -35.6868 -35.6868
   -35.6693 -35.6693 -35.6693 -35.6566 -35.6566 -35.6566 -35.6523 -35.6523
    10.8804  12.6750  12.6750  12.6750  13.4706  13.4706  13.4706  13.8530
    13.8530  13.9543  13.9543  13.9543  14.2923  14.2923  14.2923  14.5164
    14.5164  14.5164  14.5308  14.8737  14.8810  14.8810  15.0226  15.0226
    15.0226  15.1923  15.1923  15.1923  15.2001  15.2001  15.4129  15.4129
    15.4129  15.6210  15.6210  15.6211  15.6526  15.6526  15.6526  15.7214
    15.7214  15.9725  15.9725  15.9725  16.0277  16.0277  16.0278  16.7323
    16.7447  16.7447  16.7447  16.9337  17.0690  17.0690  17.0984  17.0984
    17.0985  17.1364  17.1364  17.1364  17.1756  17.1756  17.1756  17.2840
    17.2841  17.2841  17.3037  17.3037  17.3985  17.3985  17.3985  17.4210
    17.4210  17.7381  17.7381  17.7381  18.0665  18.0665  18.0665  18.1361
    18.1361  18.1361  18.1532  18.1532  18.9849  18.9849  18.9849  21.1974
    21.3400  21.3400

          k = 0.2746 0.2746 0.3845 ( 12419 PWs)   bands (ev):

   -69.8201 -69.8047 -69.7926 -69.7925 -69.7844 -69.7844 -69.7779 -69.7732
   -69.7591 -69.7579 -69.7546 -69.7545 -69.7500 -69.7500 -69.7408 -69.7290
   -35.9993 -35.9993 -35.9911 -35.9733 -35.9733 -35.9699 -35.9641 -35.9637
   -35.9509 -35.9498 -35.9498 -35.9417 -35.9241 -35.8985 -35.8985 -35.8926
   -35.8835 -35.8609 -35.8609 -35.8504 -35.8447 -35.8447 -35.8439 -35.8181
   -35.7814 -35.7745 -35.7560 -35.7532 -35.7441 -35.7440 -35.7342 -35.7342
   -35.7294 -35.7294 -35.7193 -35.7027 -35.7003 -35.7003 -35.6912 -35.6856
   -35.6728 -35.6654 -35.6640 -35.6640 -35.6598 -35.6572 -35.6572 -35.6510
    11.2234  12.1520  12.9015  12.9015  13.3330  13.3330  13.7599  13.9759
    14.0025  14.0830  14.0830  14.1652  14.2707  14.3013  14.3013  14.3152
    14.4993  14.5179  14.6665  14.6665  14.8992  14.9791  15.0297  15.0721
    15.1012  15.1015  15.1016  15.2240  15.2240  15.3089  15.3089  15.3298
    15.4298  15.4298  15.5174  15.5349  15.5349  15.5680  15.5746  15.6315
    15.6684  15.6885  15.7376  15.7376  15.7494  15.7494  16.1165  16.6243
    16.8165  16.8736  16.8736  16.9383  16.9940  17.0970  17.0970  17.1113
    17.1113  17.1438  17.1505  17.1505  17.1980  17.2101  17.2695  17.2902
    17.3002  17.3018  17.3018  17.3033  17.3708  17.3833  17.3882  17.3882
    17.4373  17.5175  17.8745  17.9031  18.0120  18.0120  18.0878  18.0878
    18.1633  18.1633  18.1684  18.2199  18.6401  18.6401  19.5039  20.6074
    21.6758  21.6758

          k = 0.2746 0.2746-0.4944 ( 12410 PWs)   bands (ev):

   -69.8132 -69.8129 -69.7889 -69.7889 -69.7886 -69.7885 -69.7758 -69.7755
   -69.7586 -69.7582 -69.7522 -69.7522 -69.7518 -69.7518 -69.7345 -69.7341
   -35.9867 -35.9866 -35.9866 -35.9866 -35.9686 -35.9683 -35.9671 -35.9669
   -35.9596 -35.9594 -35.9243 -35.9243 -35.9243 -35.9243 -35.9056 -35.9053
   -35.8718 -35.8716 -35.8555 -35.8555 -35.8553 -35.8553 -35.8125 -35.8125
   -35.7962 -35.7962 -35.7559 -35.7556 -35.7354 -35.7353 -35.7352 -35.7352
   -35.7163 -35.7163 -35.7163 -35.7163 -35.6941 -35.6938 -35.6870 -35.6868
   -35.6825 -35.6823 -35.6597 -35.6597 -35.6596 -35.6596 -35.6538 -35.6538
    11.6558  11.6559  13.1365  13.1365  13.1366  13.1366  14.1132  14.1133
    14.1322  14.1322  14.1567  14.1567  14.2065  14.2065  14.2066  14.2066
    14.3846  14.3846  14.9347  14.9349  14.9451  14.9451  14.9452  14.9452
    14.9903  14.9904  15.2043  15.2043  15.2044  15.2044  15.3738  15.3739
    15.4572  15.4573  15.5534  15.5534  15.5535  15.5535  15.5585  15.5585
    15.5586  15.5586  15.5792  15.5792  15.6006  15.6008  16.3420  16.3421
    16.9052  16.9053  17.0038  17.0038  17.0039  17.0039  17.1215  17.1215
    17.1215  17.1216  17.1582  17.1582  17.2322  17.2325  17.2361  17.2363
    17.2957  17.2958  17.3099  17.3101  17.3481  17.3481  17.3483  17.3483
    17.6332  17.6335  17.6659  17.6660  18.1357  18.1357  18.1357  18.1358
    18.2227  18.2228  18.3189  18.3189  18.3190  18.3190  20.0463  20.0464
    21.9741  21.9741

          k = 0.2746 0.3845 0.3845 ( 12418 PWs)   bands (ev):

   -69.8149 -69.8009 -69.8009 -69.7905 -69.7897 -69.7822 -69.7822 -69.7764
   -69.7574 -69.7552 -69.7551 -69.7512 -69.7501 -69.7432 -69.7431 -69.7326
   -35.9924 -35.9833 -35.9832 -35.9726 -35.9713 -35.9713 -35.9607 -35.9551
   -35.9527 -35.9527 -35.9452 -35.9249 -35.9213 -35.9152 -35.8994 -35.8848
   -35.8848 -35.8713 -35.8699 -35.8699 -35.8651 -35.8651 -35.8627 -35.8093
   -35.7961 -35.7537 -35.7537 -35.7435 -35.7434 -35.7424 -35.7309 -35.7282
   -35.7188 -35.7164 -35.7091 -35.7067 -35.7067 -35.6940 -35.6940 -35.6892
   -35.6722 -35.6718 -35.6718 -35.6668 -35.6579 -35.6579 -35.6558 -35.6535
    11.5534  12.4277  12.4277  13.0626  13.1508  13.6277  13.6277  14.0802
    14.1601  14.1790  14.2817  14.2818  14.2972  14.2972  14.3219  14.4903
    14.5148  14.5148  14.5866  14.6232  14.9481  14.9771  15.0431  15.0470
    15.0470  15.0686  15.0711  15.0711  15.1670  15.2111  15.2493  15.3633
    15.3633  15.3862  15.3862  15.4176  15.4346  15.4608  15.4609  15.5042
    15.5042  15.5335  15.5612  15.5802  15.5942  15.8463  15.8463  16.3158
    16.9252  16.9252  16.9575  17.0267  17.1000  17.1337  17.1420  17.1420
    17.1570  17.1712  17.2343  17.2343  17.2349  17.2428  17.2447  17.2893
    17.2893  17.2926  17.2984  17.2984  17.3482  17.3482  17.3622  17.4056
    17.5705  17.6957  17.6958  17.8010  17.9155  17.9155  17.9776  18.1694
    18.1694  18.1881  18.2091  18.3006  18.3532  19.0945  19.0945  20.0742
    22.0830  22.7060

          k = 0.2746 0.3845-0.4944 ( 12402 PWs)   bands (ev):

   -69.8086 -69.8083 -69.7963 -69.7959 -69.7864 -69.7860 -69.7796 -69.7792
   -69.7563 -69.7560 -69.7531 -69.7528 -69.7464 -69.7460 -69.7375 -69.7371
   -35.9820 -35.9820 -35.9760 -35.9759 -35.9645 -35.9644 -35.9639 -35.9636
   -35.9565 -35.9564 -35.9339 -35.9338 -35.9057 -35.9055 -35.8977 -35.8976
   -35.8855 -35.8854 -35.8769 -35.8767 -35.8733 -35.8732 -35.8395 -35.8395
   -35.7745 -35.7744 -35.7423 -35.7421 -35.7352 -35.7351 -35.7342 -35.7342
   -35.7157 -35.7154 -35.7052 -35.7051 -35.6902 -35.6901 -35.6899 -35.6896
   -35.6874 -35.6871 -35.6695 -35.6695 -35.6560 -35.6560 -35.6544 -35.6544
    11.9647  11.9647  12.7463  12.7464  13.4135  13.4136  13.9788  13.9788
    14.1890  14.1891  14.2459  14.2459  14.3434  14.3434  14.4285  14.4285
    14.5151  14.5151  14.7840  14.7841  14.8426  14.8427  14.9469  14.9470
    14.9924  14.9925  15.1277  15.1278  15.2122  15.2123  15.2630  15.2630
    15.2970  15.2970  15.3674  15.3675  15.4112  15.4113  15.4511  15.4512
    15.4999  15.5000  15.5349  15.5350  15.6127  15.6127  16.0448  16.0449
    16.9864  16.9864  17.0308  17.0309  17.0543  17.0544  17.1873  17.1875
    17.1986  17.1988  17.2528  17.2530  17.2532  17.2533  17.2607  17.2607
    17.2953  17.2954  17.3300  17.3302  17.3461  17.3462  17.4219  17.4219
    17.5773  17.5775  17.7096  17.7097  17.9318  17.9318  17.9903  17.9904
    18.1997  18.1998  18.2011  18.2011  18.7153  18.7154  19.5740  19.5741
    22.4746  22.4746

          k = 0.2746-0.4944-0.4944 ( 12412 PWs)   bands (ev):

   -69.8031 -69.8028 -69.8028 -69.8024 -69.7834 -69.7831 -69.7831 -69.7827
   -69.7546 -69.7543 -69.7543 -69.7539 -69.7416 -69.7413 -69.7413 -69.7409
   -35.9736 -35.9736 -35.9736 -35.9736 -35.9667 -35.9666 -35.9666 -35.9664
   -35.9452 -35.9451 -35.9451 -35.9450 -35.8947 -35.8945 -35.8945 -35.8943
   -35.8856 -35.8855 -35.8855 -35.8855 -35.8687 -35.8687 -35.8687 -35.8687
   -35.7537 -35.7536 -35.7536 -35.7536 -35.7367 -35.7366 -35.7366 -35.7366
   -35.6992 -35.6990 -35.6990 -35.6987 -35.6962 -35.6961 -35.6961 -35.6960
   -35.6807 -35.6806 -35.6806 -35.6805 -35.6546 -35.6546 -35.6546 -35.6546
    12.3403  12.3404  12.3404  12.3405  13.7207  13.7208  13.7208  13.7209
    14.2319  14.2319  14.2319  14.2319  14.5673  14.5673  14.5673  14.5674
    14.6131  14.6132  14.6132  14.6132  14.7782  14.7782  14.7782  14.7783
    15.0561  15.0561  15.0561  15.0561  15.2258  15.2260  15.2260  15.2261
    15.3119  15.3120  15.3120  15.3121  15.3422  15.3422  15.3423  15.3423
    15.4963  15.4964  15.4964  15.4966  15.7895  15.7896  15.7896  15.7897
    17.0409  17.0410  17.0410  17.0411  17.1213  17.1214  17.1214  17.1215
    17.1923  17.1925  17.1925  17.1927  17.3116  17.3117  17.3117  17.3119
    17.3422  17.3423  17.3423  17.3423  17.4201  17.4202  17.4202  17.4204
    17.6969  17.6970  17.6970  17.6970  17.7829  17.7830  17.7830  17.7831
    18.2142  18.2142  18.2143  18.2143  19.1345  19.1346  19.1346  19.1347
    22.9891  22.9891

          k = 0.3845 0.3845 0.3845 ( 12430 PWs)   bands (ev):

   -69.8102 -69.7974 -69.7974 -69.7973 -69.7878 -69.7878 -69.7878 -69.7806
   -69.7549 -69.7512 -69.7512 -69.7511 -69.7452 -69.7452 -69.7451 -69.7357
   -35.9755 -35.9755 -35.9755 -35.9665 -35.9665 -35.9665 -35.9523 -35.9398
   -35.9398 -35.9330 -35.9330 -35.9330 -35.9282 -35.9282 -35.8972 -35.8972
   -35.8972 -35.8897 -35.8897 -35.8897 -35.8850 -35.8850 -35.8850 -35.8348
   -35.7747 -35.7359 -35.7359 -35.7359 -35.7248 -35.7248 -35.7248 -35.7153
   -35.7153 -35.7066 -35.7066 -35.7066 -35.7056 -35.7056 -35.7056 -35.6917
   -35.6713 -35.6712 -35.6712 -35.6670 -35.6670 -35.6643 -35.6643 -35.6642
    11.8755  12.7132  12.7132  12.7132  13.3668  13.3668  13.3668  14.0917
    14.2498  14.2498  14.4012  14.4012  14.4012  14.4884  14.4884  14.4884
    14.5245  14.5245  14.5245  14.7236  14.9930  14.9930  15.0101  15.0101
    15.0574  15.0574  15.0574  15.1108  15.1108  15.1108  15.2020  15.2020
    15.2020  15.3034  15.3034  15.3034  15.3330  15.3330  15.3330  15.3655
    15.3655  15.3655  15.4679  15.4679  15.5807  15.5807  15.5807  16.0061
    17.0006  17.0006  17.0006  17.0962  17.0962  17.1372  17.1372  17.1372
    17.2392  17.2392  17.2439  17.2439  17.2439  17.2674  17.2674  17.2674
    17.3245  17.3245  17.3246  17.4294  17.4475  17.4475  17.4475  17.5417
    17.5417  17.9428  17.9428  17.9574  17.9574  17.9574  18.0100  18.0100
    18.0100  18.0289  18.0289  18.0290  18.7028  18.7028  18.7028  19.5843
    23.3130  23.3131

          k = 0.3845 0.3845-0.4944 ( 12422 PWs)   bands (ev):

   -69.8045 -69.8041 -69.7931 -69.7931 -69.7928 -69.7927 -69.7845 -69.7842
   -69.7529 -69.7526 -69.7480 -69.7480 -69.7477 -69.7476 -69.7401 -69.7397
   -35.9680 -35.9680 -35.9679 -35.9679 -35.9552 -35.9551 -35.9539 -35.9536
   -35.9425 -35.9424 -35.9203 -35.9200 -35.9115 -35.9115 -35.9114 -35.9114
   -35.9078 -35.9076 -35.8977 -35.8977 -35.8976 -35.8976 -35.8623 -35.8623
   -35.7545 -35.7544 -35.7206 -35.7204 -35.7196 -35.7196 -35.7195 -35.7195
   -35.7120 -35.7120 -35.7119 -35.7118 -35.6972 -35.6971 -35.6913 -35.6910
   -35.6852 -35.6849 -35.6692 -35.6692 -35.6692 -35.6692 -35.6644 -35.6643
    12.2731  12.2732  13.0436  13.0436  13.0437  13.0437  13.7304  13.7305
    14.3613  14.3613  14.4209  14.4209  14.4703  14.4703  14.4704  14.4704
    14.6522  14.6523  14.7793  14.7793  14.7794  14.7794  14.9951  14.9953
    15.0378  15.0378  15.0499  15.0501  15.1211  15.1211  15.1984  15.1984
    15.1984  15.1984  15.3054  15.3055  15.3056  15.3056  15.3558  15.3558
    15.3559  15.3559  15.3851  15.3852  15.3895  15.3897  15.7435  15.7435
    17.0499  17.0500  17.0812  17.0812  17.0813  17.0813  17.1781  17.1783
    17.1859  17.1861  17.2427  17.2428  17.2442  17.2442  17.2444  17.2444
    17.4212  17.4212  17.4213  17.4213  17.4575  17.4577  17.6865  17.6868
    17.7084  17.7084  17.7276  17.7278  17.9718  17.9719  17.9719  17.9719
    18.0190  18.0191  18.3465  18.3465  18.3466  18.3466  19.1319  19.1320
    23.6342  23.6342

          k = 0.3845-0.4944-0.4944 ( 12452 PWs)   bands (ev):

   -69.7993 -69.7990 -69.7990 -69.7987 -69.7893 -69.7890 -69.7890 -69.7886
   -69.7504 -69.7500 -69.7500 -69.7497 -69.7438 -69.7435 -69.7435 -69.7431
   -35.9577 -35.9576 -35.9576 -35.9576 -35.9543 -35.9541 -35.9541 -35.9540
   -35.9271 -35.9270 -35.9270 -35.9269 -35.9169 -35.9167 -35.9167 -35.9165
   -35.9128 -35.9128 -35.9128 -35.9128 -35.8870 -35.8869 -35.8869 -35.8869
   -35.7362 -35.7361 -35.7361 -35.7361 -35.7109 -35.7109 -35.7109 -35.7109
   -35.7073 -35.7072 -35.7072 -35.7071 -35.6934 -35.6932 -35.6932 -35.6929
   -35.6839 -35.6838 -35.6838 -35.6836 -35.6693 -35.6693 -35.6693 -35.6692
    12.6462  12.6463  12.6463  12.6464  13.3918  13.3919  13.3919  13.3920
    14.4392  14.4392  14.4392  14.4393  14.6125  14.6126  14.6126  14.6127
    14.7223  14.7224  14.7224  14.7224  14.7630  14.7630  14.7630  14.7630
    15.1274  15.1274  15.1274  15.1274  15.1396  15.1396  15.1396  15.1397
    15.1602  15.1603  15.1603  15.1605  15.2768  15.2769  15.2769  15.2769
    15.3263  15.3264  15.3264  15.3265  15.4902  15.4902  15.4902  15.4903
    17.0956  17.0957  17.0957  17.0958  17.1411  17.1412  17.1412  17.1414
    17.1797  17.1799  17.1799  17.1801  17.2348  17.2349  17.2349  17.2350
    17.5122  17.5123  17.5123  17.5123  17.6010  17.6011  17.6011  17.6013
    17.7870  17.7871  17.7871  17.7873  17.9689  17.9689  17.9689  17.9689
    18.0167  18.0168  18.0168  18.0168  18.7276  18.7278  18.7278  18.7278
    24.1615  24.1615

          k =-0.4944-0.4944-0.4944 ( 12400 PWs)   bands (ev):

   -69.7949 -69.7946 -69.7946 -69.7946 -69.7942 -69.7942 -69.7942 -69.7939
   -69.7468 -69.7465 -69.7465 -69.7465 -69.7461 -69.7461 -69.7461 -69.7457
   -35.9369 -35.9369 -35.9369 -35.9368 -35.9368 -35.9368 -35.9368 -35.9368
   -35.9365 -35.9365 -35.9365 -35.9365 -35.9365 -35.9364 -35.9364 -35.9364
   -35.9072 -35.9071 -35.9071 -35.9071 -35.9070 -35.9070 -35.9070 -35.9069
   -35.7204 -35.7203 -35.7203 -35.7203 -35.7202 -35.7202 -35.7202 -35.7202
   -35.6885 -35.6885 -35.6885 -35.6885 -35.6885 -35.6885 -35.6884 -35.6884
   -35.6882 -35.6882 -35.6881 -35.6881 -35.6881 -35.6880 -35.6880 -35.6880
    13.0125  13.0126  13.0126  13.0126  13.0126  13.0126  13.0126  13.0128
    14.6660  14.6660  14.6660  14.6661  14.6661  14.6661  14.6661  14.6661
    14.6661  14.6661  14.6661  14.6662  14.6662  14.6662  14.6662  14.6662
    15.2027  15.2027  15.2027  15.2027  15.2027  15.2027  15.2027  15.2027
    15.2029  15.2029  15.2029  15.2029  15.2029  15.2030  15.2030  15.2030
    15.2292  15.2294  15.2294  15.2294  15.2295  15.2295  15.2295  15.2295
    17.1619  17.1619  17.1619  17.1619  17.1619  17.1621  17.1621  17.1621
    17.1621  17.1621  17.1621  17.1622  17.1622  17.1622  17.1623  17.1623
    17.7262  17.7262  17.7262  17.7262  17.7262  17.7262  17.7263  17.7263
    17.7265  17.7265  17.7265  17.7265  17.7265  17.7266  17.7266  17.7266
    18.3604  18.3605  18.3605  18.3605  18.3606  18.3606  18.3606  18.3607
    25.2953  25.2954

 ------ SPIN DOWN ----------


          k = 0.0549 0.0549 0.0549 ( 12437 PWs)   bands (ev):

   -67.2987 -67.2269 -67.2269 -67.2269 -67.2156 -67.2156 -67.2156 -67.2145
   -67.2144 -67.2144 -67.2142 -67.2142 -67.2142 -67.2098 -67.2092 -67.1536
   -33.5872 -33.5872 -33.5871 -33.5844 -33.5844 -33.5844 -33.4600 -33.4600
   -33.4549 -33.3962 -33.3936 -33.3936 -33.3936 -33.3768 -33.3768 -33.3655
   -33.3655 -33.3655 -33.3374 -33.3374 -33.3180 -33.3068 -33.3068 -33.3068
   -33.2978 -33.2978 -33.2978 -33.2883 -33.2883 -33.2883 -33.2856 -33.2856
   -33.2856 -33.2785 -33.2785 -33.2785 -33.2697 -33.2697 -33.2697 -33.1415
   -33.1394 -33.1394 -33.1394 -33.1370 -33.1370 -33.1370 -33.1359 -33.1359
     9.9109  13.7772  13.7772  13.7772  14.4182  14.4182  14.4182  14.5092
    14.5092  14.5092  14.5502  14.5502  14.5502  15.2135  15.2135  16.2000
    16.2712  16.2712  16.3616  16.3616  16.3728  16.4778  16.4778  16.4778
    16.4901  16.4901  16.4901  17.2165  17.2165  17.2165  17.5809  17.5809
    17.5809  17.7442  17.7442  17.7886  17.9955  17.9955  17.9955  18.1407
    18.1407  18.1407  18.1704  18.1704  18.1704  18.2729  18.2729  18.2730
    18.6084  18.6084  18.6084  18.6443  18.6443  18.6443  19.0201  19.0201
    19.0201  19.2547  19.2547  19.2547  19.7185  19.7185  19.7185  19.7421
    19.7421  19.7421  19.9114  19.9114  20.1738  20.1738  20.1738  20.2162
    20.2162  20.2171  20.2171  20.3031  20.3031  20.3031  20.3690  20.4472
    20.4472  20.6975  20.6975  20.6976  20.7943  20.7943  20.7943  20.8381
    20.8381  20.8381

          k = 0.0549 0.0549 0.1648 ( 12434 PWs)   bands (ev):

   -67.2962 -67.2399 -67.2266 -67.2265 -67.2170 -67.2170 -67.2152 -67.2142
   -67.2142 -67.2140 -67.2136 -67.2136 -67.2100 -67.2094 -67.2021 -67.1552
   -33.5806 -33.5806 -33.5795 -33.5774 -33.5737 -33.5737 -33.4619 -33.4545
   -33.4462 -33.4248 -33.4186 -33.4186 -33.4167 -33.4157 -33.3918 -33.3918
   -33.3640 -33.3423 -33.3352 -33.3343 -33.3256 -33.3068 -33.3068 -33.2988
   -33.2926 -33.2911 -33.2911 -33.2895 -33.2883 -33.2836 -33.2836 -33.2791
   -33.2791 -33.2752 -33.2752 -33.2510 -33.2486 -33.2486 -33.2429 -33.1532
   -33.1466 -33.1466 -33.1457 -33.1433 -33.1405 -33.1394 -33.1394 -33.1381
    10.0396  13.0793  13.8477  13.8477  14.4757  14.4757  14.4764  14.4764
    14.6035  14.6039  14.6039  14.6432  14.9364  15.2585  15.2780  16.1092
    16.1801  16.2280  16.2936  16.4544  16.4652  16.4768  16.5045  16.5253
    16.5253  16.5622  16.5622  16.8325  17.1184  17.1184  17.4021  17.4021
    17.7186  17.7374  17.7800  17.8004  17.8004  17.8467  17.8632  17.9648
    17.9648  18.2195  18.2783  18.2783  18.3376  18.3376  18.3573  18.3684
    18.3805  18.3805  18.3879  18.4279  18.4279  18.4850  18.7906  19.2303
    19.2303  19.4603  19.4603  19.4877  19.6428  19.6428  19.7081  19.7081
    19.7439  19.7645  19.8372  19.9406  20.1767  20.1787  20.1814  20.1945
    20.2128  20.2154  20.2346  20.2552  20.2552  20.3059  20.4411  20.5157
    20.5251  20.5252  20.6963  20.6963  20.7112  20.7112  20.8781  20.8781
    21.0022  21.0022

          k = 0.0549 0.0549 0.2746 ( 12451 PWs)   bands (ev):

   -67.2911 -67.2524 -67.2255 -67.2255 -67.2188 -67.2188 -67.2146 -67.2139
   -67.2139 -67.2134 -67.2133 -67.2133 -67.2107 -67.2100 -67.1908 -67.1591
   -33.5664 -33.5664 -33.5654 -33.5640 -33.5552 -33.5552 -33.4626 -33.4576
   -33.4533 -33.4517 -33.4517 -33.4443 -33.4350 -33.4342 -33.4268 -33.4268
   -33.3627 -33.3525 -33.3522 -33.3385 -33.3054 -33.3054 -33.3011 -33.2995
   -33.2975 -33.2944 -33.2944 -33.2822 -33.2822 -33.2794 -33.2794 -33.2625
   -33.2564 -33.2471 -33.2471 -33.2245 -33.2221 -33.2220 -33.2175 -33.1718
   -33.1586 -33.1586 -33.1576 -33.1566 -33.1496 -33.1468 -33.1468 -33.1456
    10.2941  12.3826  13.9740  13.9740  14.4386  14.4386  14.5704  14.5704
    14.6624  14.6624  14.7845  14.8213  15.2820  15.3354  15.4053  15.9346
    15.9520  16.2243  16.2476  16.4111  16.4203  16.4649  16.6305  16.6305
    16.6721  16.6916  16.6916  16.7023  17.0218  17.0218  17.2478  17.2478
    17.5329  17.5329  17.6797  17.6797  17.6995  17.7273  17.7697  17.7724
    17.8524  17.8524  17.9121  17.9121  17.9336  17.9848  17.9933  18.5371
    18.5733  18.6476  18.6622  18.6622  18.6786  18.6786  18.7507  19.5153
    19.5153  19.5195  19.5195  19.6124  19.6124  19.6910  19.7118  19.7362
    19.7362  19.7926  19.8093  19.9313  19.9970  20.0534  20.1120  20.1168
    20.1818  20.2036  20.2074  20.2110  20.3616  20.3616  20.3732  20.3823
    20.5642  20.5642  20.6105  20.6105  20.6920  20.6920  20.9962  20.9962
    21.0466  21.0466

          k = 0.0549 0.0549 0.3845 ( 12443 PWs)   bands (ev):

   -67.2840 -67.2642 -67.2241 -67.2241 -67.2206 -67.2205 -67.2137 -67.2135
   -67.2135 -67.2132 -67.2132 -67.2126 -67.2116 -67.2108 -67.1806 -67.1646
   -33.5452 -33.5450 -33.5450 -33.5443 -33.5295 -33.5295 -33.4900 -33.4883
   -33.4855 -33.4855 -33.4633 -33.4633 -33.4607 -33.4471 -33.4296 -33.4192
   -33.3879 -33.3777 -33.3396 -33.3301 -33.3125 -33.3075 -33.3031 -33.3031
   -33.2976 -33.2975 -33.2809 -33.2809 -33.2797 -33.2797 -33.2638 -33.2294
   -33.2259 -33.2200 -33.2199 -33.2007 -33.1980 -33.1971 -33.1971 -33.1944
   -33.1756 -33.1755 -33.1749 -33.1749 -33.1627 -33.1588 -33.1588 -33.1578
    10.6680  11.7299  14.1272  14.1272  14.3755  14.3755  14.6634  14.6634
    14.7079  14.7079  15.0376  15.0689  15.4211  15.4491  15.5927  15.6568
    15.6656  16.1293  16.2515  16.2608  16.3562  16.3633  16.7891  16.7891
    16.8730  16.8730  16.9269  16.9557  17.0123  17.0123  17.1687  17.1687
    17.2859  17.2859  17.3913  17.3913  17.4575  17.4575  17.5387  17.5387
    17.5947  17.6141  17.6890  17.7176  17.7196  17.7370  18.0515  18.3745
    18.8854  18.9120  18.9120  18.9463  18.9727  18.9727  19.0584  19.3529
[...]
   -33.1692 -33.1692 -33.1692 -33.1554 -33.1554 -33.1554 -33.1503 -33.1503
    11.0291  12.9606  12.9606  12.9606  14.2113  14.2113  14.2113  15.3086
    15.3086  15.3086  15.5858  15.5858  15.5858  15.5931  15.6666  15.6666
    15.9102  16.3406  16.3406  16.3984  16.3984  16.3984  16.5613  16.5613
    16.6007  16.6007  16.6007  16.7801  16.7801  16.7801  17.1679  17.1679
    17.1679  17.1775  17.1775  17.1775  17.1992  17.1992  17.1992  17.2295
    17.2295  17.2295  17.4425  17.4425  17.6591  17.6591  17.6591  18.5520
    18.6560  19.0761  19.0761  19.0761  19.1700  19.1700  19.1700  19.4248
    19.4248  19.4248  19.4871  19.4871  19.4871  19.7276  19.7276  19.7276
    19.8057  19.8057  20.0065  20.0065  20.0802  20.0802  20.1062  20.1062
    20.1062  20.1222  20.1222  20.1222  20.1294  20.1294  20.2789  20.2789
    20.2790  20.3306  20.3306  20.3306  20.7506  20.7506  20.7506  22.6579
    22.7743  22.7743

          k = 0.2746 0.2746 0.3845 ( 12419 PWs)   bands (ev):

   -67.2716 -67.2551 -67.2419 -67.2419 -67.2331 -67.2331 -67.2259 -67.2208
   -67.2055 -67.2042 -67.2006 -67.2006 -67.1957 -67.1957 -67.1858 -67.1729
   -33.5342 -33.5342 -33.5252 -33.5053 -33.5053 -33.5022 -33.4956 -33.4944
   -33.4800 -33.4800 -33.4795 -33.4706 -33.4496 -33.4232 -33.4232 -33.4161
   -33.4049 -33.3801 -33.3801 -33.3688 -33.3629 -33.3622 -33.3622 -33.3326
   -33.2936 -33.2848 -33.2645 -33.2620 -33.2512 -33.2512 -33.2405 -33.2405
   -33.2352 -33.2352 -33.2247 -33.2057 -33.2032 -33.2032 -33.1932 -33.1870
   -33.1733 -33.1646 -33.1634 -33.1634 -33.1587 -33.1560 -33.1560 -33.1489
    11.3812  12.3672  13.2302  13.2302  13.8906  13.8906  14.5048  15.2463
    15.4838  15.4838  15.5210  15.6610  15.6610  15.7704  15.7868  15.8064
    15.8897  16.1840  16.3918  16.4304  16.4304  16.4606  16.4799  16.5330
    16.6336  16.6976  16.6976  16.7063  16.8217  16.8217  16.9238  16.9972
    16.9972  17.0222  17.0222  17.0319  17.0935  17.0935  17.1213  17.1213
    17.2173  17.2483  17.3316  17.3866  17.4106  17.4106  17.7842  18.3020
    18.7689  19.1721  19.1721  19.2453  19.2886  19.3277  19.3277  19.3449
    19.3449  19.3482  19.5783  19.6584  19.6584  19.6809  19.7750  19.7751
    19.8023  19.8445  19.8818  19.9039  19.9904  20.0271  20.0899  20.0899
    20.0935  20.1058  20.1385  20.1757  20.1757  20.1799  20.1971  20.2188
    20.2511  20.2511  20.3110  20.3110  20.4642  20.4642  21.1951  22.1575
    23.0634  23.0634

          k = 0.2746 0.2746-0.4944 ( 12410 PWs)   bands (ev):

   -67.2642 -67.2641 -67.2378 -67.2377 -67.2376 -67.2376 -67.2235 -67.2234
   -67.2048 -67.2047 -67.1979 -67.1979 -67.1978 -67.1978 -67.1787 -67.1786
   -33.5201 -33.5201 -33.5201 -33.5201 -33.5003 -33.5001 -33.4988 -33.4987
   -33.4894 -33.4894 -33.4518 -33.4518 -33.4517 -33.4517 -33.4292 -33.4290
   -33.3927 -33.3927 -33.3741 -33.3741 -33.3740 -33.3740 -33.3281 -33.3280
   -33.3086 -33.3085 -33.2646 -33.2646 -33.2416 -33.2416 -33.2415 -33.2415
   -33.2208 -33.2207 -33.2207 -33.2207 -33.1968 -33.1966 -33.1885 -33.1884
   -33.1835 -33.1834 -33.1587 -33.1587 -33.1586 -33.1586 -33.1521 -33.1521
    11.8328  11.8330  13.5515  13.5515  13.5516  13.5516  14.8619  14.8621
    15.6195  15.6195  15.6195  15.6195  15.7415  15.7416  15.8326  15.8327
    15.9821  15.9823  16.4595  16.4597  16.5121  16.5123  16.5939  16.5939
    16.5940  16.5940  16.6677  16.6678  16.8326  16.8327  16.8327  16.8328
    16.8685  16.8686  17.0701  17.0701  17.0702  17.0703  17.1858  17.1858
    17.1859  17.1859  17.2531  17.2532  17.3206  17.3208  17.9993  17.9993
    19.0018  19.0018  19.2463  19.2463  19.2463  19.2464  19.5188  19.5188
    19.5188  19.5189  19.5242  19.5243  19.5532  19.5533  19.7356  19.7357
    19.8932  19.8933  20.0163  20.0164  20.0211  20.0211  20.0211  20.0212
    20.0810  20.0810  20.1019  20.1020  20.2364  20.2365  20.2514  20.2515
    20.2515  20.2515  20.2666  20.2666  20.2666  20.2666  21.6704  21.6704
    23.2934  23.2935

          k = 0.2746 0.3845 0.3845 ( 12418 PWs)   bands (ev):

   -67.2661 -67.2510 -67.2510 -67.2397 -67.2388 -67.2306 -67.2306 -67.2243
   -67.2037 -67.2012 -67.2012 -67.1970 -67.1958 -67.1883 -67.1883 -67.1769
   -33.5265 -33.5165 -33.5165 -33.5044 -33.5028 -33.5028 -33.4918 -33.4844
   -33.4831 -33.4831 -33.4744 -33.4525 -33.4467 -33.4416 -33.4235 -33.4064
   -33.4064 -33.3917 -33.3916 -33.3916 -33.3850 -33.3850 -33.3821 -33.3245
   -33.3084 -33.2618 -33.2618 -33.2508 -33.2508 -33.2500 -33.2369 -33.2338
   -33.2234 -33.2208 -33.2133 -33.2102 -33.2102 -33.1962 -33.1962 -33.1909
   -33.1722 -33.1721 -33.1721 -33.1664 -33.1566 -33.1566 -33.1544 -33.1516
    11.7227  12.6692  12.6692  13.4614  13.5073  14.1840  14.1840  14.9132
    15.6851  15.6924  15.6924  15.8056  15.8723  15.8723  15.8800  15.9285
    15.9668  16.2606  16.2606  16.3842  16.4671  16.4726  16.4958  16.6224
    16.6224  16.6465  16.6465  16.6914  16.6996  16.7766  16.8565  16.8565
    16.8824  16.9064  16.9064  16.9630  17.0497  17.0498  17.0504  17.0655
    17.1534  17.1534  17.1960  17.2201  17.2960  17.4860  17.4860  17.9499
    19.0107  19.2957  19.3234  19.3234  19.3265  19.4800  19.4838  19.4838
    19.5083  19.5083  19.5348  19.5348  19.6785  19.7069  19.7425  19.7425
    19.7494  19.8164  19.8863  19.9390  19.9933  20.0137  20.0414  20.0724
    20.0884  20.0884  20.0919  20.0919  20.1183  20.1405  20.1509  20.1509
    20.1928  20.2177  20.2177  20.3066  20.3116  20.8551  20.8551  21.7096
    23.4310  23.9138

          k = 0.2746 0.3845-0.4944 ( 12402 PWs)   bands (ev):

   -67.2592 -67.2591 -67.2458 -67.2457 -67.2350 -67.2349 -67.2276 -67.2275
   -67.2023 -67.2022 -67.1989 -67.1988 -67.1916 -67.1915 -67.1820 -67.1819
   -33.5148 -33.5147 -33.5083 -33.5082 -33.4950 -33.4950 -33.4949 -33.4948
   -33.4872 -33.4871 -33.4623 -33.4622 -33.4295 -33.4293 -33.4224 -33.4223
   -33.4078 -33.4078 -33.3977 -33.3976 -33.3941 -33.3940 -33.3580 -33.3579
   -33.2846 -33.2845 -33.2496 -33.2496 -33.2417 -33.2417 -33.2404 -33.2403
   -33.2200 -33.2198 -33.2084 -33.2084 -33.1920 -33.1920 -33.1919 -33.1918
   -33.1889 -33.1887 -33.1695 -33.1695 -33.1546 -33.1545 -33.1528 -33.1527
    12.1582  12.1583  13.0429  13.0430  13.8375  13.8376  14.5383  14.5385
    15.8186  15.8187  15.8276  15.8276  15.8939  15.8941  15.9315  15.9316
    16.0903  16.0905  16.4578  16.4579  16.4728  16.4729  16.4981  16.4981
    16.5421  16.5422  16.6456  16.6457  16.7444  16.7445  16.7885  16.7886
    16.8725  16.8727  16.8948  16.8949  17.0117  17.0117  17.0897  17.0899
    17.1182  17.1182  17.2203  17.2205  17.2357  17.2357  17.6637  17.6637
    19.2680  19.2680  19.3032  19.3033  19.4322  19.4322  19.5295  19.5296
    19.6132  19.6133  19.6195  19.6196  19.6228  19.6228  19.6795  19.6796
    19.8301  19.8301  19.8421  19.8421  19.9704  19.9705  20.0415  20.0415
    20.0503  20.0504  20.0802  20.0803  20.0868  20.0869  20.1189  20.1189
    20.2238  20.2238  20.2733  20.2733  20.5393  20.5394  21.2766  21.2767
    23.7610  23.7610

          k = 0.2746-0.4944-0.4944 ( 12412 PWs)   bands (ev):

   -67.2531 -67.2530 -67.2530 -67.2529 -67.2316 -67.2315 -67.2315 -67.2314
   -67.2005 -67.2003 -67.2003 -67.2002 -67.1864 -67.1862 -67.1862 -67.1861
   -33.5053 -33.5052 -33.5052 -33.5052 -33.4980 -33.4979 -33.4979 -33.4978
   -33.4747 -33.4746 -33.4746 -33.4745 -33.4173 -33.4172 -33.4172 -33.4170
   -33.4078 -33.4078 -33.4078 -33.4078 -33.3904 -33.3903 -33.3903 -33.3903
   -33.2618 -33.2617 -33.2617 -33.2616 -33.2435 -33.2435 -33.2435 -33.2434
   -33.2018 -33.2016 -33.2016 -33.2015 -33.1985 -33.1984 -33.1984 -33.1983
   -33.1819 -33.1818 -33.1818 -33.1817 -33.1530 -33.1530 -33.1530 -33.1529
    12.5687  12.5689  12.5689  12.5690  14.1797  14.1799  14.1799  14.1800
    15.9293  15.9294  15.9294  15.9294  15.9570  15.9571  15.9571  15.9572
    16.2757  16.2758  16.2758  16.2759  16.4086  16.4087  16.4087  16.4087
    16.6470  16.6470  16.6470  16.6471  16.7156  16.7157  16.7157  16.7158
    16.8673  16.8673  16.8673  16.8674  16.9895  16.9896  16.9896  16.9896
    17.1444  17.1446  17.1446  17.1447  17.3955  17.3955  17.3955  17.3955
    19.4119  19.4120  19.4120  19.4121  19.5486  19.5486  19.5486  19.5487
    19.5829  19.5829  19.5829  19.5829  19.6637  19.6637  19.6637  19.6638
    19.7390  19.7391  19.7391  19.7392  19.9667  19.9668  19.9668  19.9668
    20.0458  20.0458  20.0459  20.0459  20.0852  20.0853  20.0853  20.0854
    20.2589  20.2589  20.2589  20.2589  20.8986  20.8986  20.8986  20.8987
    24.2241  24.2241

          k = 0.3845 0.3845 0.3845 ( 12430 PWs)   bands (ev):

   -67.2610 -67.2471 -67.2471 -67.2471 -67.2367 -67.2367 -67.2367 -67.2288
   -67.2009 -67.1969 -67.1969 -67.1969 -67.1904 -67.1904 -67.1904 -67.1803
   -33.5077 -33.5077 -33.5077 -33.4975 -33.4975 -33.4975 -33.4825 -33.4674
   -33.4674 -33.4613 -33.4613 -33.4613 -33.4553 -33.4553 -33.4203 -33.4203
   -33.4203 -33.4135 -33.4135 -33.4134 -33.4071 -33.4071 -33.4071 -33.3528
   -33.2848 -33.2422 -33.2422 -33.2422 -33.2303 -33.2303 -33.2303 -33.2201
   -33.2201 -33.2102 -33.2102 -33.2101 -33.2089 -33.2089 -33.2089 -33.1936
   -33.1715 -33.1715 -33.1715 -33.1666 -33.1666 -33.1637 -33.1636 -33.1636
    12.0562  12.9723  12.9723  12.9723  13.7626  13.7626  13.7626  14.5309
    15.9000  15.9000  15.9000  16.0221  16.0221  16.0488  16.0488  16.0488
    16.1415  16.2594  16.2594  16.2594  16.5330  16.5330  16.5359  16.5359
    16.6540  16.6540  16.6540  16.7011  16.7011  16.7011  16.7846  16.7846
    16.7846  16.8492  16.8492  16.8492  16.9687  16.9687  16.9687  16.9724
    16.9724  16.9724  17.1472  17.1472  17.1856  17.1856  17.1856  17.5886
    19.2734  19.4769  19.4769  19.4769  19.5116  19.5116  19.5116  19.5996
    19.5996  19.5996  19.7652  19.7652  19.7652  19.8104  19.8104  19.8299
    19.8299  19.8299  19.8679  19.8679  19.9358  19.9358  19.9763  19.9763
    20.0276  20.0276  20.0276  20.0659  20.0659  20.0659  20.1065  20.1066
    20.1066  20.1198  20.1198  20.1198  20.5037  20.5037  20.5037  21.2913
    24.4946  24.4947

          k = 0.3845 0.3845-0.4944 ( 12422 PWs)   bands (ev):

   -67.2547 -67.2546 -67.2424 -67.2423 -67.2422 -67.2422 -67.2330 -67.2329
   -67.1987 -67.1986 -67.1934 -67.1934 -67.1933 -67.1932 -67.1848 -67.1847
   -33.4992 -33.4992 -33.4991 -33.4991 -33.4847 -33.4847 -33.4837 -33.4835
   -33.4717 -33.4716 -33.4458 -33.4457 -33.4376 -33.4375 -33.4375 -33.4375
   -33.4324 -33.4324 -33.4210 -33.4210 -33.4209 -33.4209 -33.3832 -33.3831
   -33.2626 -33.2625 -33.2257 -33.2257 -33.2242 -33.2242 -33.2241 -33.2241
   -33.2161 -33.2161 -33.2160 -33.2160 -33.1996 -33.1995 -33.1935 -33.1934
   -33.1866 -33.1864 -33.1692 -33.1692 -33.1691 -33.1691 -33.1637 -33.1637
    12.4794  12.4796  13.3463  13.3463  13.3464  13.3465  14.1307  14.1308
    16.0480  16.0480  16.0481  16.0481  16.1138  16.1139  16.1181  16.1182
    16.1353  16.1355  16.4204  16.4205  16.4206  16.4206  16.5529  16.5530
    16.5963  16.5963  16.6173  16.6175  16.6627  16.6628  16.8160  16.8160
    16.8161  16.8161  16.8956  16.8956  16.8957  16.8958  16.9405  16.9405
    16.9405  16.9405  17.0326  17.0327  17.0620  17.0622  17.3087  17.3087
    19.5230  19.5230  19.5230  19.5230  19.5533  19.5533  19.6866  19.6868
    19.7065  19.7066  19.7091  19.7091  19.7092  19.7092  19.7129  19.7130
    19.8684  19.8685  19.9290  19.9290  19.9682  19.9683  20.0060  20.0061
    20.0062  20.0062  20.0063  20.0063  20.0522  20.0523  20.0861  20.0861
    20.0861  20.0861  20.1831  20.1831  20.1832  20.1832  20.8919  20.8920
    24.7796  24.7797

          k = 0.3845-0.4944-0.4944 ( 12452 PWs)   bands (ev):

   -67.2490 -67.2489 -67.2489 -67.2488 -67.2381 -67.2380 -67.2380 -67.2379
   -67.1958 -67.1957 -67.1957 -67.1956 -67.1887 -67.1886 -67.1886 -67.1885
   -33.4876 -33.4876 -33.4876 -33.4875 -33.4840 -33.4839 -33.4839 -33.4838
   -33.4547 -33.4546 -33.4546 -33.4545 -33.4422 -33.4420 -33.4420 -33.4419
   -33.4380 -33.4379 -33.4379 -33.4379 -33.4104 -33.4104 -33.4104 -33.4103
   -33.2424 -33.2423 -33.2423 -33.2423 -33.2151 -33.2151 -33.2151 -33.2150
   -33.2106 -33.2106 -33.2106 -33.2105 -33.1955 -33.1954 -33.1954 -33.1953
   -33.1854 -33.1853 -33.1853 -33.1852 -33.1692 -33.1692 -33.1692 -33.1691
    12.8832  12.8834  12.8834  12.8835  13.7193  13.7194  13.7194  13.7196
    16.1377  16.1378  16.1378  16.1379  16.2520  16.2521  16.2521  16.2522
    16.3081  16.3082  16.3082  16.3083  16.3772  16.3773  16.3773  16.3774
    16.7022  16.7023  16.7023  16.7023  16.7308  16.7308  16.7308  16.7309
    16.7333  16.7334  16.7334  16.7335  16.9107  16.9108  16.9108  16.9108
    16.9659  16.9660  16.9660  16.9661  17.0315  17.0315  17.0315  17.0316
    19.6476  19.6477  19.6477  19.6478  19.6780  19.6780  19.6780  19.6781
    19.7617  19.7617  19.7617  19.7618  19.8115  19.8116  19.8116  19.8117
    19.8576  19.8576  19.8576  19.8576  19.9283  19.9283  19.9283  19.9284
    19.9608  19.9608  19.9608  19.9608  19.9904  19.9905  19.9905  19.9906
    20.0329  20.0330  20.0330  20.0330  20.5284  20.5285  20.5285  20.5286
    25.2800  25.2801

          k =-0.4944-0.4944-0.4944 ( 12400 PWs)   bands (ev):

   -67.2441 -67.2440 -67.2440 -67.2440 -67.2439 -67.2439 -67.2439 -67.2437
   -67.1918 -67.1916 -67.1916 -67.1916 -67.1915 -67.1915 -67.1915 -67.1914
   -33.4645 -33.4645 -33.4645 -33.4644 -33.4644 -33.4644 -33.4644 -33.4644
   -33.4643 -33.4643 -33.4643 -33.4643 -33.4643 -33.4642 -33.4642 -33.4642
   -33.4327 -33.4326 -33.4326 -33.4326 -33.4325 -33.4325 -33.4325 -33.4325
   -33.2250 -33.2249 -33.2249 -33.2249 -33.2248 -33.2248 -33.2248 -33.2248
   -33.1903 -33.1903 -33.1903 -33.1902 -33.1902 -33.1901 -33.1901 -33.1901
   -33.1901 -33.1901 -33.1901 -33.1900 -33.1900 -33.1900 -33.1900 -33.1900
    13.2754  13.2756  13.2756  13.2756  13.2757  13.2757  13.2757  13.2759
    16.3434  16.3434  16.3435  16.3435  16.3435  16.3435  16.3435  16.3435
    16.3436  16.3436  16.3436  16.3436  16.3436  16.3436  16.3437  16.3437
    16.7119  16.7119  16.7119  16.7119  16.7119  16.7119  16.7119  16.7119
    16.8212  16.8212  16.8212  16.8213  16.8213  16.8213  16.8213  16.8213
    16.8214  16.8214  16.8215  16.8215  16.8215  16.8216  16.8216  16.8216
    19.8314  19.8314  19.8314  19.8315  19.8315  19.8315  19.8316  19.8316
    19.8316  19.8316  19.8316  19.8316  19.8316  19.8317  19.8317  19.8317
    19.8758  19.8758  19.8759  19.8759  19.8759  19.8760  19.8760  19.8760
    19.8760  19.8760  19.8760  19.8760  19.8760  19.8760  19.8761  19.8761
    20.1857  20.1857  20.1857  20.1857  20.1858  20.1858  20.1858  20.1858
    26.3344  26.3345

     the Fermi energy is    18.1724 ev

!    total energy              =   -5268.19156193 Ry
     Harris-Foulkes estimate   =   -5268.19156056 Ry
     estimated scf accuracy    <       0.00000065 Ry

     total all-electron energy =    -40728.936091 Ry

     The total energy is the sum of the following terms:

     one-electron contribution =   -1757.85784177 Ry
     hartree contribution      =    1040.54056974 Ry
     xc contribution           =    -443.91984187 Ry
     ewald contribution        =   -2782.43077388 Ry
     one-center paw contrib.   =   -1324.66197208 Ry
     smearing contrib. (-TS)   =       0.13829793 Ry

     total magnetization       =    33.63 Bohr mag/cell
     absolute magnetization    =    35.57 Bohr mag/cell

     convergence has been achieved in  18 iterations

     negative rho (up, down):  0.000E+00 2.718E-03

     Forces acting on atoms (cartesian axes, Ry/au):

     atom    1 type  1   force =     0.00000000    0.00000000    0.00000000
     atom    2 type  2   force =     0.00002110    0.00002110    0.00002110
     atom    3 type  1   force =     0.00000000    0.00000000    0.00000000
     atom    4 type  2   force =     0.00002110    0.00002110   -0.00002110
     atom    5 type  1   force =     0.00000000    0.00000000    0.00000000
     atom    6 type  2   force =     0.00002110   -0.00002110    0.00002110
     atom    7 type  1   force =     0.00000000    0.00000000   -0.00000000
     atom    8 type  2   force =     0.00002110   -0.00002110   -0.00002110
     atom    9 type  1   force =     0.00000000    0.00000000    0.00000000
     atom   10 type  2   force =    -0.00002110    0.00002110    0.00002110
     atom   11 type  1   force =     0.00000000    0.00000000    0.00000000
     atom   12 type  2   force =    -0.00002110    0.00002110   -0.00002110
     atom   13 type  1   force =     0.00000000    0.00000000    0.00000000
     atom   14 type  2   force =    -0.00002110   -0.00002110    0.00002110
     atom   15 type  1   force =     0.00000000    0.00000000    0.00000000
     atom   16 type  2   force =    -0.00002110   -0.00002110   -0.00002110

     Total force =     0.000103     Total SCF correction =     0.002212
     SCF correction compared to forces is large: reduce conv_thr to get better values


     Computing stress (Cartesian axis) and pressure


     negative rho (up, down):  0.000E+00 2.718E-03
          total   stress  (Ry/bohr**3)                   (kbar)     P=  -74.17
  -0.00050420   0.00000000   0.00000000        -74.17      0.00      0.00
   0.00000000  -0.00050420   0.00000000          0.00    -74.17      0.00
   0.00000000   0.00000000  -0.00050420          0.00      0.00    -74.17


     Writing output data file ncdrGfkByDcMCdTk.save/
 
     init_run     :      7.33s CPU      7.72s WALL (       1 calls)
     electrons    :    454.94s CPU    466.18s WALL (       1 calls)
     forces       :      2.39s CPU      2.54s WALL (       1 calls)
     stress       :      9.91s CPU      9.98s WALL (       1 calls)

     Called by init_run:
     wfcinit      :      6.70s CPU      6.97s WALL (       1 calls)
     potinit      :      0.29s CPU      0.31s WALL (       1 calls)
     hinit0       :      0.14s CPU      0.15s WALL (       1 calls)

     Called by electrons:
     c_bands      :    404.52s CPU    413.35s WALL (      19 calls)
     sum_band     :     44.41s CPU     46.31s WALL (      19 calls)
     v_of_rho     :      0.47s CPU      0.50s WALL (      19 calls)
     newd         :      0.98s CPU      1.29s WALL (      19 calls)
     PAW_pot      :      4.67s CPU      4.89s WALL (      19 calls)
     mix_rho      :      0.12s CPU      0.13s WALL (      19 calls)

     Called by c_bands:
     init_us_2    :      2.95s CPU      2.99s WALL (    2870 calls)
     cegterg      :    388.38s CPU    397.07s WALL (    1330 calls)

     Called by sum_band:
     sum_band:bec :      0.46s CPU      0.46s WALL (    1330 calls)
     addusdens    :      1.93s CPU      2.18s WALL (      19 calls)

     Called by *egterg:
     h_psi        :    174.49s CPU    180.20s WALL (    4443 calls)
     s_psi        :     12.79s CPU     12.85s WALL (    4443 calls)
     g_psi        :      0.62s CPU      0.63s WALL (    3043 calls)
     cdiaghg      :    158.64s CPU    159.09s WALL (    4303 calls)

     Called by h_psi:
     h_psi:pot    :    173.26s CPU    178.95s WALL (    4443 calls)
     h_psi:calbec :     14.44s CPU     16.04s WALL (    4443 calls)
     vloc_psi     :    145.68s CPU    149.71s WALL (    4443 calls)
     add_vuspsi   :     13.11s CPU     13.18s WALL (    4443 calls)

     General routines
     calbec       :     21.96s CPU     24.39s WALL (    6123 calls)
     fft          :      0.38s CPU      0.50s WALL (     517 calls)
     ffts         :      0.03s CPU      0.04s WALL (      76 calls)
     fftw         :    166.61s CPU    171.20s WALL ( 1131592 calls)
     interpolate  :      0.05s CPU      0.05s WALL (      38 calls)
 
     Parallel routines
     fft_scatt_xy :     14.01s CPU     14.41s WALL ( 1132185 calls)
     fft_scatt_yz :     95.14s CPU     97.89s WALL ( 1132185 calls)
 
     PWSCF        :  7m58.06s CPU     8m18.25s WALL

 
   This run was terminated on:   1:22:21  14Jun2020            

=------------------------------------------------------------------------------=
   JOB DONE.
=------------------------------------------------------------------------------=
