--------------------------------------------------------------------------
WARNING: No preset parameters were found for the device that Open MPI
detected:

  Local host:            bear-pg0206u37a
  Device name:           mlx5_0
  Device vendor ID:      0x02c9
  Device vendor part ID: 4123

Default device parameters will be used, which may result in lower
performance.  You can edit any of the files specified by the
btl_openib_device_param_files MCA parameter to set values for your
device.

NOTE: You can turn off this warning by setting the MCA parameter
      btl_openib_warn_no_device_params_found to 0.
--------------------------------------------------------------------------
--------------------------------------------------------------------------
WARNING: There was an error initializing an OpenFabrics device.

  Local host:   bear-pg0206u37a
  Local device: mlx5_0
--------------------------------------------------------------------------

     Program PWSCF v.6.3 starts on 14Jun2020 at  1: 5:41 

     This program is part of the open-source Quantum ESPRESSO suite
     for quantum simulation of materials; please cite
         "P. Giannozzi et al., J. Phys.:Condens. Matter 21 395502 (2009);
         "P. Giannozzi et al., J. Phys.:Condens. Matter 29 465901 (2017);
          URL http://www.quantum-espresso.org", 
     in publications or presentations arising from this work. More details at
     http://www.quantum-espresso.org/quote

     Parallel version (MPI & OpenMP), running on      20 processor cores
     Number of MPI processes:                20
     Threads/MPI process:                     1

     MPI processes distributed on     1 nodes
     R & G space division:  proc/nbgrp/npool/nimage =      20
     Reading input from wd/eos/eos_011.in
Warning: card &IONS ignored
Warning: card ION_DYNAMICS = 'BFGS', ignored
Warning: card / ignored
Warning: card &CELL ignored
Warning: card CELL_DYNAMICS = 'BFGS', ignored
Warning: card CELL_FACTOR = 2.0, ignored
Warning: card PRESS = 0.0, ignored
Warning: card / ignored

     Current dimensions of program PWSCF are:
     Max number of different atomic species (ntypx) = 10
     Max number of k-points (npk) =  40000
     Max angular momentum in pseudopotentials (lmaxx) =  3
               file Fe.pbe-spn-kjpaw_psl.1.0.0.UPF: wavefunction(s)  3P 3D renormalized
               file Fe.pbe-spn-kjpaw_psl.1.0.0.UPF: wavefunction(s)  3P 3D renormalized

     Subspace diagonalization in iterative solution of the eigenvalue problem:
     a serial algorithm will be used

     Found symmetry operation: I + (  0.0000  0.0000  0.5000)
     This is a supercell, fractional translations are disabled
 
     Parallelization info
     --------------------
     sticks:   dense  smooth     PW     G-vecs:    dense   smooth      PW
     Min         195     129     36                 9185     4936     738
     Max         196     131     37                 9188     4939     741
     Sum        3909    2593    725               183731    98745   14771
 


     bravais-lattice index     =            0
     lattice parameter (alat)  =      10.5935  a.u.
     unit-cell volume          =    1219.6657 (a.u.)^3
     number of atoms/cell      =           16
     number of atomic types    =            2
     number of electrons       =       256.00
     number of Kohn-Sham states=          154
     kinetic-energy cutoff     =      71.0000  Ry
     charge density cutoff     =     430.0000  Ry
     convergence threshold     =      1.0E-06
     mixing beta               =       0.1000
     number of iterations used =           10  plain     mixing
     Exchange-correlation      = SLA PW PBX PBC ( 1  4  3  4 0 0)

     celldm(1)=  10.593520  celldm(2)=   0.000000  celldm(3)=   0.000000
     celldm(4)=   0.000000  celldm(5)=   0.000000  celldm(6)=   0.000000

     crystal axes: (cart. coord. in units of alat)
               a(1) = (   1.008571   0.000000   0.000000 )  
               a(2) = (   0.000000   1.008571   0.000000 )  
               a(3) = (   0.000000   0.000000   1.008571 )  

     reciprocal axes: (cart. coord. in units 2 pi/alat)
               b(1) = (  0.991501  0.000000  0.000000 )  
               b(2) = (  0.000000  0.991501  0.000000 )  
               b(3) = (  0.000000  0.000000  0.991501 )  


     PseudoPot. # 1 for Fe read from file:
     /rds/homes/b/bxp912/pp/Fe.pbe-spn-kjpaw_psl.1.0.0.UPF
     MD5 check sum: 42f43b795421b414b0dc916aa790dbcb
     Pseudo is Projector augmented-wave + core cor, Zval = 16.0
     Generated using "atomic" code by A. Dal Corso v.6.3
     Shape of augmentation charge: PSQ
     Using radial grid of 1191 points,  6 beta functions with: 
                l(1) =   0
                l(2) =   0
                l(3) =   1
                l(4) =   1
                l(5) =   2
                l(6) =   2
     Q(r) pseudized with 0 coefficients 


     PseudoPot. # 2 for Fe read from file:
     /rds/homes/b/bxp912/pp/Fe.pbe-spn-kjpaw_psl.1.0.0.UPF
     MD5 check sum: 42f43b795421b414b0dc916aa790dbcb
     Pseudo is Projector augmented-wave + core cor, Zval = 16.0
     Generated using "atomic" code by A. Dal Corso v.6.3
     Shape of augmentation charge: PSQ
     Using radial grid of 1191 points,  6 beta functions with: 
                l(1) =   0
                l(2) =   0
                l(3) =   1
                l(4) =   1
                l(5) =   2
                l(6) =   2
     Q(r) pseudized with 0 coefficients 


     atomic species   valence    mass     pseudopotential
        Fe1           16.00    55.84500     Fe( 1.00)
        Fe2           16.00    55.84500     Fe( 1.00)

     Starting magnetic structure 
     atomic species   magnetization
        Fe1          0.100
        Fe2          0.100

     48 Sym. Ops., with inversion, found



   Cartesian axes

     site n.     atom                  positions (alat units)
         1           Fe1 tau(   1) = (   0.0000000   0.0000000   0.0000000  )
         2           Fe2 tau(   2) = (   0.2521433   0.2521433   0.2521433  )
         3           Fe1 tau(   3) = (   0.0000000   0.0000000   0.5042857  )
         4           Fe2 tau(   4) = (   0.2521433   0.2521433   0.7564281  )
         5           Fe1 tau(   5) = (   0.0000000   0.5042857   0.0000000  )
         6           Fe2 tau(   6) = (   0.2521433   0.7564281   0.2521433  )
         7           Fe1 tau(   7) = (   0.0000000   0.5042857   0.5042857  )
         8           Fe2 tau(   8) = (   0.2521433   0.7564281   0.7564281  )
         9           Fe1 tau(   9) = (   0.5042857   0.0000000   0.0000000  )
        10           Fe2 tau(  10) = (   0.7564281   0.2521433   0.2521433  )
        11           Fe1 tau(  11) = (   0.5042857   0.0000000   0.5042857  )
        12           Fe2 tau(  12) = (   0.7564281   0.2521433   0.7564281  )
        13           Fe1 tau(  13) = (   0.5042857   0.5042857   0.0000000  )
        14           Fe2 tau(  14) = (   0.7564281   0.7564281   0.2521433  )
        15           Fe1 tau(  15) = (   0.5042857   0.5042857   0.5042857  )
        16           Fe2 tau(  16) = (   0.7564281   0.7564281   0.7564281  )

     number of k points=    35  Marzari-Vanderbilt smearing, width (Ry)=  0.0400
                       cart. coord. in units 2pi/alat
        k(    1) = (   0.0550834   0.0550834   0.0550834), wk =   0.0109739
        k(    2) = (   0.0550834   0.0550834   0.1652502), wk =   0.0329218
        k(    3) = (   0.0550834   0.0550834   0.2754171), wk =   0.0329218
        k(    4) = (   0.0550834   0.0550834   0.3855839), wk =   0.0329218
        k(    5) = (   0.0550834   0.0550834  -0.4957507), wk =   0.0164609
        k(    6) = (   0.0550834   0.1652502   0.1652502), wk =   0.0329218
        k(    7) = (   0.0550834   0.1652502   0.2754171), wk =   0.0658436
        k(    8) = (   0.0550834   0.1652502   0.3855839), wk =   0.0658436
        k(    9) = (   0.0550834   0.1652502  -0.4957507), wk =   0.0329218
        k(   10) = (   0.0550834   0.2754171   0.2754171), wk =   0.0329218
        k(   11) = (   0.0550834   0.2754171   0.3855839), wk =   0.0658436
        k(   12) = (   0.0550834   0.2754171  -0.4957507), wk =   0.0329218
        k(   13) = (   0.0550834   0.3855839   0.3855839), wk =   0.0329218
        k(   14) = (   0.0550834   0.3855839  -0.4957507), wk =   0.0329218
        k(   15) = (   0.0550834  -0.4957507  -0.4957507), wk =   0.0082305
        k(   16) = (   0.1652502   0.1652502   0.1652502), wk =   0.0109739
        k(   17) = (   0.1652502   0.1652502   0.2754171), wk =   0.0329218
        k(   18) = (   0.1652502   0.1652502   0.3855839), wk =   0.0329218
        k(   19) = (   0.1652502   0.1652502  -0.4957507), wk =   0.0164609
        k(   20) = (   0.1652502   0.2754171   0.2754171), wk =   0.0329218
        k(   21) = (   0.1652502   0.2754171   0.3855839), wk =   0.0658436
        k(   22) = (   0.1652502   0.2754171  -0.4957507), wk =   0.0329218
        k(   23) = (   0.1652502   0.3855839   0.3855839), wk =   0.0329218
        k(   24) = (   0.1652502   0.3855839  -0.4957507), wk =   0.0329218
        k(   25) = (   0.1652502  -0.4957507  -0.4957507), wk =   0.0082305
        k(   26) = (   0.2754171   0.2754171   0.2754171), wk =   0.0109739
        k(   27) = (   0.2754171   0.2754171   0.3855839), wk =   0.0329218
        k(   28) = (   0.2754171   0.2754171  -0.4957507), wk =   0.0164609
        k(   29) = (   0.2754171   0.3855839   0.3855839), wk =   0.0329218
        k(   30) = (   0.2754171   0.3855839  -0.4957507), wk =   0.0329218
        k(   31) = (   0.2754171  -0.4957507  -0.4957507), wk =   0.0082305
        k(   32) = (   0.3855839   0.3855839   0.3855839), wk =   0.0109739
        k(   33) = (   0.3855839   0.3855839  -0.4957507), wk =   0.0164609
        k(   34) = (   0.3855839  -0.4957507  -0.4957507), wk =   0.0082305
        k(   35) = (  -0.4957507  -0.4957507  -0.4957507), wk =   0.0013717

     Dense  grid:   183731 G-vectors     FFT dimensions: (  72,  72,  72)

     Smooth grid:    98745 G-vectors     FFT dimensions: (  60,  60,  60)

     Estimated max dynamical RAM per process >     156.71 MB

     Estimated total dynamical RAM >       3.06 GB
     Generating pointlists ...
     new r_m :   0.1801 (alat units)  1.9084 (a.u.) for type    1
     new r_m :   0.1801 (alat units)  1.9084 (a.u.) for type    2

     Check: negative/imaginary core charge=   -0.000006    0.000000

     Initial potential from superposition of free atoms

     starting charge  255.99300, renormalised to  256.00000
     Starting wfcs are  160 randomized atomic wfcs
     Checking if some PAW data can be deallocated... 

     total cpu time spent up to now is        8.9 secs

     Self-consistent Calculation

     iteration #  1     ecut=    71.00 Ry     beta= 0.10
     Davidson diagonalization with overlap
     ethr =  1.00E-02,  avg # of iterations =  3.3

     Threshold (ethr) on eigenvalues was too large:
     Diagonalizing with lowered threshold

     Davidson diagonalization with overlap
     ethr =  1.90E-04,  avg # of iterations =  3.6

     total cpu time spent up to now is       68.1 secs

     total energy              =   -5267.96735896 Ry
     Harris-Foulkes estimate   =   -5268.00963048 Ry
     estimated scf accuracy    <       0.56826598 Ry

     total magnetization       =    28.45 Bohr mag/cell
     absolute magnetization    =    28.57 Bohr mag/cell

     iteration #  2     ecut=    71.00 Ry     beta= 0.10
     Davidson diagonalization with overlap
     ethr =  2.22E-04,  avg # of iterations =  1.0

     total cpu time spent up to now is       86.2 secs

     total energy              =   -5267.96280204 Ry
     Harris-Foulkes estimate   =   -5267.97828759 Ry
     estimated scf accuracy    <       0.33412054 Ry

     total magnetization       =    29.09 Bohr mag/cell
     absolute magnetization    =    29.24 Bohr mag/cell

     iteration #  3     ecut=    71.00 Ry     beta= 0.10
     Davidson diagonalization with overlap
     ethr =  1.31E-04,  avg # of iterations =  3.0

     total cpu time spent up to now is      115.3 secs

     total energy              =   -5268.01935688 Ry
     Harris-Foulkes estimate   =   -5268.02155584 Ry
     estimated scf accuracy    <       0.37439466 Ry

     total magnetization       =    30.35 Bohr mag/cell
     absolute magnetization    =    30.69 Bohr mag/cell

     iteration #  4     ecut=    71.00 Ry     beta= 0.10
     Davidson diagonalization with overlap
     ethr =  1.31E-04,  avg # of iterations =  1.0

     total cpu time spent up to now is      133.5 secs

     total energy              =   -5268.03748698 Ry
     Harris-Foulkes estimate   =   -5268.02829760 Ry
     estimated scf accuracy    <       0.12171739 Ry

     total magnetization       =    30.59 Bohr mag/cell
     absolute magnetization    =    30.95 Bohr mag/cell

     iteration #  5     ecut=    71.00 Ry     beta= 0.10
     Davidson diagonalization with overlap
     ethr =  4.75E-05,  avg # of iterations =  1.1

     total cpu time spent up to now is      151.8 secs

     total energy              =   -5268.12519689 Ry
     Harris-Foulkes estimate   =   -5268.04142928 Ry
     estimated scf accuracy    <       0.11015997 Ry

     total magnetization       =    30.64 Bohr mag/cell
     absolute magnetization    =    31.05 Bohr mag/cell

     iteration #  6     ecut=    71.00 Ry     beta= 0.10
     Davidson diagonalization with overlap
     ethr =  4.30E-05,  avg # of iterations =  3.3

     negative rho (up, down):  0.000E+00 3.702E-03

     total cpu time spent up to now is      184.0 secs

     total energy              =   -5268.14049198 Ry
     Harris-Foulkes estimate   =   -5268.16558607 Ry
     estimated scf accuracy    <       0.23443040 Ry

     total magnetization       =    31.31 Bohr mag/cell
     absolute magnetization    =    32.11 Bohr mag/cell

     iteration #  7     ecut=    71.00 Ry     beta= 0.10
     Davidson diagonalization with overlap
     ethr =  4.30E-05,  avg # of iterations =  2.9

     negative rho (up, down):  0.000E+00 2.327E-03

     total cpu time spent up to now is      213.5 secs

     total energy              =   -5268.18556683 Ry
     Harris-Foulkes estimate   =   -5268.19062335 Ry
     estimated scf accuracy    <       0.01214980 Ry

     total magnetization       =    32.78 Bohr mag/cell
     absolute magnetization    =    34.47 Bohr mag/cell

     iteration #  8     ecut=    71.00 Ry     beta= 0.10
     Davidson diagonalization with overlap
     ethr =  4.75E-06,  avg # of iterations =  2.4

     negative rho (up, down):  0.000E+00 2.104E-03

     total cpu time spent up to now is      238.2 secs

     total energy              =   -5268.18731171 Ry
     Harris-Foulkes estimate   =   -5268.18738942 Ry
     estimated scf accuracy    <       0.00885980 Ry

     total magnetization       =    32.68 Bohr mag/cell
     absolute magnetization    =    34.18 Bohr mag/cell

     iteration #  9     ecut=    71.00 Ry     beta= 0.10
     Davidson diagonalization with overlap
     ethr =  3.46E-06,  avg # of iterations =  1.2

     negative rho (up, down):  0.000E+00 2.585E-03

     total cpu time spent up to now is      257.0 secs

     total energy              =   -5268.19056594 Ry
     Harris-Foulkes estimate   =   -5268.18755455 Ry
     estimated scf accuracy    <       0.00564155 Ry

     total magnetization       =    32.75 Bohr mag/cell
     absolute magnetization    =    34.27 Bohr mag/cell

     iteration # 10     ecut=    71.00 Ry     beta= 0.10
     Davidson diagonalization with overlap
     ethr =  2.20E-06,  avg # of iterations =  3.4

     negative rho (up, down):  0.000E+00 2.521E-03

     total cpu time spent up to now is      287.1 secs

     total energy              =   -5268.19229566 Ry
     Harris-Foulkes estimate   =   -5268.19220896 Ry
     estimated scf accuracy    <       0.00088247 Ry

     total magnetization       =    33.11 Bohr mag/cell
     absolute magnetization    =    34.88 Bohr mag/cell

     iteration # 11     ecut=    71.00 Ry     beta= 0.10
     Davidson diagonalization with overlap
     ethr =  3.45E-07,  avg # of iterations =  1.2

     negative rho (up, down):  0.000E+00 2.281E-03

     total cpu time spent up to now is      306.0 secs

     total energy              =   -5268.19251095 Ry
     Harris-Foulkes estimate   =   -5268.19231058 Ry
     estimated scf accuracy    <       0.00070036 Ry

     total magnetization       =    33.12 Bohr mag/cell
     absolute magnetization    =    34.89 Bohr mag/cell

     iteration # 12     ecut=    71.00 Ry     beta= 0.10
     Davidson diagonalization with overlap
     ethr =  2.74E-07,  avg # of iterations =  1.8

     negative rho (up, down):  0.000E+00 2.545E-03

     total cpu time spent up to now is      327.1 secs

     total energy              =   -5268.19263953 Ry
     Harris-Foulkes estimate   =   -5268.19258932 Ry
     estimated scf accuracy    <       0.00073960 Ry

     total magnetization       =    33.18 Bohr mag/cell
     absolute magnetization    =    34.97 Bohr mag/cell

     iteration # 13     ecut=    71.00 Ry     beta= 0.10
     Davidson diagonalization with overlap
     ethr =  2.74E-07,  avg # of iterations =  3.3

     negative rho (up, down):  0.000E+00 2.588E-03

     total cpu time spent up to now is      357.4 secs

     total energy              =   -5268.19290164 Ry
     Harris-Foulkes estimate   =   -5268.19291532 Ry
     estimated scf accuracy    <       0.00019131 Ry

     total magnetization       =    33.35 Bohr mag/cell
     absolute magnetization    =    35.25 Bohr mag/cell

     iteration # 14     ecut=    71.00 Ry     beta= 0.10
     Davidson diagonalization with overlap
     ethr =  7.47E-08,  avg # of iterations =  1.9

     negative rho (up, down):  0.000E+00 2.595E-03

     total cpu time spent up to now is      378.9 secs

     total energy              =   -5268.19293687 Ry
     Harris-Foulkes estimate   =   -5268.19292873 Ry
     estimated scf accuracy    <       0.00013902 Ry

     total magnetization       =    33.38 Bohr mag/cell
     absolute magnetization    =    35.28 Bohr mag/cell

     iteration # 15     ecut=    71.00 Ry     beta= 0.10
     Davidson diagonalization with overlap
     ethr =  5.43E-08,  avg # of iterations =  1.2

     negative rho (up, down):  0.000E+00 2.609E-03

     total cpu time spent up to now is      397.6 secs

     total energy              =   -5268.19296946 Ry
     Harris-Foulkes estimate   =   -5268.19294800 Ry
     estimated scf accuracy    <       0.00002659 Ry

     total magnetization       =    33.41 Bohr mag/cell
     absolute magnetization    =    35.31 Bohr mag/cell

     iteration # 16     ecut=    71.00 Ry     beta= 0.10
     Davidson diagonalization with overlap
     ethr =  1.04E-08,  avg # of iterations =  2.9

     negative rho (up, down):  0.000E+00 2.611E-03

     total cpu time spent up to now is      425.0 secs

     total energy              =   -5268.19297690 Ry
     Harris-Foulkes estimate   =   -5268.19297405 Ry
     estimated scf accuracy    <       0.00000945 Ry

     total magnetization       =    33.41 Bohr mag/cell
     absolute magnetization    =    35.30 Bohr mag/cell

     iteration # 17     ecut=    71.00 Ry     beta= 0.10
     Davidson diagonalization with overlap
     ethr =  3.69E-09,  avg # of iterations =  3.0

     negative rho (up, down):  0.000E+00 2.625E-03

     total cpu time spent up to now is      453.7 secs

     total energy              =   -5268.19298137 Ry
     Harris-Foulkes estimate   =   -5268.19297943 Ry
     estimated scf accuracy    <       0.00000403 Ry

     total magnetization       =    33.42 Bohr mag/cell
     absolute magnetization    =    35.32 Bohr mag/cell

     iteration # 18     ecut=    71.00 Ry     beta= 0.10
     Davidson diagonalization with overlap
     ethr =  1.57E-09,  avg # of iterations =  2.5

     negative rho (up, down):  0.000E+00 2.642E-03
 
     Magnetic moment per site:
     atom:    1    charge:   14.3871    magn:    2.1366    constr:    0.0000
     atom:    2    charge:   14.3871    magn:    2.1388    constr:    0.0000
     atom:    3    charge:   14.3871    magn:    2.1374    constr:    0.0000
     atom:    4    charge:   14.3871    magn:    2.1388    constr:    0.0000
     atom:    5    charge:   14.3871    magn:    2.1374    constr:    0.0000
     atom:    6    charge:   14.3871    magn:    2.1388    constr:    0.0000
     atom:    7    charge:   14.3872    magn:    2.1379    constr:    0.0000
     atom:    8    charge:   14.3871    magn:    2.1388    constr:    0.0000
     atom:    9    charge:   14.3871    magn:    2.1374    constr:    0.0000
     atom:   10    charge:   14.3871    magn:    2.1388    constr:    0.0000
     atom:   11    charge:   14.3872    magn:    2.1379    constr:    0.0000
     atom:   12    charge:   14.3871    magn:    2.1388    constr:    0.0000
     atom:   13    charge:   14.3872    magn:    2.1379    constr:    0.0000
     atom:   14    charge:   14.3871    magn:    2.1388    constr:    0.0000
     atom:   15    charge:   14.3872    magn:    2.1385    constr:    0.0000
     atom:   16    charge:   14.3871    magn:    2.1388    constr:    0.0000

     total cpu time spent up to now is      477.7 secs

     End of self-consistent calculation

 ------ SPIN UP ------------


          k = 0.0551 0.0551 0.0551 ( 12308 PWs)   bands (ev):

   -69.6587 -69.5902 -69.5902 -69.5902 -69.5796 -69.5796 -69.5796 -69.5784
   -69.5782 -69.5782 -69.5777 -69.5777 -69.5774 -69.5741 -69.5727 -69.5199
   -35.8651 -35.8651 -35.8651 -35.8632 -35.8632 -35.8632 -35.7490 -35.7490
   -35.7439 -35.6875 -35.6853 -35.6853 -35.6853 -35.6704 -35.6704 -35.6589
   -35.6589 -35.6589 -35.6335 -35.6335 -35.6156 -35.6063 -35.6063 -35.6063
   -35.5975 -35.5974 -35.5974 -35.5893 -35.5893 -35.5893 -35.5865 -35.5865
   -35.5865 -35.5796 -35.5795 -35.5795 -35.5713 -35.5713 -35.5713 -35.4510
   -35.4490 -35.4490 -35.4489 -35.4464 -35.4464 -35.4464 -35.4461 -35.4461
     9.9177  13.4647  13.4647  13.4647  13.4780  13.4780  13.4780  13.4841
    13.4841  13.4841  13.5278  13.5278  13.8869  13.8869  13.8869  15.0513
    15.0654  15.0654  15.0654  15.0774  15.0774  15.0775  15.1338  15.1338
    15.2094  15.2094  15.2094  15.2719  15.2719  15.3255  15.5356  15.5356
    15.5356  16.1569  16.1569  16.1970  16.4745  16.4745  16.4746  16.5507
    16.5507  16.5507  16.6410  16.6410  16.6410  16.7189  16.7189  16.7189
    17.3227  17.3227  17.3298  17.3298  17.3298  17.3658  17.3658  17.3658
    17.4074  17.4074  17.4074  17.4137  17.4137  17.4137  17.5221  17.5221
    17.5221  17.5434  17.5434  17.5434  17.5586  17.5586  17.5598  17.5598
    18.3944  18.3944  18.3944  18.4869  18.4869  18.4869  18.5603  18.6239
    18.6239  18.6584  18.6584  18.6584  18.9534  18.9534  18.9534  19.1720
    19.1720  19.1720

          k = 0.0551 0.0551 0.1653 ( 12315 PWs)   bands (ev):

   -69.6563 -69.6024 -69.5897 -69.5897 -69.5808 -69.5808 -69.5793 -69.5781
   -69.5780 -69.5775 -69.5773 -69.5772 -69.5744 -69.5730 -69.5664 -69.5216
   -35.8598 -35.8597 -35.8585 -35.8568 -35.8532 -35.8532 -35.7508 -35.7441
   -35.7364 -35.7146 -35.7088 -35.7087 -35.7067 -35.7064 -35.6834 -35.6834
   -35.6583 -35.6380 -35.6326 -35.6296 -35.6234 -35.6061 -35.6061 -35.5976
   -35.5931 -35.5918 -35.5918 -35.5903 -35.5877 -35.5846 -35.5846 -35.5800
   -35.5800 -35.5762 -35.5762 -35.5536 -35.5510 -35.5509 -35.5461 -35.4623
   -35.4558 -35.4557 -35.4545 -35.4528 -35.4506 -35.4489 -35.4489 -35.4482
    10.0464  12.9301  13.4810  13.4810  13.5265  13.5265  13.5398  13.5398
    13.5548  13.5730  13.5824  13.5852  13.9236  13.9236  14.1157  14.8871
    14.9489  15.0433  15.0524  15.0629  15.0635  15.1082  15.1082  15.1446
    15.1446  15.1641  15.1923  15.1923  15.4620  15.4635  15.4878  15.4878
    15.8485  16.1363  16.1541  16.2513  16.2885  16.2885  16.3429  16.4324
    16.4447  16.4447  16.6631  16.6631  16.7831  16.7831  16.8445  16.9308
    17.0039  17.0040  17.1207  17.2559  17.2559  17.2656  17.3161  17.3461
    17.3677  17.3677  17.4202  17.4225  17.4413  17.4413  17.5243  17.5248
    17.5248  17.5550  17.5563  17.5575  17.5596  17.7322  17.7322  17.7554
    17.8759  18.0343  18.1035  18.4053  18.4053  18.4173  18.4173  18.4199
    18.5134  18.6174  18.7384  18.7384  19.0158  19.0158  19.0390  19.0390
    19.5005  19.5005

          k = 0.0551 0.0551 0.2754 ( 12341 PWs)   bands (ev):

   -69.6515 -69.6144 -69.5888 -69.5888 -69.5824 -69.5824 -69.5787 -69.5778
   -69.5777 -69.5771 -69.5770 -69.5769 -69.5751 -69.5736 -69.5556 -69.5253
   -35.8466 -35.8466 -35.8458 -35.8442 -35.8358 -35.8358 -35.7514 -35.7454
   -35.7413 -35.7398 -35.7398 -35.7346 -35.7258 -35.7237 -35.7163 -35.7163
   -35.6582 -35.6487 -35.6476 -35.6346 -35.6048 -35.6048 -35.6008 -35.5974
   -35.5971 -35.5948 -35.5948 -35.5830 -35.5830 -35.5803 -35.5803 -35.5637
   -35.5582 -35.5500 -35.5500 -35.5293 -35.5263 -35.5262 -35.5222 -35.4790
   -35.4670 -35.4670 -35.4662 -35.4650 -35.4590 -35.4558 -35.4558 -35.4550
    10.3003  12.3168  13.5258  13.5258  13.5956  13.5956  13.6286  13.6286
    13.6904  13.6920  13.7283  13.7437  13.9578  13.9578  14.1759  14.5808
    14.8032  14.8492  14.9936  15.0300  15.0390  15.0410  15.2043  15.2043
    15.2221  15.2221  15.2646  15.2646  15.4747  15.4747  15.6995  15.7107
    16.0384  16.0384  16.0989  16.1255  16.1521  16.1798  16.1799  16.2454
    16.3329  16.4004  16.5565  16.5565  16.7971  16.7971  16.8405  16.8405
    16.8903  16.8903  16.9222  17.0853  17.1302  17.1536  17.1806  17.3001
    17.3056  17.3056  17.3860  17.3860  17.3927  17.4431  17.4606  17.5283
    17.5451  17.5480  17.5521  17.5594  17.7365  17.7770  17.7770  17.8075
    17.9591  17.9779  17.9779  18.2059  18.3112  18.3955  18.3955  18.4642
    18.4642  18.5567  18.7063  18.7063  18.9067  18.9067  19.1312  19.1312
    19.5804  19.5804

          k = 0.0551 0.0551 0.3856 ( 12344 PWs)   bands (ev):

   -69.6445 -69.6257 -69.5874 -69.5874 -69.5841 -69.5841 -69.5779 -69.5775
   -69.5774 -69.5769 -69.5769 -69.5762 -69.5759 -69.5743 -69.5459 -69.5306
   -35.8268 -35.8267 -35.8267 -35.8259 -35.8121 -35.8121 -35.7753 -35.7738
   -35.7713 -35.7713 -35.7503 -35.7503 -35.7494 -35.7361 -35.7207 -35.7112
   -35.6819 -35.6721 -35.6358 -35.6269 -35.6114 -35.6066 -35.6029 -35.6029
   -35.5976 -35.5976 -35.5821 -35.5821 -35.5806 -35.5806 -35.5646 -35.5328
   -35.5297 -35.5244 -35.5244 -35.5070 -35.5033 -35.5029 -35.5028 -35.5004
   -35.4828 -35.4828 -35.4823 -35.4822 -35.4712 -35.4674 -35.4673 -35.4662
    10.6715  11.7060  13.5843  13.5843  13.6401  13.6401  13.7398  13.7398
    13.8338  13.8489  13.9373  13.9373  13.9707  13.9818  14.1150  14.3004
    14.5558  14.5656  14.9765  14.9920  15.0043  15.0117  15.3491  15.3491
    15.3744  15.3744  15.4318  15.4319  15.5707  15.5707  15.8028  15.8028
    15.9140  15.9140  16.0065  16.0148  16.1017  16.1017  16.1262  16.1537
    16.1705  16.1801  16.3000  16.3001  16.4419  16.5559  16.7395  16.7672
    16.8123  16.9908  17.0100  17.0100  17.0239  17.0239  17.2236  17.2236
    17.3036  17.3036  17.3580  17.4587  17.4600  17.4722  17.4766  17.5276
    17.5295  17.5338  17.5465  17.5616  17.6072  17.6558  17.9401  18.0193
    18.0193  18.0481  18.1478  18.2184  18.2184  18.3430  18.3430  18.4533
    18.5374  18.5374  18.5964  18.5964  18.7682  18.7682  19.2798  19.2798
    19.5466  19.5466

          k = 0.0551 0.0551-0.4958 ( 12312 PWs)   bands (ev):

   -69.6360 -69.6357 -69.5860 -69.5859 -69.5857 -69.5857 -69.5773 -69.5773
   -69.5770 -69.5769 -69.5769 -69.5768 -69.5756 -69.5749 -69.5376 -69.5373
   -35.8028 -35.8026 -35.8025 -35.8023 -35.8010 -35.8010 -35.8010 -35.8009
   -35.7829 -35.7829 -35.7829 -35.7829 -35.7443 -35.7441 -35.7030 -35.7028
   -35.6933 -35.6931 -35.6233 -35.6230 -35.6168 -35.6164 -35.6005 -35.6005
   -35.6003 -35.6003 -35.5814 -35.5814 -35.5811 -35.5811 -35.5327 -35.5325
   -35.5057 -35.5054 -35.5043 -35.5040 -35.5016 -35.5016 -35.5016 -35.5016
   -35.4874 -35.4871 -35.4829 -35.4829 -35.4828 -35.4828 -35.4817 -35.4816
    11.1469  11.1469  13.6323  13.6323  13.6324  13.6324  13.8536  13.8536
    13.8537  13.8537  13.9862  13.9862  14.0541  14.0541  14.2599  14.2600
    14.2639  14.2640  14.9834  14.9836  14.9913  14.9915  15.5311  15.5311
    15.5311  15.5311  15.5954  15.5954  15.5954  15.5955  15.7451  15.7451
    15.7452  15.7452  15.8905  15.8905  15.8906  15.8906  16.1422  16.1424
    16.1619  16.1621  16.3724  16.3726  16.3779  16.3782  16.5781  16.5783
    16.7847  16.7848  17.1238  17.1238  17.1239  17.1239  17.1826  17.1826
    17.1826  17.1826  17.5029  17.5030  17.5035  17.5038  17.5401  17.5403
    17.5445  17.5447  17.5718  17.5719  17.6493  17.6495  17.7557  17.7561
    18.2162  18.2162  18.2162  18.2162  18.3147  18.3149  18.4293  18.4293
    18.4294  18.4294  18.6398  18.6398  18.6398  18.6398  19.4315  19.4315
    19.4316  19.4316

          k = 0.0551 0.1653 0.1653 ( 12328 PWs)   bands (ev):

   -69.6539 -69.6016 -69.6016 -69.5892 -69.5842 -69.5805 -69.5805 -69.5778
   -69.5771 -69.5770 -69.5749 -69.5747 -69.5732 -69.5666 -69.5666 -69.5234
   -35.8583 -35.8534 -35.8534 -35.8475 -35.8475 -35.8392 -35.7558 -35.7408
   -35.7320 -35.7290 -35.7290 -35.7247 -35.7231 -35.7175 -35.6995 -35.6660
   -35.6544 -35.6544 -35.6320 -35.6319 -35.6299 -35.6101 -35.6016 -35.6016
   -35.5992 -35.5965 -35.5965 -35.5884 -35.5884 -35.5833 -35.5828 -35.5779
   -35.5675 -35.5597 -35.5547 -35.5547 -35.5366 -35.5271 -35.5270 -35.4764
   -35.4669 -35.4602 -35.4602 -35.4548 -35.4548 -35.4541 -35.4466 -35.4462
    10.1738  12.9979  12.9979  13.4467  13.5727  13.5727  13.5819  13.6275
    13.6281  13.6281  13.6353  13.6433  13.9703  14.1516  14.1516  14.8568
    14.8924  14.8924  14.9573  15.0925  15.0925  15.1128  15.1252  15.1252
    15.1264  15.1586  15.2249  15.2355  15.4245  15.4594  15.4728  15.7550
    15.7550  16.0850  16.1426  16.1673  16.1674  16.2177  16.3341  16.3412
    16.5896  16.5897  16.6356  16.6356  16.6530  16.7015  16.8253  16.9371
    16.9371  16.9469  16.9469  17.1935  17.1935  17.2576  17.2919  17.3062
    17.3187  17.3187  17.3300  17.3824  17.3824  17.4364  17.4365  17.5041
    17.5483  17.5550  17.5557  17.5646  17.6509  17.8301  17.8869  17.9253
    17.9253  17.9363  17.9363  18.0287  18.0287  18.2328  18.2834  18.2834
    18.4303  18.4772  18.6403  18.8041  18.8247  19.1137  19.6955  19.6955
    19.8490  19.8490

          k = 0.0551 0.1653 0.2754 ( 12347 PWs)   bands (ev):

   -69.6492 -69.6132 -69.6000 -69.5883 -69.5878 -69.5820 -69.5798 -69.5776
   -69.5768 -69.5765 -69.5756 -69.5737 -69.5723 -69.5671 -69.5562 -69.5269
   -35.8498 -35.8411 -35.8409 -35.8364 -35.8315 -35.8180 -35.7601 -35.7575
   -35.7543 -35.7464 -35.7442 -35.7440 -35.7319 -35.7249 -35.7105 -35.6882
   -35.6580 -35.6572 -35.6291 -35.6274 -35.6266 -35.6226 -35.6115 -35.6063
   -35.6052 -35.6002 -35.5949 -35.5871 -35.5846 -35.5746 -35.5722 -35.5566
   -35.5564 -35.5442 -35.5386 -35.5309 -35.5179 -35.5048 -35.5045 -35.4978
   -35.4817 -35.4695 -35.4693 -35.4660 -35.4622 -35.4602 -35.4492 -35.4488
    10.4248  12.4034  13.1139  13.4257  13.6191  13.6640  13.7167  13.7363
    13.7418  13.7490  13.7542  13.7972  14.0227  14.1731  14.2172  14.6033
    14.7508  14.8282  14.9583  15.0457  15.0656  15.0917  15.1271  15.1566
    15.1806  15.1972  15.2325  15.3783  15.3795  15.6096  15.6449  15.6923
    15.9384  15.9533  16.0394  16.0436  16.0838  16.1302  16.1399  16.2528
    16.3600  16.4563  16.5014  16.5932  16.7115  16.7759  16.8078  16.8431
    16.8622  16.9211  16.9273  16.9614  16.9701  17.1172  17.1590  17.1740
    17.2126  17.3234  17.3652  17.3843  17.4109  17.4335  17.4389  17.5344
    17.5443  17.5548  17.5747  17.5749  17.6602  17.7883  17.7931  17.8029
    17.9345  17.9709  17.9860  18.0093  18.0204  18.1295  18.1702  18.2342
    18.3495  18.6047  18.6103  18.6264  18.8086  19.2911  19.4827  20.0252
    20.1010  20.4152

          k = 0.0551 0.1653 0.3856 ( 12338 PWs)   bands (ev):

   -69.6426 -69.6242 -69.5976 -69.5913 -69.5870 -69.5837 -69.5789 -69.5773
   -69.5768 -69.5766 -69.5758 -69.5743 -69.5704 -69.5678 -69.5467 -69.5320
   -35.8340 -35.8228 -35.8225 -35.8204 -35.8094 -35.7906 -35.7863 -35.7777
   -35.7730 -35.7730 -35.7619 -35.7543 -35.7539 -35.7240 -35.7185 -35.6928
   -35.6803 -35.6504 -35.6451 -35.6250 -35.6216 -35.6173 -35.6133 -35.6102
   -35.6041 -35.6038 -35.5891 -35.5863 -35.5853 -35.5671 -35.5593 -35.5477
   -35.5287 -35.5250 -35.5211 -35.5178 -35.5092 -35.5004 -35.4991 -35.4852
   -35.4841 -35.4827 -35.4825 -35.4824 -35.4742 -35.4697 -35.4565 -35.4560
    10.7911  11.8076  13.2414  13.3988  13.6785  13.7230  13.8281  13.8751
    13.8774  13.9086  13.9949  14.0183  14.0308  14.1235  14.1608  14.3371
    14.5638  14.5852  15.0045  15.0344  15.0423  15.0547  15.1470  15.2637
    15.3053  15.3176  15.3660  15.4146  15.5634  15.6586  15.8027  15.8484
    15.8734  15.8755  15.9037  15.9317  16.0110  16.0177  16.0697  16.0771
    16.0821  16.1162  16.2413  16.4021  16.5144  16.5875  16.5925  16.7003
    16.9257  17.0090  17.0167  17.0235  17.0364  17.0368  17.1230  17.1347
    17.2448  17.2994  17.3455  17.4135  17.4320  17.4480  17.4576  17.5129
    17.5213  17.5558  17.5821  17.5950  17.6325  17.7037  17.7346  17.8084
    17.8518  17.9215  17.9769  18.0295  18.0338  18.1145  18.3038  18.3255
    18.3942  18.4010  18.5609  18.7245  18.7953  19.2571  19.5164  19.9606
    20.2373  20.5209

          k = 0.0551 0.1653-0.4958 ( 12326 PWs)   bands (ev):

   -69.6343 -69.6340 -69.5948 -69.5945 -69.5855 -69.5853 -69.5778 -69.5777
   -69.5771 -69.5767 -69.5753 -69.5748 -69.5691 -69.5688 -69.5388 -69.5385
   -35.8124 -35.8124 -35.8006 -35.8003 -35.7999 -35.7996 -35.7991 -35.7991
   -35.7829 -35.7829 -35.7600 -35.7599 -35.7586 -35.7586 -35.7011 -35.7008
   -35.6727 -35.6726 -35.6311 -35.6309 -35.6198 -35.6195 -35.6132 -35.6129
   -35.6075 -35.6073 -35.5859 -35.5856 -35.5629 -35.5626 -35.5562 -35.5561
   -35.5228 -35.5228 -35.5037 -35.5034 -35.5005 -35.5003 -35.4985 -35.4985
   -35.4902 -35.4900 -35.4827 -35.4827 -35.4689 -35.4688 -35.4677 -35.4677
    11.2592  11.2592  13.3417  13.3418  13.7241  13.7242  13.9409  13.9410
    14.0115  14.0115  14.0324  14.0325  14.1030  14.1031  14.2861  14.2862
    14.3015  14.3016  15.0093  15.0095  15.0296  15.0298  15.4218  15.4219
    15.4241  15.4242  15.4493  15.4494  15.4805  15.4806  15.8157  15.8157
    15.8318  15.8318  15.9046  15.9046  16.0037  16.0037  16.0037  16.0038
    16.0997  16.0999  16.2047  16.2049  16.2087  16.2089  16.7493  16.7494
    16.8682  16.8683  17.0647  17.0648  17.1481  17.1482  17.1753  17.1754
    17.2083  17.2084  17.4089  17.4091  17.4853  17.4855  17.4872  17.4875
    17.5197  17.5199  17.5612  17.5613  17.6388  17.6389  17.6937  17.6940
    17.8851  17.8852  17.9969  17.9969  18.1807  18.1807  18.2393  18.2393
    18.4505  18.4506  18.5833  18.5833  19.0224  19.0224  19.7524  19.7525
    20.4287  20.4288

          k = 0.0551 0.2754 0.2754 ( 12324 PWs)   bands (ev):

   -69.6448 -69.6109 -69.6109 -69.5932 -69.5874 -69.5812 -69.5812 -69.5773
   -69.5766 -69.5764 -69.5762 -69.5739 -69.5681 -69.5573 -69.5573 -69.5301
   -35.8454 -35.8303 -35.8303 -35.8228 -35.8228 -35.7934 -35.7699 -35.7698
   -35.7694 -35.7663 -35.7592 -35.7564 -35.7405 -35.7234 -35.6916 -35.6588
   -35.6564 -35.6564 -35.6528 -35.6528 -35.6239 -35.6175 -35.6173 -35.6104
   -35.6104 -35.5996 -35.5995 -35.5939 -35.5938 -35.5889 -35.5621 -35.5388
   -35.5342 -35.5342 -35.5273 -35.5235 -35.5233 -35.5055 -35.5001 -35.4849
   -35.4849 -35.4752 -35.4752 -35.4699 -35.4690 -35.4690 -35.4469 -35.4459
    10.6695  12.5634  12.5634  13.3133  13.7733  13.7980  13.7980  13.8236
    13.8652  13.8732  13.8846  13.8846  14.1151  14.2427  14.2427  14.6953
    14.6992  14.6992  14.7575  15.0855  15.0933  15.1398  15.1398  15.1522
    15.1774  15.1774  15.2422  15.2844  15.5422  15.5638  15.6217  15.8257
    15.8258  15.9064  15.9065  15.9085  15.9530  15.9743  16.0392  16.1010
    16.3793  16.3793  16.5184  16.5184  16.5773  16.5773  16.6101  16.7484
    16.8131  16.8131  16.9159  16.9951  17.1044  17.1045  17.1276  17.1766
    17.3457  17.3583  17.3583  17.3716  17.3717  17.3897  17.3897  17.4250
    17.4729  17.5132  17.5292  17.5654  17.5986  17.7112  17.7515  17.7515
    17.7719  17.7719  17.8289  17.9789  18.0369  18.0369  18.0463  18.3437
    18.3437  18.3914  18.6705  18.8313  18.8496  19.5573  20.1073  20.1073
    20.7437  20.7437

          k = 0.0551 0.2754 0.3856 ( 12308 PWs)   bands (ev):

   -69.6386 -69.6212 -69.6076 -69.5984 -69.5861 -69.5828 -69.5802 -69.5777
   -69.5769 -69.5763 -69.5757 -69.5743 -69.5645 -69.5590 -69.5485 -69.5348
   -35.8342 -35.8149 -35.8148 -35.8106 -35.8043 -35.7950 -35.7806 -35.7768
   -35.7767 -35.7757 -35.7755 -35.7631 -35.7610 -35.7105 -35.6931 -35.6747
   -35.6707 -35.6506 -35.6462 -35.6282 -35.6244 -35.6233 -35.6222 -35.6198
   -35.6188 -35.6149 -35.6025 -35.5931 -35.5917 -35.5721 -35.5545 -35.5532
   -35.5393 -35.5217 -35.5180 -35.5138 -35.5106 -35.5082 -35.4935 -35.4839
   -35.4835 -35.4820 -35.4814 -35.4745 -35.4686 -35.4684 -35.4489 -35.4487
    11.0253  12.0016  12.7694  13.1693  13.8572  13.8674  13.9443  13.9923
    13.9945  14.0376  14.0450  14.1128  14.1563  14.1957  14.2022  14.4562
    14.5801  14.5932  14.9085  15.0546  15.0911  15.0930  15.1172  15.1251
    15.2318  15.2614  15.2619  15.3362  15.5471  15.6463  15.7009  15.7532
    15.7548  15.8306  15.8678  15.8857  15.8892  15.9081  15.9762  16.0206
    16.0665  16.1123  16.1910  16.2430  16.2830  16.3397  16.7813  16.8302
    16.8795  17.0207  17.0471  17.0579  17.0671  17.0961  17.1045  17.1670
    17.2872  17.3003  17.3057  17.3289  17.3892  17.4056  17.4110  17.4126
    17.4824  17.4994  17.5232  17.5811  17.5880  17.6138  17.6364  17.6578
    17.7189  17.8024  17.8268  17.8280  17.8445  18.0078  18.0638  18.1620
    18.4894  18.5391  18.6608  18.7909  19.1503  19.7941  19.8742  20.5041
    20.7609  21.3627

          k = 0.0551 0.2754-0.4958 ( 12330 PWs)   bands (ev):

   -69.6308 -69.6305 -69.6035 -69.6032 -69.5847 -69.5844 -69.5791 -69.5789
   -69.5767 -69.5764 -69.5752 -69.5748 -69.5616 -69.5613 -69.5411 -69.5408
   -35.8171 -35.8171 -35.7963 -35.7962 -35.7962 -35.7961 -35.7961 -35.7959
   -35.7831 -35.7830 -35.7785 -35.7784 -35.7292 -35.7292 -35.6943 -35.6940
   -35.6482 -35.6481 -35.6380 -35.6378 -35.6377 -35.6376 -35.6185 -35.6184
   -35.6115 -35.6113 -35.5930 -35.5928 -35.5879 -35.5878 -35.5460 -35.5459
   -35.5458 -35.5455 -35.4989 -35.4986 -35.4963 -35.4960 -35.4959 -35.4958
   -35.4946 -35.4946 -35.4830 -35.4830 -35.4566 -35.4566 -35.4563 -35.4563
    11.4772  11.4772  12.9833  12.9833  13.8938  13.8939  14.0797  14.0798
    14.1014  14.1015  14.1104  14.1104  14.2346  14.2347  14.3289  14.3290
    14.3659  14.3660  15.0566  15.0567  15.0764  15.0766  15.2038  15.2039
    15.2443  15.2444  15.2833  15.2834  15.4736  15.4736  15.8438  15.8439
    15.8463  15.8463  15.8677  15.8678  15.9513  15.9515  15.9661  15.9663
    16.0039  16.0039  16.0284  16.0285  16.0326  16.0326  16.9639  16.9639
    16.9942  16.9943  17.0426  17.0427  17.1128  17.1129  17.1872  17.1872
    17.1973  17.1974  17.1982  17.1982  17.4451  17.4453  17.4558  17.4560
    17.4743  17.4745  17.5421  17.5423  17.6028  17.6029  17.6064  17.6065
    17.7039  17.7039  17.8469  17.8469  17.9172  17.9172  18.0444  18.0444
    18.5980  18.5981  18.6917  18.6917  19.4718  19.4719  20.2012  20.2012
    21.4302  21.4303

          k = 0.0551 0.3856 0.3856 ( 12315 PWs)   bands (ev):

   -69.6329 -69.6170 -69.6170 -69.6054 -69.5848 -69.5817 -69.5817 -69.5790
   -69.5765 -69.5758 -69.5757 -69.5747 -69.5592 -69.5512 -69.5512 -69.5390
   -35.8277 -35.8044 -35.8044 -35.7979 -35.7979 -35.7976 -35.7976 -35.7874
   -35.7853 -35.7835 -35.7823 -35.7713 -35.7311 -35.6987 -35.6661 -35.6661
   -35.6590 -35.6590 -35.6491 -35.6469 -35.6423 -35.6282 -35.6282 -35.6268
   -35.6157 -35.6017 -35.6016 -35.5971 -35.5971 -35.5970 -35.5878 -35.5452
   -35.5409 -35.5209 -35.5208 -35.5053 -35.5006 -35.4990 -35.4916 -35.4884
   -35.4867 -35.4867 -35.4824 -35.4824 -35.4564 -35.4564 -35.4469 -35.4464
    11.3633  12.2687  12.2687  12.8903  14.0207  14.0314  14.0870  14.0973
    14.0973  14.1911  14.1911  14.2138  14.2138  14.2180  14.2821  14.5349
    14.5623  14.6679  14.6679  15.0494  15.0742  15.0841  15.1506  15.1506
    15.1537  15.1537  15.1690  15.2416  15.4017  15.6353  15.6563  15.6563
    15.6990  15.7795  15.8031  15.8413  15.9105  15.9105  15.9287  15.9287
    15.9436  15.9436  15.9768  16.0179  16.1531  16.5277  16.5277  16.9855
    17.0463  17.0511  17.0511  17.1057  17.1294  17.1460  17.1773  17.1773
    17.1798  17.2836  17.3351  17.3351  17.3453  17.3453  17.3680  17.4195
    17.4195  17.4355  17.4370  17.4612  17.5286  17.5286  17.5818  17.6123
    17.6856  17.7154  17.7154  17.7950  17.8760  17.8761  17.9241  17.9398
    18.6453  18.6454  18.7111  18.8001  19.5435  20.2804  20.3580  20.3580
    21.0953  21.0953

          k = 0.0551 0.3856-0.4958 ( 12328 PWs)   bands (ev):

   -69.6257 -69.6254 -69.6118 -69.6114 -69.5834 -69.5832 -69.5805 -69.5803
   -69.5763 -69.5760 -69.5754 -69.5750 -69.5549 -69.5546 -69.5446 -69.5443
   -35.8150 -35.8150 -35.7948 -35.7947 -35.7932 -35.7931 -35.7929 -35.7927
   -35.7913 -35.7911 -35.7842 -35.7841 -35.6959 -35.6959 -35.6840 -35.6837
   -35.6552 -35.6550 -35.6408 -35.6407 -35.6299 -35.6298 -35.6235 -35.6235
   -35.6219 -35.6219 -35.6099 -35.6097 -35.6005 -35.6004 -35.5705 -35.5705
   -35.5301 -35.5298 -35.5051 -35.5048 -35.4932 -35.4931 -35.4926 -35.4925
   -35.4920 -35.4920 -35.4846 -35.4845 -35.4491 -35.4490 -35.4490 -35.4490
    11.7871  11.7871  12.5781  12.5781  14.1056  14.1057  14.1226  14.1227
    14.1544  14.1544  14.2958  14.2959  14.3516  14.3517  14.4332  14.4333
    14.4334  14.4335  14.9390  14.9391  15.0818  15.0819  15.0901  15.0902
    15.0992  15.0993  15.1602  15.1603  15.5106  15.5106  15.7012  15.7013
    15.7424  15.7426  15.7787  15.7788  15.7808  15.7810  15.7996  15.7997
    15.9789  15.9790  15.9998  15.9999  16.2385  16.2385  16.8053  16.8054
    17.0848  17.0849  17.1091  17.1091  17.1939  17.1939  17.2028  17.2028
    17.2354  17.2355  17.2678  17.2679  17.3609  17.3611  17.3837  17.3838
    17.4072  17.4074  17.4209  17.4211  17.4604  17.4606  17.6525  17.6526
    17.6775  17.6776  17.7569  17.7570  17.7576  17.7576  17.9041  17.9042
    18.7049  18.7049  18.7512  18.7512  19.9499  19.9500  20.6969  20.6969
    20.9353  20.9354

          k = 0.0551-0.4958-0.4958 ( 12356 PWs)   bands (ev):

   -69.6194 -69.6192 -69.6192 -69.6188 -69.5821 -69.5819 -69.5819 -69.5816
   -69.5760 -69.5756 -69.5756 -69.5752 -69.5495 -69.5492 -69.5492 -69.5488
   -35.8078 -35.8078 -35.8078 -35.8078 -35.7918 -35.7916 -35.7916 -35.7915
   -35.7869 -35.7868 -35.7868 -35.7866 -35.6712 -35.6709 -35.6709 -35.6706
   -35.6601 -35.6600 -35.6600 -35.6600 -35.6381 -35.6380 -35.6380 -35.6380
   -35.6063 -35.6062 -35.6062 -35.6062 -35.5963 -35.5963 -35.5962 -35.5962
   -35.5165 -35.5163 -35.5163 -35.5160 -35.4912 -35.4911 -35.4911 -35.4910
   -35.4880 -35.4879 -35.4879 -35.4878 -35.4466 -35.4466 -35.4466 -35.4466
    12.1653  12.1653  12.1653  12.1653  14.1528  14.1528  14.1528  14.1528
    14.2852  14.2852  14.2852  14.2852  14.4332  14.4332  14.4332  14.4332
    14.6751  14.6752  14.6752  14.6753  15.0455  15.0456  15.0456  15.0456
    15.0985  15.0986  15.0986  15.0986  15.5880  15.5880  15.5880  15.5880
    15.7006  15.7007  15.7007  15.7009  15.7453  15.7454  15.7454  15.7456
    15.9694  15.9695  15.9695  15.9696  16.5088  16.5089  16.5089  16.5089
    17.1875  17.1875  17.1875  17.1875  17.1965  17.1966  17.1966  17.1969
    17.3082  17.3084  17.3084  17.3085  17.3421  17.3422  17.3422  17.3423
    17.3987  17.3988  17.3988  17.3990  17.4393  17.4393  17.4393  17.4393
    17.6989  17.6990  17.6990  17.6991  17.8160  17.8160  17.8160  17.8160
    18.7563  18.7564  18.7564  18.7564  20.4406  20.4407  20.4407  20.4407
    21.2062  21.2062

          k = 0.1653 0.1653 0.1653 ( 12323 PWs)   bands (ev):

   -69.6516 -69.6008 -69.6008 -69.6007 -69.5837 -69.5837 -69.5837 -69.5759
   -69.5745 -69.5745 -69.5745 -69.5729 -69.5668 -69.5668 -69.5668 -69.5251
   -35.8518 -35.8517 -35.8517 -35.8344 -35.8344 -35.8344 -35.7510 -35.7510
   -35.7476 -35.7416 -35.7416 -35.7416 -35.7106 -35.7018 -35.7018 -35.6713
   -35.6712 -35.6712 -35.6371 -35.6371 -35.6371 -35.6051 -35.6051 -35.6051
   -35.5951 -35.5951 -35.5834 -35.5834 -35.5834 -35.5811 -35.5811 -35.5811
   -35.5563 -35.5563 -35.5563 -35.5489 -35.5151 -35.5151 -35.5151 -35.4915
   -35.4696 -35.4696 -35.4696 -35.4526 -35.4526 -35.4526 -35.4504 -35.4504
    10.3000  13.0699  13.0699  13.0699  13.5426  13.5426  13.5426  13.6941
    13.6941  13.7135  13.7136  13.7136  14.2009  14.2009  14.2009  14.7806
    14.8814  14.8814  14.8814  15.0420  15.0420  15.1110  15.1110  15.1110
    15.2071  15.2071  15.2071  15.3805  15.3805  15.3830  15.6562  15.6562
    15.6562  16.0750  16.0750  16.1093  16.1093  16.1094  16.4414  16.4676
    16.4676  16.4676  16.5964  16.5964  16.5964  16.6481  16.6482  16.6482
    17.0065  17.0065  17.0065  17.2213  17.2214  17.2214  17.2853  17.2853
    17.3192  17.3192  17.3192  17.4755  17.4756  17.4756  17.5069  17.5070
    17.5070  17.5277  17.5277  17.5277  17.5427  17.5427  17.5686  17.5686
    18.0063  18.0126  18.0126  18.0126  18.0473  18.0473  18.0473  18.4791
    18.4791  18.4791  18.5293  18.5293  19.3390  19.3390  19.3390  19.9739
    19.9739  19.9739

          k = 0.1653 0.1653 0.2754 ( 12334 PWs)   bands (ev):

   -69.6470 -69.6120 -69.5991 -69.5991 -69.5872 -69.5872 -69.5828 -69.5771
   -69.5742 -69.5729 -69.5723 -69.5721 -69.5673 -69.5672 -69.5567 -69.5284
   -35.8434 -35.8434 -35.8391 -35.8254 -35.8149 -35.8149 -35.7637 -35.7623
   -35.7623 -35.7589 -35.7546 -35.7414 -35.7363 -35.6983 -35.6983 -35.6936
   -35.6850 -35.6631 -35.6402 -35.6381 -35.6380 -35.6162 -35.6136 -35.6136
   -35.6072 -35.6008 -35.5859 -35.5748 -35.5748 -35.5617 -35.5610 -35.5610
   -35.5585 -35.5585 -35.5311 -35.5303 -35.5141 -35.4987 -35.4986 -35.4954
   -35.4822 -35.4822 -35.4755 -35.4646 -35.4590 -35.4547 -35.4547 -35.4506
    10.5484  12.4924  13.1942  13.1943  13.5256  13.5256  13.7275  13.7945
    13.8036  13.8269  13.8269  13.8772  14.2452  14.2452  14.2748  14.6098
    14.7068  14.9175  14.9179  14.9180  15.0083  15.0838  15.1587  15.1779
    15.1779  15.2256  15.3315  15.3315  15.4684  15.5677  15.5677  15.5774
    15.8281  15.9539  15.9539  16.0101  16.0213  16.0562  16.2137  16.2138
    16.2445  16.2445  16.4751  16.5752  16.6421  16.6776  16.7687  16.7687
    16.8136  16.8136  16.8545  17.0501  17.0501  17.1979  17.2347  17.2515
    17.2515  17.2904  17.3372  17.3672  17.4097  17.4097  17.4359  17.5121
    17.5265  17.5377  17.5583  17.5933  17.6226  17.6226  17.6532  17.6533
    17.7320  17.7789  18.1155  18.1155  18.1355  18.1432  18.1432  18.1873
    18.3284  18.5442  18.5442  18.5660  19.0477  19.0477  19.9760  20.1909
    20.1909  20.8347

          k = 0.1653 0.1653 0.3856 ( 12305 PWs)   bands (ev):

   -69.6405 -69.6227 -69.5968 -69.5968 -69.5907 -69.5906 -69.5816 -69.5786
   -69.5737 -69.5729 -69.5704 -69.5703 -69.5680 -69.5680 -69.5476 -69.5333
   -35.8288 -35.8288 -35.8202 -35.8128 -35.7896 -35.7896 -35.7861 -35.7861
   -35.7807 -35.7682 -35.7641 -35.7624 -35.7292 -35.7292 -35.7270 -35.6872
   -35.6741 -35.6670 -35.6350 -35.6350 -35.6312 -35.6306 -35.6218 -35.6218
   -35.6070 -35.6013 -35.5921 -35.5694 -35.5694 -35.5611 -35.5611 -35.5424
   -35.5383 -35.5383 -35.5313 -35.5122 -35.5082 -35.4978 -35.4978 -35.4843
   -35.4828 -35.4828 -35.4819 -35.4786 -35.4716 -35.4601 -35.4601 -35.4556
    10.9103  11.9103  13.3324  13.3324  13.5007  13.5007  13.9417  13.9477
    13.9605  13.9605  13.9869  14.1009  14.2089  14.2089  14.2251  14.3564
    14.5741  14.6261  15.0041  15.0515  15.0814  15.0814  15.1025  15.1065
    15.2869  15.2870  15.4638  15.4638  15.5193  15.5193  15.7173  15.8077
    15.8357  15.8357  15.8555  15.8555  15.9327  15.9651  15.9662  16.0108
    16.0108  16.0292  16.2837  16.2837  16.2879  16.4288  16.7304  16.7832
    16.8691  17.0071  17.0071  17.0746  17.0862  17.0862  17.0951  17.1866
    17.1866  17.3201  17.3201  17.4087  17.4257  17.4354  17.4483  17.4988
    17.5036  17.5184  17.5294  17.5320  17.6134  17.6410  17.7033  17.7033
    17.7436  17.7436  17.8853  18.0692  18.2829  18.2829  18.2920  18.2920
    18.3413  18.5172  18.5172  18.5412  18.7811  18.7811  20.4515  20.4515
    20.6478  20.8575

          k = 0.1653 0.1653-0.4958 ( 12324 PWs)   bands (ev):

   -69.6325 -69.6322 -69.5941 -69.5941 -69.5938 -69.5937 -69.5803 -69.5800
   -69.5735 -69.5731 -69.5692 -69.5691 -69.5689 -69.5688 -69.5399 -69.5396
   -35.8090 -35.8090 -35.8090 -35.8090 -35.7977 -35.7975 -35.7968 -35.7965
   -35.7656 -35.7655 -35.7605 -35.7605 -35.7605 -35.7605 -35.7089 -35.7087
   -35.6531 -35.6530 -35.6488 -35.6486 -35.6292 -35.6292 -35.6290 -35.6290
   -35.5979 -35.5976 -35.5740 -35.5739 -35.5651 -35.5651 -35.5648 -35.5648
   -35.5170 -35.5170 -35.5169 -35.5169 -35.5047 -35.5044 -35.4968 -35.4966
   -35.4884 -35.4881 -35.4698 -35.4698 -35.4697 -35.4697 -35.4651 -35.4651
    11.3716  11.3716  13.4410  13.4410  13.4411  13.4411  14.0981  14.0981
    14.0982  14.0982  14.1003  14.1004  14.1309  14.1310  14.2977  14.2978
    14.3519  14.3520  15.0216  15.0218  15.0743  15.0744  15.3489  15.3489
    15.3490  15.3490  15.4201  15.4201  15.4201  15.4201  15.8080  15.8080
    15.8080  15.8080  15.9415  15.9415  15.9415  15.9415  15.9485  15.9486
    15.9915  15.9917  16.0436  16.0438  16.0539  16.0540  16.9051  16.9051
    16.9283  16.9284  17.1302  17.1303  17.1303  17.1303  17.1399  17.1400
    17.1830  17.1831  17.1831  17.1831  17.4754  17.4756  17.4829  17.4831
    17.4984  17.4986  17.5253  17.5254  17.7292  17.7292  17.7473  17.7473
    17.7474  17.7474  17.7835  17.7838  18.4254  18.4255  18.4255  18.4255
    18.4627  18.4628  18.5216  18.5216  18.5216  18.5217  20.6985  20.6985
    20.6985  20.6985

          k = 0.1653 0.2754 0.2754 ( 12331 PWs)   bands (ev):

   -69.6428 -69.6098 -69.6097 -69.5975 -69.5925 -69.5862 -69.5861 -69.5790
   -69.5724 -69.5721 -69.5718 -69.5681 -69.5676 -69.5578 -69.5578 -69.5315
   -35.8389 -35.8313 -35.8313 -35.8091 -35.8091 -35.7922 -35.7729 -35.7725
   -35.7725 -35.7723 -35.7643 -35.7433 -35.7387 -35.7163 -35.6935 -35.6737
   -35.6681 -35.6680 -35.6637 -35.6637 -35.6454 -35.6270 -35.6269 -35.6269
   -35.5898 -35.5838 -35.5838 -35.5787 -35.5787 -35.5637 -35.5613 -35.5494
   -35.5430 -35.5392 -35.5339 -35.5339 -35.5160 -35.4978 -35.4901 -35.4837
   -35.4837 -35.4821 -35.4820 -35.4656 -35.4656 -35.4644 -35.4526 -35.4505
    10.7910  12.6572  12.6572  13.3359  13.4193  13.7184  13.7184  13.8861
    13.9169  13.9493  13.9879  13.9879  14.3248  14.3248  14.3457  14.6789
    14.6806  14.6806  14.8727  14.8856  15.0502  15.1434  15.1434  15.2228
    15.2482  15.2538  15.2538  15.3600  15.4489  15.4730  15.5403  15.7048
    15.7048  15.8808  15.8813  15.8882  15.8883  15.9332  16.0071  16.0806
    16.1303  16.1303  16.3841  16.3841  16.4646  16.4646  16.5318  16.7373
    16.8402  16.8402  16.8977  17.1349  17.1900  17.2067  17.2344  17.2344
    17.3173  17.3191  17.3191  17.3778  17.3930  17.3930  17.4361  17.4759
    17.5057  17.5102  17.5102  17.5331  17.5562  17.5563  17.5611  17.6220
    17.7016  17.7814  17.7814  18.1335  18.2261  18.2354  18.2354  18.3016
    18.3016  18.3278  18.5587  18.6240  18.7254  19.6009  19.6009  20.4702
    21.2811  21.2811

          k = 0.1653 0.2754 0.3856 ( 12302 PWs)   bands (ev):

   -69.6367 -69.6198 -69.6065 -69.5976 -69.5953 -69.5894 -69.5846 -69.5809
   -69.5721 -69.5717 -69.5704 -69.5683 -69.5647 -69.5595 -69.5493 -69.5360
   -35.8283 -35.8188 -35.8137 -35.8010 -35.7930 -35.7878 -35.7866 -35.7822
   -35.7770 -35.7716 -35.7667 -35.7641 -35.7393 -35.7260 -35.6999 -35.6873
   -35.6814 -35.6589 -35.6522 -35.6476 -35.6442 -35.6394 -35.6367 -35.6353
   -35.6069 -35.5886 -35.5830 -35.5725 -35.5690 -35.5645 -35.5600 -35.5537
   -35.5387 -35.5252 -35.5252 -35.5165 -35.5116 -35.5040 -35.4950 -35.4876
   -35.4813 -35.4812 -35.4761 -35.4694 -35.4684 -35.4681 -35.4543 -35.4525
    11.1434  12.1065  12.8698  13.2782  13.4980  13.6964  13.9889  14.0110
    14.0744  14.0769  14.1213  14.2047  14.2792  14.2906  14.3603  14.4584
    14.6104  14.6402  14.8816  14.9769  15.0436  15.1019  15.1463  15.1699
    15.2336  15.3117  15.3217  15.3792  15.5033  15.5087  15.5787  15.6653
    15.6812  15.7792  15.7865  15.8229  15.8302  15.8601  15.8759  15.9087
    15.9639  16.0014  16.0681  16.1143  16.1268  16.1726  16.5820  16.9189
    16.9215  17.0191  17.0378  17.1294  17.1347  17.1552  17.1918  17.1926
    17.2735  17.3037  17.3085  17.3313  17.3705  17.3991  17.4075  17.4663
    17.4748  17.5068  17.5319  17.5336  17.5395  17.5792  17.6049  17.6230
    17.6861  17.7023  17.9156  17.9804  17.9948  18.1656  18.2532  18.4314
    18.4367  18.4426  18.5628  18.6151  18.6201  19.2593  20.1935  20.8011
    21.3770  21.4280

          k = 0.1653 0.2754-0.4958 ( 12328 PWs)   bands (ev):

   -69.6291 -69.6288 -69.6025 -69.6022 -69.5926 -69.5923 -69.5829 -69.5827
   -69.5720 -69.5717 -69.5693 -69.5690 -69.5619 -69.5616 -69.5422 -69.5418
   -35.8124 -35.8124 -35.8030 -35.8030 -35.7920 -35.7918 -35.7917 -35.7916
   -35.7766 -35.7765 -35.7639 -35.7639 -35.7329 -35.7328 -35.7087 -35.7084
   -35.6635 -35.6633 -35.6504 -35.6502 -35.6443 -35.6441 -35.6300 -35.6299
   -35.6016 -35.6016 -35.5868 -35.5866 -35.5679 -35.5678 -35.5456 -35.5454
   -35.5375 -35.5374 -35.5088 -35.5088 -35.5016 -35.5013 -35.4948 -35.4946
   -35.4924 -35.4921 -35.4736 -35.4736 -35.4601 -35.4601 -35.4588 -35.4588
    11.5900  11.5900  13.0898  13.0899  13.6280  13.6281  14.1550  14.1550
    14.1970  14.1970  14.2570  14.2571  14.2597  14.2597  14.3114  14.3115
    14.4368  14.4369  15.0636  15.0638  15.1158  15.1159  15.1744  15.1745
    15.1961  15.1962  15.3241  15.3242  15.4363  15.4363  15.7744  15.7745
    15.7841  15.7842  15.8118  15.8119  15.8174  15.8175  15.8375  15.8376
    15.8858  15.8858  15.9161  15.9163  15.9163  15.9163  16.8366  16.8367
    17.0249  17.0250  17.1248  17.1248  17.1569  17.1570  17.1801  17.1801
    17.1847  17.1847  17.2333  17.2333  17.4392  17.4394  17.4589  17.4591
    17.4742  17.4744  17.5349  17.5351  17.5683  17.5684  17.6734  17.6736
    17.7281  17.7283  17.7999  17.8000  18.1698  18.1698  18.2184  18.2184
    18.5209  18.5210  18.5517  18.5517  18.9317  18.9317  20.8041  20.8042
    21.1266  21.1266

          k = 0.1653 0.3856 0.3856 ( 12333 PWs)   bands (ev):

   -69.6311 -69.6157 -69.6157 -69.6043 -69.5932 -69.5877 -69.5877 -69.5832
   -69.5713 -69.5705 -69.5704 -69.5687 -69.5596 -69.5519 -69.5519 -69.5401
   -35.8215 -35.8049 -35.8049 -35.7941 -35.7941 -35.7895 -35.7860 -35.7860
   -35.7831 -35.7820 -35.7743 -35.7531 -35.7342 -35.7160 -35.6823 -35.6811
   -35.6811 -35.6679 -35.6678 -35.6566 -35.6560 -35.6543 -35.6542 -35.6294
   -35.6003 -35.5831 -35.5827 -35.5827 -35.5765 -35.5765 -35.5678 -35.5397
   -35.5370 -35.5184 -35.5184 -35.5123 -35.5113 -35.4980 -35.4932 -35.4932
   -35.4865 -35.4805 -35.4805 -35.4800 -35.4597 -35.4597 -35.4524 -35.4512
    11.4795  12.3766  12.3766  13.0023  13.6996  13.9665  13.9665  14.1014
    14.1718  14.2505  14.2753  14.2753  14.3336  14.3336  14.4973  14.5329
    14.6327  14.6710  14.6711  14.9192  15.0835  15.1087  15.1701  15.1701
    15.1809  15.1809  15.2396  15.2782  15.3779  15.4347  15.6135  15.6194
    15.6195  15.6968  15.7539  15.7647  15.7647  15.7983  15.8116  15.8117
    15.8261  15.8343  15.8343  15.9104  15.9932  16.3011  16.3011  16.8217
    17.0654  17.0654  17.1233  17.1289  17.1739  17.1771  17.2776  17.2824
    17.3317  17.3317  17.3547  17.3595  17.3595  17.3717  17.3717  17.4297
    17.4371  17.4961  17.4961  17.5130  17.5469  17.5856  17.5856  17.6257
    17.6257  17.6675  17.7466  17.8012  18.0223  18.0223  18.0778  18.1548
    18.5388  18.5388  18.5962  18.6512  18.9861  19.7746  19.7746  20.8570
    21.2114  21.9809

          k = 0.1653 0.3856-0.4958 ( 12312 PWs)   bands (ev):

   -69.6241 -69.6238 -69.6106 -69.6103 -69.5907 -69.5904 -69.5857 -69.5854
   -69.5709 -69.5706 -69.5696 -69.5692 -69.5555 -69.5552 -69.5456 -69.5452
   -35.8095 -35.8095 -35.7959 -35.7958 -35.7899 -35.7898 -35.7890 -35.7888
   -35.7843 -35.7842 -35.7694 -35.7693 -35.7016 -35.7016 -35.7005 -35.7003
   -35.6712 -35.6711 -35.6701 -35.6699 -35.6590 -35.6589 -35.6338 -35.6338
   -35.6060 -35.6060 -35.5800 -35.5798 -35.5718 -35.5717 -35.5591 -35.5591
   -35.5281 -35.5278 -35.5014 -35.5013 -35.5008 -35.5006 -35.4952 -35.4950
   -35.4943 -35.4942 -35.4797 -35.4797 -35.4540 -35.4539 -35.4533 -35.4533
    11.9001  11.9001  12.6890  12.6891  13.8735  13.8736  14.1990  14.1991
    14.2388  14.2388  14.2726  14.2726  14.4560  14.4561  14.4621  14.4622
    14.5405  14.5406  14.9424  14.9425  15.0452  15.0453  15.0883  15.0883
    15.1149  15.1150  15.2252  15.2253  15.4823  15.4823  15.5756  15.5758
    15.6654  15.6656  15.6731  15.6732  15.6763  15.6764  15.7163  15.7164
    15.8653  15.8654  15.8679  15.8680  16.0452  16.0453  16.5379  16.5380
    17.1296  17.1297  17.1953  17.1954  17.2310  17.2311  17.2477  17.2478
    17.3384  17.3384  17.3654  17.3654  17.3779  17.3781  17.4140  17.4142
    17.4555  17.4557  17.4574  17.4576  17.5636  17.5638  17.5731  17.5733
    17.6296  17.6297  17.8531  17.8531  17.8821  17.8822  18.0406  18.0407
    18.5925  18.5925  18.6202  18.6202  19.3745  19.3745  20.3086  20.3086
    21.6261  21.6261

          k = 0.1653-0.4958-0.4958 ( 12316 PWs)   bands (ev):

   -69.6180 -69.6177 -69.6177 -69.6173 -69.5885 -69.5882 -69.5882 -69.5879
   -69.5702 -69.5699 -69.5699 -69.5696 -69.5502 -69.5499 -69.5499 -69.5495
   -35.8020 -35.8019 -35.8019 -35.8019 -35.7904 -35.7903 -35.7903 -35.7901
   -35.7766 -35.7765 -35.7765 -35.7763 -35.6873 -35.6871 -35.6871 -35.6868
   -35.6694 -35.6694 -35.6694 -35.6694 -35.6678 -35.6677 -35.6677 -35.6677
   -35.5822 -35.5822 -35.5822 -35.5822 -35.5756 -35.5756 -35.5756 -35.5756
   -35.5129 -35.5127 -35.5127 -35.5124 -35.4965 -35.4964 -35.4964 -35.4963
   -35.4875 -35.4874 -35.4874 -35.4872 -35.4516 -35.4515 -35.4515 -35.4515
    12.2781  12.2781  12.2781  12.2781  14.1177  14.1177  14.1177  14.1177
    14.2331  14.2331  14.2331  14.2332  14.5938  14.5939  14.5939  14.5939
    14.6928  14.6929  14.6929  14.6930  14.9937  14.9937  14.9937  14.9938
    15.1562  15.1563  15.1563  15.1563  15.5505  15.5507  15.5507  15.5509
    15.5614  15.5614  15.5614  15.5614  15.6598  15.6599  15.6599  15.6600
    15.8460  15.8461  15.8461  15.8463  16.2676  16.2677  16.2677  16.2677
    17.1985  17.1985  17.1985  17.1986  17.3032  17.3033  17.3033  17.3034
    17.3956  17.3957  17.3957  17.3958  17.3959  17.3960  17.3960  17.3962
    17.4163  17.4164  17.4164  17.4165  17.5954  17.5956  17.5956  17.5957
    17.6194  17.6194  17.6194  17.6194  17.9214  17.9214  17.9214  17.9215
    18.6319  18.6320  18.6320  18.6320  19.8346  19.8346  19.8346  19.8347
    22.1422  22.1422

          k = 0.2754 0.2754 0.2754 ( 12313 PWs)   bands (ev):

   -69.6388 -69.6076 -69.6076 -69.6075 -69.5912 -69.5912 -69.5911 -69.5816
   -69.5708 -69.5683 -69.5683 -69.5682 -69.5588 -69.5588 -69.5587 -69.5343
   -35.8264 -35.8263 -35.8263 -35.7898 -35.7898 -35.7898 -35.7792 -35.7792
   -35.7791 -35.7773 -35.7539 -35.7539 -35.7268 -35.7268 -35.6881 -35.6881
   -35.6881 -35.6724 -35.6724 -35.6724 -35.6525 -35.6432 -35.6432 -35.6431
   -35.5651 -35.5651 -35.5651 -35.5638 -35.5638 -35.5638 -35.5636 -35.5577
   -35.5577 -35.5352 -35.5352 -35.5352 -35.5063 -35.4950 -35.4950 -35.4950
   -35.4771 -35.4771 -35.4770 -35.4642 -35.4642 -35.4642 -35.4595 -35.4595
    11.0292  12.8318  12.8318  12.8318  13.6249  13.6249  13.6249  14.0025
    14.0025  14.1082  14.1082  14.1082  14.4503  14.4504  14.4504  14.6740
    14.6740  14.6740  14.6907  15.0412  15.0442  15.0442  15.1875  15.1875
    15.1875  15.3596  15.3596  15.3596  15.3673  15.3673  15.5824  15.5824
    15.5824  15.7940  15.7940  15.7941  15.8255  15.8255  15.8255  15.8957
    15.8957  16.1495  16.1496  16.1496  16.2054  16.2054  16.2054  16.9203
    16.9333  16.9333  16.9333  17.1231  17.2626  17.2626  17.2919  17.2919
    17.2919  17.3288  17.3288  17.3288  17.3710  17.3710  17.3710  17.4812
    17.4812  17.4812  17.5016  17.5016  17.5968  17.5968  17.5968  17.6196
    17.6196  17.9392  17.9392  17.9392  18.2715  18.2715  18.2715  18.3420
    18.3421  18.3421  18.3592  18.3592  19.1979  19.1979  19.1979  21.4278
    21.5681  21.5681

          k = 0.2754 0.2754 0.3856 ( 12307 PWs)   bands (ev):

   -69.6330 -69.6170 -69.6044 -69.6044 -69.5960 -69.5960 -69.5892 -69.5842
   -69.5698 -69.5685 -69.5651 -69.5650 -69.5604 -69.5603 -69.5509 -69.5385
   -35.8168 -35.8168 -35.8084 -35.7902 -35.7902 -35.7868 -35.7805 -35.7802
   -35.7667 -35.7660 -35.7660 -35.7577 -35.7390 -35.7130 -35.7130 -35.7071
   -35.6977 -35.6743 -35.6742 -35.6635 -35.6576 -35.6576 -35.6569 -35.6302
   -35.5927 -35.5855 -35.5663 -35.5633 -35.5537 -35.5537 -35.5440 -35.5440
   -35.5387 -35.5387 -35.5281 -35.5110 -35.5091 -35.5091 -35.4995 -35.4936
   -35.4808 -35.4729 -35.4716 -35.4715 -35.4673 -35.4646 -35.4646 -35.4583
    11.3742  12.3072  13.0589  13.0589  13.4889  13.4889  13.9167  14.1269
    14.1543  14.2377  14.2377  14.3212  14.4273  14.4586  14.4586  14.4703
    14.6624  14.6775  14.8268  14.8268  15.0629  15.1436  15.1948  15.2378
    15.2676  15.2676  15.2685  15.3916  15.3916  15.4774  15.4774  15.4986
    15.5998  15.5998  15.6886  15.7069  15.7070  15.7396  15.7470  15.8049
    15.8418  15.8624  15.9121  15.9121  15.9236  15.9236  16.2953  16.8097
    17.0064  17.0641  17.0641  17.1286  17.1863  17.2900  17.2900  17.3057
    17.3057  17.3385  17.3432  17.3432  17.3935  17.4051  17.4666  17.4874
    17.4980  17.4993  17.4993  17.5000  17.5661  17.5809  17.5869  17.5869
    17.6348  17.7170  18.0774  18.1057  18.2155  18.2155  18.2932  18.2932
    18.3695  18.3695  18.3746  18.4268  18.8501  18.8501  19.7215  20.8341
    21.9054  21.9054

          k = 0.2754 0.2754-0.4958 ( 12318 PWs)   bands (ev):

   -69.6258 -69.6255 -69.6007 -69.6006 -69.6004 -69.6003 -69.5870 -69.5867
   -69.5692 -69.5688 -69.5626 -69.5626 -69.5623 -69.5622 -69.5442 -69.5439
   -35.8038 -35.8038 -35.8038 -35.8038 -35.7852 -35.7849 -35.7838 -35.7836
   -35.7758 -35.7757 -35.7399 -35.7399 -35.7399 -35.7399 -35.7202 -35.7199
   -35.6857 -35.6855 -35.6687 -35.6687 -35.6685 -35.6685 -35.6244 -35.6244
   -35.6078 -35.6077 -35.5661 -35.5658 -35.5451 -35.5451 -35.5449 -35.5449
   -35.5255 -35.5255 -35.5255 -35.5254 -35.5026 -35.5023 -35.4953 -35.4952
   -35.4903 -35.4901 -35.4673 -35.4673 -35.4672 -35.4672 -35.4611 -35.4610
    11.8089  11.8089  13.2936  13.2936  13.2937  13.2937  14.2729  14.2730
    14.2851  14.2851  14.3109  14.3109  14.3625  14.3626  14.3626  14.3626
    14.5429  14.5430  15.0988  15.0990  15.1092  15.1092  15.1093  15.1093
    15.1548  15.1549  15.3715  15.3715  15.3716  15.3716  15.5442  15.5443
    15.6275  15.6276  15.7251  15.7251  15.7252  15.7252  15.7307  15.7307
    15.7308  15.7308  15.7517  15.7517  15.7731  15.7733  16.5238  16.5239
    17.0965  17.0966  17.1962  17.1962  17.1963  17.1963  17.3143  17.3143
    17.3144  17.3144  17.3515  17.3516  17.4286  17.4288  17.4326  17.4328
    17.4932  17.4933  17.5064  17.5066  17.5460  17.5460  17.5462  17.5462
    17.8319  17.8322  17.8668  17.8669  18.3418  18.3418  18.3418  18.3418
    18.4297  18.4298  18.5255  18.5256  18.5256  18.5256  20.2685  20.2686
    22.2039  22.2039

          k = 0.2754 0.3856 0.3856 ( 12314 PWs)   bands (ev):

   -69.6276 -69.6131 -69.6131 -69.6023 -69.6015 -69.5937 -69.5936 -69.5877
   -69.5680 -69.5657 -69.5657 -69.5616 -69.5604 -69.5533 -69.5532 -69.5423
   -35.8096 -35.8004 -35.8004 -35.7893 -35.7882 -35.7882 -35.7771 -35.7710
   -35.7690 -35.7690 -35.7612 -35.7403 -35.7363 -35.7304 -35.7140 -35.6990
   -35.6990 -35.6851 -35.6837 -35.6836 -35.6788 -35.6788 -35.6762 -35.6213
   -35.6076 -35.5639 -35.5639 -35.5533 -35.5532 -35.5524 -35.5402 -35.5375
   -35.5281 -35.5256 -35.5181 -35.5154 -35.5154 -35.5025 -35.5025 -35.4976
   -35.4798 -35.4794 -35.4794 -35.4744 -35.4652 -35.4652 -35.4630 -35.4608
    11.7060  12.5839  12.5839  13.2193  13.3093  13.7860  13.7860  14.2328
    14.3140  14.3344  14.4375  14.4375  14.4544  14.4545  14.4855  14.6505
    14.6733  14.6733  14.7471  14.7825  15.1121  15.1415  15.2089  15.2124
    15.2124  15.2340  15.2367  15.2367  15.3339  15.3781  15.4173  15.5324
    15.5325  15.5559  15.5559  15.5882  15.6047  15.6321  15.6321  15.6756
    15.6756  15.7053  15.7328  15.7528  15.7669  16.0219  16.0219  16.4972
    17.1168  17.1168  17.1493  17.2196  17.2945  17.3285  17.3369  17.3369
    17.3505  17.3645  17.4292  17.4292  17.4312  17.4389  17.4394  17.4865
    17.4865  17.4900  17.4959  17.4959  17.5434  17.5434  17.5605  17.6030
    17.7702  17.8954  17.8955  18.0023  18.1188  18.1188  18.1816  18.3756
    18.3756  18.3946  18.4161  18.5072  18.5604  19.3091  19.3091  20.2971
    22.3152  22.9384

          k = 0.2754 0.3856-0.4958 ( 12306 PWs)   bands (ev):

   -69.6211 -69.6208 -69.6083 -69.6079 -69.5980 -69.5977 -69.5910 -69.5907
   -69.5668 -69.5665 -69.5635 -69.5632 -69.5566 -69.5563 -69.5473 -69.5470
   -35.7991 -35.7991 -35.7930 -35.7929 -35.7807 -35.7807 -35.7804 -35.7801
   -35.7729 -35.7728 -35.7497 -35.7496 -35.7204 -35.7201 -35.7124 -35.7124
   -35.6997 -35.6996 -35.6909 -35.6907 -35.6869 -35.6868 -35.6524 -35.6524
   -35.5854 -35.5853 -35.5523 -35.5521 -35.5449 -35.5448 -35.5438 -35.5438
   -35.5245 -35.5243 -35.5139 -35.5138 -35.4985 -35.4984 -35.4982 -35.4980
   -35.4956 -35.4953 -35.4773 -35.4773 -35.4635 -35.4634 -35.4617 -35.4616
    12.1192  12.1192  12.9032  12.9032  13.5725  13.5725  14.1399  14.1400
    14.3432  14.3433  14.4015  14.4015  14.4996  14.4997  14.5871  14.5872
    14.6749  14.6750  14.9458  14.9459  15.0055  15.0056  15.1110  15.1110
    15.1569  15.1570  15.2939  15.2940  15.3802  15.3803  15.4312  15.4312
    15.4654  15.4655  15.5371  15.5373  15.5812  15.5813  15.6219  15.6219
    15.6712  15.6713  15.7065  15.7066  15.7853  15.7853  16.2228  16.2229
    17.1789  17.1789  17.2239  17.2240  17.2477  17.2478  17.3828  17.3830
    17.3945  17.3947  17.4474  17.4476  17.4493  17.4495  17.4555  17.4555
    17.4927  17.4928  17.5278  17.5279  17.5425  17.5427  17.6181  17.6182
    17.7755  17.7758  17.9107  17.9109  18.1354  18.1354  18.1935  18.1935
    18.4063  18.4064  18.4077  18.4078  18.9262  18.9263  19.7928  19.7929
    22.7083  22.7083

          k = 0.2754-0.4958-0.4958 ( 12308 PWs)   bands (ev):

   -69.6153 -69.6150 -69.6150 -69.6147 -69.5948 -69.5945 -69.5945 -69.5942
   -69.5651 -69.5648 -69.5648 -69.5644 -69.5516 -69.5513 -69.5513 -69.5510
   -35.7904 -35.7903 -35.7903 -35.7903 -35.7833 -35.7832 -35.7832 -35.7830
   -35.7611 -35.7610 -35.7610 -35.7609 -35.7092 -35.7090 -35.7090 -35.7088
   -35.6997 -35.6996 -35.6996 -35.6996 -35.6825 -35.6824 -35.6824 -35.6824
   -35.5639 -35.5638 -35.5638 -35.5638 -35.5464 -35.5464 -35.5464 -35.5464
   -35.5077 -35.5075 -35.5075 -35.5073 -35.5049 -35.5048 -35.5048 -35.5047
   -35.4886 -35.4885 -35.4885 -35.4884 -35.4619 -35.4618 -35.4618 -35.4618
    12.4963  12.4963  12.4963  12.4964  13.8815  13.8816  13.8816  13.8816
    14.3868  14.3868  14.3868  14.3868  14.7263  14.7263  14.7263  14.7264
    14.7744  14.7744  14.7744  14.7744  14.9398  14.9398  14.9398  14.9399
    15.2214  15.2214  15.2214  15.2214  15.3941  15.3942  15.3942  15.3944
    15.4805  15.4806  15.4806  15.4807  15.5115  15.5115  15.5115  15.5115
    15.6674  15.6675  15.6675  15.6676  15.9645  15.9646  15.9646  15.9647
    17.2344  17.2345  17.2345  17.2346  17.3157  17.3158  17.3158  17.3160
    17.3879  17.3881  17.3881  17.3883  17.5093  17.5094  17.5094  17.5096
    17.5382  17.5383  17.5383  17.5383  17.6163  17.6165  17.6165  17.6167
    17.8967  17.8967  17.8967  17.8968  17.9847  17.9848  17.9848  17.9849
    18.4210  18.4210  18.4210  18.4210  19.3496  19.3497  19.3497  19.3498
    23.2259  23.2259

          k = 0.3856 0.3856 0.3856 ( 12292 PWs)   bands (ev):

   -69.6227 -69.6094 -69.6094 -69.6094 -69.5995 -69.5995 -69.5994 -69.5919
   -69.5653 -69.5616 -69.5616 -69.5615 -69.5553 -69.5553 -69.5552 -69.5456
   -35.7922 -35.7921 -35.7921 -35.7829 -35.7829 -35.7829 -35.7684 -35.7553
   -35.7553 -35.7486 -35.7486 -35.7486 -35.7435 -35.7435 -35.7116 -35.7116
   -35.7116 -35.7040 -35.7040 -35.7040 -35.6993 -35.6993 -35.6993 -35.6472
   -35.5857 -35.5456 -35.5456 -35.5456 -35.5340 -35.5340 -35.5340 -35.5242
   -35.5242 -35.5152 -35.5152 -35.5151 -35.5144 -35.5143 -35.5143 -35.4999
   -35.4789 -35.4789 -35.4789 -35.4746 -35.4746 -35.4720 -35.4720 -35.4719
    12.0299  12.8708  12.8708  12.8708  13.5260  13.5260  13.5260  14.2558
    14.4046  14.4046  14.5592  14.5592  14.5592  14.6461  14.6461  14.6461
    14.6839  14.6839  14.6839  14.8860  15.1579  15.1579  15.1750  15.1750
    15.2226  15.2226  15.2226  15.2770  15.2770  15.2770  15.3694  15.3694
    15.3694  15.4717  15.4717  15.4717  15.5025  15.5025  15.5025  15.5352
    15.5352  15.5353  15.6387  15.6387  15.7529  15.7529  15.7529  16.1838
    17.1931  17.1931  17.1931  17.2905  17.2905  17.3319  17.3319  17.3319
    17.4356  17.4356  17.4408  17.4408  17.4408  17.4643  17.4643  17.4643
    17.5203  17.5203  17.5203  17.6264  17.6442  17.6442  17.6442  17.7406
    17.7406  18.1459  18.1459  18.1610  18.1611  18.1611  18.2136  18.2136
    18.2136  18.2337  18.2337  18.2337  18.9137  18.9137  18.9137  19.8035
    23.5513  23.5513

          k = 0.3856 0.3856-0.4958 ( 12348 PWs)   bands (ev):

   -69.6168 -69.6165 -69.6050 -69.6050 -69.6047 -69.6046 -69.5961 -69.5958
   -69.5633 -69.5630 -69.5583 -69.5583 -69.5580 -69.5579 -69.5501 -69.5498
   -35.7846 -35.7846 -35.7845 -35.7845 -35.7715 -35.7714 -35.7701 -35.7698
   -35.7586 -35.7584 -35.7355 -35.7352 -35.7265 -35.7265 -35.7264 -35.7264
   -35.7228 -35.7226 -35.7123 -35.7122 -35.7121 -35.7121 -35.6760 -35.6760
   -35.5648 -35.5647 -35.5298 -35.5297 -35.5290 -35.5290 -35.5289 -35.5289
   -35.5211 -35.5211 -35.5209 -35.5209 -35.5056 -35.5055 -35.4998 -35.4995
   -35.4932 -35.4929 -35.4770 -35.4770 -35.4770 -35.4770 -35.4722 -35.4721
    12.4293  12.4293  13.2025  13.2025  13.2026  13.2026  13.8923  13.8923
    14.5175  14.5176  14.5781  14.5782  14.6286  14.6286  14.6286  14.6286
    14.8133  14.8134  14.9412  14.9412  14.9413  14.9413  15.1600  15.1601
    15.2029  15.2029  15.2151  15.2153  15.2873  15.2873  15.3656  15.3656
    15.3656  15.3657  15.4742  15.4742  15.4743  15.4744  15.5251  15.5251
    15.5252  15.5252  15.5548  15.5549  15.5591  15.5593  15.9178  15.9179
    17.2432  17.2433  17.2750  17.2750  17.2751  17.2751  17.3735  17.3737
    17.3815  17.3817  17.4392  17.4393  17.4407  17.4407  17.4408  17.4408
    17.6178  17.6178  17.6178  17.6179  17.6551  17.6553  17.8861  17.8864
    17.9083  17.9083  17.9287  17.9289  18.1756  18.1756  18.1757  18.1757
    18.2232  18.2233  18.5537  18.5537  18.5537  18.5538  19.3470  19.3471
    23.8727  23.8727

          k = 0.3856-0.4958-0.4958 ( 12332 PWs)   bands (ev):

   -69.6115 -69.6112 -69.6112 -69.6108 -69.6009 -69.6007 -69.6007 -69.6003
   -69.5607 -69.5604 -69.5604 -69.5600 -69.5539 -69.5536 -69.5536 -69.5532
   -35.7738 -35.7737 -35.7737 -35.7737 -35.7706 -35.7704 -35.7704 -35.7702
   -35.7423 -35.7422 -35.7422 -35.7421 -35.7319 -35.7318 -35.7318 -35.7316
   -35.7277 -35.7276 -35.7276 -35.7276 -35.7014 -35.7013 -35.7013 -35.7013
   -35.5460 -35.5459 -35.5459 -35.5458 -35.5197 -35.5197 -35.5197 -35.5197
   -35.5161 -35.5160 -35.5160 -35.5160 -35.5019 -35.5018 -35.5018 -35.5015
   -35.4918 -35.4917 -35.4917 -35.4915 -35.4771 -35.4770 -35.4770 -35.4770
    12.8040  12.8041  12.8041  12.8041  13.5527  13.5528  13.5528  13.5528
    14.5968  14.5969  14.5969  14.5969  14.7721  14.7722  14.7722  14.7723
    14.8834  14.8834  14.8834  14.8835  14.9252  14.9252  14.9252  14.9252
    15.2937  15.2938  15.2938  15.2938  15.3063  15.3064  15.3064  15.3065
    15.3273  15.3274  15.3274  15.3275  15.4452  15.4452  15.4452  15.4452
    15.4950  15.4951  15.4951  15.4953  15.6614  15.6614  15.6614  15.6615
    17.2896  17.2897  17.2897  17.2898  17.3362  17.3363  17.3363  17.3365
    17.3751  17.3752  17.3752  17.3754  17.4314  17.4315  17.4315  17.4316
    17.7102  17.7103  17.7103  17.7103  17.7998  17.7999  17.7999  17.8001
    17.9888  17.9889  17.9889  17.9890  18.1726  18.1726  18.1726  18.1726
    18.2201  18.2202  18.2202  18.2202  18.9391  18.9392  18.9392  18.9393
    24.4032  24.4032

          k =-0.4958-0.4958-0.4958 ( 12400 PWs)   bands (ev):

   -69.6068 -69.6066 -69.6066 -69.6066 -69.6063 -69.6063 -69.6063 -69.6059
   -69.5570 -69.5567 -69.5567 -69.5567 -69.5564 -69.5564 -69.5564 -69.5560
   -35.7527 -35.7527 -35.7527 -35.7527 -35.7527 -35.7527 -35.7526 -35.7526
   -35.7524 -35.7524 -35.7524 -35.7524 -35.7524 -35.7522 -35.7522 -35.7522
   -35.7222 -35.7222 -35.7222 -35.7222 -35.7221 -35.7221 -35.7221 -35.7220
   -35.5298 -35.5297 -35.5297 -35.5297 -35.5296 -35.5296 -35.5296 -35.5296
   -35.4970 -35.4970 -35.4970 -35.4970 -35.4970 -35.4970 -35.4969 -35.4969
   -35.4967 -35.4967 -35.4967 -35.4967 -35.4967 -35.4965 -35.4965 -35.4965
    13.1722  13.1722  13.1722  13.1722  13.1722  13.1722  13.1722  13.1723
    14.8262  14.8262  14.8262  14.8263  14.8263  14.8263  14.8263  14.8263
    14.8263  14.8263  14.8263  14.8264  14.8264  14.8264  14.8264  14.8264
    15.3697  15.3697  15.3697  15.3697  15.3697  15.3697  15.3697  15.3697
    15.3699  15.3699  15.3699  15.3699  15.3699  15.3700  15.3700  15.3700
    15.3973  15.3974  15.3974  15.3974  15.3975  15.3975  15.3975  15.3975
    17.3569  17.3569  17.3569  17.3569  17.3569  17.3571  17.3571  17.3571
    17.3571  17.3571  17.3571  17.3572  17.3572  17.3572  17.3573  17.3573
    17.9267  17.9267  17.9267  17.9267  17.9267  17.9267  17.9268  17.9268
    17.9270  17.9270  17.9270  17.9270  17.9270  17.9271  17.9271  17.9271
    18.5677  18.5678  18.5678  18.5678  18.5679  18.5679  18.5679  18.5679
    25.5421  25.5421

 ------ SPIN DOWN ----------


          k = 0.0551 0.0551 0.0551 ( 12308 PWs)   bands (ev):

   -67.1287 -67.0543 -67.0543 -67.0543 -67.0425 -67.0425 -67.0425 -67.0413
   -67.0412 -67.0412 -67.0412 -67.0412 -67.0411 -67.0364 -67.0359 -66.9782
   -33.4218 -33.4218 -33.4218 -33.4197 -33.4197 -33.4197 -33.2910 -33.2910
   -33.2853 -33.2252 -33.2234 -33.2234 -33.2234 -33.2063 -33.2063 -33.1945
   -33.1945 -33.1945 -33.1656 -33.1656 -33.1458 -33.1340 -33.1340 -33.1340
   -33.1244 -33.1244 -33.1244 -33.1147 -33.1147 -33.1147 -33.1120 -33.1120
   -33.1119 -33.1046 -33.1046 -33.1046 -33.0958 -33.0958 -33.0958 -32.9637
   -32.9618 -32.9618 -32.9618 -32.9590 -32.9590 -32.9590 -32.9583 -32.9583
    10.0552  13.9389  13.9389  13.9389  14.5790  14.5790  14.5790  14.6505
    14.6505  14.6505  14.6916  14.6916  14.6916  15.3481  15.3481  16.3524
    16.4249  16.4249  16.5174  16.5174  16.5305  16.6278  16.6278  16.6278
    16.6401  16.6401  16.6401  17.3700  17.3700  17.3700  17.7390  17.7390
    17.7390  17.9078  17.9078  17.9527  18.1626  18.1626  18.1626  18.3083
    18.3083  18.3083  18.3394  18.3394  18.3394  18.4427  18.4427  18.4427
    18.7981  18.7981  18.7981  18.8360  18.8360  18.8360  19.1974  19.1974
    19.1975  19.4348  19.4348  19.4348  19.9020  19.9020  19.9020  19.9260
    19.9260  19.9260  20.0956  20.0956  20.3616  20.3616  20.3616  20.4043
    20.4043  20.4056  20.4056  20.4935  20.4935  20.4935  20.5622  20.6413
    20.6413  20.8951  20.8951  20.8951  20.9925  20.9925  20.9925  21.0369
    21.0369  21.0369

          k = 0.0551 0.0551 0.1653 ( 12315 PWs)   bands (ev):

   -67.1261 -67.0676 -67.0538 -67.0537 -67.0440 -67.0440 -67.0422 -67.0411
   -67.0411 -67.0408 -67.0405 -67.0405 -67.0367 -67.0361 -67.0285 -66.9801
   -33.4158 -33.4158 -33.4144 -33.4125 -33.4086 -33.4086 -33.2931 -33.2856
   -33.2771 -33.2551 -33.2490 -33.2490 -33.2468 -33.2461 -33.2212 -33.2212
   -33.1929 -33.1705 -33.1630 -33.1621 -33.1530 -33.1338 -33.1338 -33.1260
   -33.1191 -33.1176 -33.1176 -33.1162 -33.1150 -33.1098 -33.1098 -33.1051
   -33.1051 -33.1013 -33.1013 -33.0762 -33.0736 -33.0736 -33.0681 -32.9762
   -32.9693 -32.9693 -32.9679 -32.9660 -32.9632 -32.9618 -32.9618 -32.9605
    10.1848  13.2399  14.0092  14.0092  14.6195  14.6195  14.6363  14.6363
    14.7455  14.7457  14.7457  14.7850  15.0943  15.3937  15.4129  16.2609
    16.3340  16.3799  16.4479  16.6040  16.6153  16.6359  16.6634  16.6757
    16.6757  16.7128  16.7128  16.9821  17.2720  17.2720  17.5599  17.5599
    17.8818  17.9008  17.9433  17.9653  17.9653  18.0113  18.0289  18.1313
    18.1313  18.3849  18.4619  18.4619  18.5245  18.5245  18.5432  18.5499
    18.5499  18.5554  18.5595  18.5987  18.5987  18.6575  18.9655  19.4104
    19.4104  19.6429  19.6429  19.6705  19.8257  19.8257  19.8917  19.8917
    19.9279  19.9484  20.0202  20.1250  20.3644  20.3665  20.3693  20.3856
    20.4011  20.4037  20.4238  20.4447  20.4447  20.4983  20.6351  20.7097
    20.7195  20.7195  20.8941  20.8941  20.9086  20.9086  21.0777  21.0777
    21.2052  21.2052

          k = 0.0551 0.0551 0.2754 ( 12341 PWs)   bands (ev):

   -67.1208 -67.0807 -67.0528 -67.0528 -67.0457 -67.0457 -67.0415 -67.0408
   -67.0408 -67.0402 -67.0402 -67.0401 -67.0374 -67.0367 -67.0169 -66.9841
   -33.4013 -33.4013 -33.4003 -33.3986 -33.3894 -33.3894 -33.2940 -33.2892
   -33.2847 -33.2832 -33.2832 -33.2752 -33.2655 -33.2652 -33.2574 -33.2574
   -33.1910 -33.1808 -33.1807 -33.1665 -33.1323 -33.1323 -33.1278 -33.1265
   -33.1239 -33.1210 -33.1210 -33.1081 -33.1081 -33.1054 -33.1054 -33.0884
   -33.0824 -33.0727 -33.0727 -33.0495 -33.0466 -33.0466 -33.0419 -32.9949
   -32.9816 -32.9816 -32.9808 -32.9796 -32.9723 -32.9693 -32.9693 -32.9680
    10.4410  12.5409  14.1347  14.1347  14.5849  14.5849  14.7298  14.7298
    14.8067  14.8067  14.9281  14.9644  15.4354  15.4726  15.5413  16.0858
    16.1046  16.3752  16.3992  16.5607  16.5699  16.6109  16.7820  16.7820
    16.8343  16.8437  16.8437  16.8646  17.1763  17.1763  17.4053  17.4053
    17.6948  17.6948  17.8429  17.8429  17.8626  17.8909  17.9336  17.9367
    18.0294  18.0294  18.0917  18.0917  18.0998  18.1662  18.1741  18.7048
    18.7461  18.8218  18.8349  18.8349  18.8509  18.8509  18.9262  19.6987
    19.6987  19.7011  19.7011  19.7952  19.7952  19.8722  19.8970  19.9219
    19.9219  19.9771  19.9941  20.1197  20.1823  20.2432  20.2992  20.3040
    20.3696  20.3918  20.3956  20.3991  20.5536  20.5536  20.5661  20.5735
    20.7594  20.7594  20.8069  20.8069  20.8896  20.8896  21.1976  21.1976
    21.2501  21.2501

          k = 0.0551 0.0551 0.3856 ( 12344 PWs)   bands (ev):

   -67.1133 -67.0929 -67.0513 -67.0513 -67.0477 -67.0477 -67.0406 -67.0404
   -67.0404 -67.0401 -67.0401 -67.0394 -67.0384 -67.0375 -67.0063 -66.9898
   -33.3793 -33.3792 -33.3792 -33.3784 -33.3632 -33.3632 -33.3223 -33.3206
   -33.3179 -33.3179 -33.2948 -33.2948 -33.2922 -33.2784 -33.2599 -33.2495
   -33.2171 -33.2065 -33.1675 -33.1578 -33.1399 -33.1347 -33.1301 -33.1301
   -33.1242 -33.1242 -33.1072 -33.1071 -33.1057 -33.1057 -33.0901 -33.0544
   -33.0508 -33.0446 -33.0446 -33.0250 -33.0219 -33.0209 -33.0209 -33.0180
   -32.9991 -32.9991 -32.9984 -32.9983 -32.9858 -32.9819 -32.9819 -32.9803
    10.8173  11.8852  14.2860  14.2860  14.5261  14.5261  14.8203  14.8203
    14.8559  14.8559  15.1832  15.2140  15.5613  15.5976  15.7302  15.8073
    15.8154  16.2720  16.4015  16.4112  16.5057  16.5129  16.9422  16.9422
    17.0273  17.0273  17.0930  17.1221  17.1697  17.1697  17.3275  17.3275
    17.4458  17.4458  17.5514  17.5514  17.6276  17.6276  17.7104  17.7104
    17.7704  17.7898  17.8522  17.8814  17.8831  17.9006  18.2185  18.5449
    19.0569  19.0873  19.0873  19.1240  19.1482  19.1482  19.2373  19.5326
[...]
   -32.9924 -32.9924 -32.9924 -32.9785 -32.9785 -32.9785 -32.9729 -32.9729
    11.1805  13.1204  13.1204  13.1204  14.3667  14.3667  14.3667  15.4548
    15.4548  15.4548  15.7404  15.7404  15.7404  15.7577  15.8075  15.8075
    16.0583  16.4917  16.4917  16.5465  16.5465  16.5465  16.7198  16.7198
    16.7520  16.7520  16.7520  16.9342  16.9342  16.9342  17.3251  17.3251
    17.3251  17.3444  17.3444  17.3444  17.3658  17.3658  17.3658  17.3883
    17.3883  17.3883  17.6026  17.6026  17.8227  17.8227  17.8227  18.7251
    18.8312  19.2539  19.2539  19.2540  19.3462  19.3462  19.3462  19.6052
    19.6052  19.6052  19.6707  19.6707  19.6707  19.9111  19.9111  19.9111
    19.9887  19.9887  20.1932  20.1932  20.2672  20.2672  20.2929  20.2929
    20.2929  20.3123  20.3123  20.3123  20.3199  20.3199  20.4690  20.4690
    20.4690  20.5226  20.5226  20.5226  20.9497  20.9497  20.9497  22.8784
    22.9974  22.9974

          k = 0.2754 0.2754 0.3856 ( 12307 PWs)   bands (ev):

   -67.1006 -67.0834 -67.0697 -67.0697 -67.0606 -67.0606 -67.0532 -67.0478
   -67.0320 -67.0307 -67.0271 -67.0271 -67.0220 -67.0220 -67.0117 -66.9984
   -33.3678 -33.3678 -33.3586 -33.3382 -33.3382 -33.3351 -33.3279 -33.3268
   -33.3122 -33.3122 -33.3113 -33.3026 -33.2804 -33.2537 -33.2537 -33.2464
   -33.2349 -33.2092 -33.2092 -33.1977 -33.1917 -33.1908 -33.1908 -33.1605
   -33.1206 -33.1114 -33.0904 -33.0877 -33.0764 -33.0764 -33.0658 -33.0658
   -33.0600 -33.0600 -33.0490 -33.0296 -33.0275 -33.0275 -33.0170 -33.0105
   -32.9968 -32.9876 -32.9864 -32.9864 -32.9816 -32.9789 -32.9789 -32.9716
    11.5346  12.5251  13.3905  13.3905  14.0490  14.0491  14.6625  15.4095
    15.6313  15.6313  15.6688  15.8145  15.8145  15.9141  15.9380  15.9486
    16.0382  16.3298  16.5430  16.5810  16.5810  16.6143  16.6354  16.6841
    16.7868  16.8501  16.8501  16.8672  16.9795  16.9795  17.0858  17.1530
    17.1530  17.1824  17.1824  17.1971  17.2557  17.2557  17.2797  17.2797
    17.3755  17.4065  17.4908  17.5461  17.5719  17.5719  17.9493  18.4735
    18.9442  19.3505  19.3505  19.4264  19.4692  19.5073  19.5073  19.5230
    19.5230  19.5263  19.7603  19.8409  19.8409  19.8623  19.9618  19.9618
    19.9861  20.0320  20.0670  20.0881  20.1764  20.2142  20.2768  20.2768
    20.2807  20.2925  20.3261  20.3663  20.3663  20.3695  20.3881  20.4103
    20.4408  20.4408  20.5029  20.5029  20.6597  20.6597  21.3995  22.3729
    23.2885  23.2885

          k = 0.2754 0.2754-0.4958 ( 12318 PWs)   bands (ev):

   -67.0928 -67.0926 -67.0656 -67.0655 -67.0654 -67.0654 -67.0507 -67.0506
   -67.0313 -67.0312 -67.0243 -67.0243 -67.0241 -67.0241 -67.0045 -67.0043
   -33.3534 -33.3534 -33.3533 -33.3533 -33.3329 -33.3327 -33.3316 -33.3315
   -33.3216 -33.3216 -33.2834 -33.2834 -33.2833 -33.2833 -33.2597 -33.2595
   -33.2224 -33.2223 -33.2031 -33.2031 -33.2030 -33.2029 -33.1557 -33.1557
   -33.1359 -33.1358 -33.0904 -33.0903 -33.0669 -33.0669 -33.0668 -33.0668
   -33.0455 -33.0455 -33.0454 -33.0454 -33.0207 -33.0206 -33.0123 -33.0122
   -33.0068 -33.0066 -32.9817 -32.9817 -32.9817 -32.9817 -32.9747 -32.9747
    11.9886  11.9887  13.7115  13.7115  13.7116  13.7116  15.0223  15.0225
    15.7697  15.7697  15.7697  15.7697  15.8904  15.8906  15.9798  15.9799
    16.1260  16.1261  16.6105  16.6107  16.6653  16.6655  16.7495  16.7495
    16.7496  16.7496  16.8253  16.8254  16.9865  16.9865  16.9865  16.9866
    17.0317  17.0317  17.2293  17.2294  17.2295  17.2295  17.3451  17.3451
    17.3451  17.3451  17.4114  17.4115  17.4795  17.4797  18.1673  18.1674
    19.1801  19.1801  19.4252  19.4252  19.4252  19.4252  19.6991  19.6991
    19.6991  19.6992  19.7042  19.7043  19.7370  19.7371  19.9193  19.9194
    20.0781  20.0781  20.2024  20.2024  20.2090  20.2090  20.2090  20.2091
    20.2690  20.2690  20.2888  20.2889  20.4280  20.4281  20.4429  20.4429
    20.4429  20.4429  20.4578  20.4578  20.4578  20.4578  21.8803  21.8803
    23.5195  23.5195

          k = 0.2754 0.3856 0.3856 ( 12314 PWs)   bands (ev):

   -67.0949 -67.0791 -67.0791 -67.0674 -67.0665 -67.0580 -67.0580 -67.0515
   -67.0302 -67.0277 -67.0277 -67.0233 -67.0220 -67.0143 -67.0143 -67.0024
   -33.3596 -33.3496 -33.3496 -33.3372 -33.3357 -33.3357 -33.3242 -33.3162
   -33.3154 -33.3154 -33.3063 -33.2839 -33.2776 -33.2728 -33.2540 -33.2365
   -33.2365 -33.2214 -33.2212 -33.2212 -33.2146 -33.2146 -33.2114 -33.1522
   -33.1356 -33.0876 -33.0876 -33.0761 -33.0761 -33.0756 -33.0618 -33.0585
   -33.0483 -33.0456 -33.0379 -33.0344 -33.0344 -33.0202 -33.0202 -33.0149
   -32.9953 -32.9952 -32.9952 -32.9895 -32.9794 -32.9794 -32.9771 -32.9744
    11.8779  12.8282  12.8282  13.6211  13.6684  14.3445  14.3445  15.0773
    15.8328  15.8416  15.8416  15.9604  16.0226  16.0227  16.0240  16.0743
    16.1162  16.4098  16.4098  16.5344  16.6190  16.6283  16.6480  16.7746
    16.7746  16.8015  16.8015  16.8509  16.8584  16.9298  17.0149  17.0149
    17.0370  17.0669  17.0669  17.1197  17.2059  17.2060  17.2073  17.2253
    17.3113  17.3113  17.3555  17.3779  17.4550  17.6482  17.6482  18.1178
    19.1889  19.4753  19.5040  19.5040  19.5064  19.6599  19.6638  19.6638
    19.6898  19.6898  19.7190  19.7190  19.8612  19.8887  19.9257  19.9257
    19.9357  20.0010  20.0703  20.1241  20.1802  20.2015  20.2275  20.2590
    20.2753  20.2753  20.2787  20.2788  20.3080  20.3321  20.3405  20.3405
    20.3840  20.4089  20.4089  20.4988  20.5039  21.0557  21.0557  21.9199
    23.6590  24.1434

          k = 0.2754 0.3856-0.4958 ( 12306 PWs)   bands (ev):

   -67.0877 -67.0876 -67.0738 -67.0737 -67.0627 -67.0625 -67.0550 -67.0548
   -67.0288 -67.0287 -67.0253 -67.0251 -67.0178 -67.0177 -67.0078 -67.0077
   -33.3479 -33.3479 -33.3413 -33.3412 -33.3275 -33.3273 -33.3272 -33.3272
   -33.3196 -33.3195 -33.2941 -33.2940 -33.2600 -33.2598 -33.2530 -33.2529
   -33.2379 -33.2379 -33.2275 -33.2274 -33.2235 -33.2234 -33.1867 -33.1867
   -33.1112 -33.1111 -33.0753 -33.0752 -33.0670 -33.0669 -33.0656 -33.0655
   -33.0443 -33.0442 -33.0326 -33.0326 -33.0159 -33.0158 -33.0157 -33.0156
   -33.0125 -33.0123 -32.9928 -32.9928 -32.9775 -32.9775 -32.9754 -32.9754
    12.3153  12.3154  13.2027  13.2028  13.9990  13.9991  14.7010  14.7011
    15.9709  15.9710  15.9760  15.9760  16.0444  16.0446  16.0784  16.0785
    16.2381  16.2382  16.6122  16.6123  16.6263  16.6264  16.6522  16.6523
    16.6939  16.6940  16.8003  16.8004  16.8978  16.8979  16.9486  16.9486
    17.0289  17.0291  17.0493  17.0494  17.1705  17.1705  17.2480  17.2481
    17.2751  17.2751  17.3784  17.3786  17.3950  17.3950  17.8282  17.8282
    19.4492  19.4492  19.4833  19.4833  19.6132  19.6132  19.7130  19.7132
    19.7947  19.7947  19.8007  19.8008  19.8042  19.8043  19.8628  19.8629
    20.0178  20.0178  20.0261  20.0262  20.1557  20.1557  20.2293  20.2294
    20.2365  20.2366  20.2669  20.2670  20.2739  20.2740  20.3084  20.3085
    20.4152  20.4153  20.4651  20.4651  20.7357  20.7358  21.4821  21.4822
    23.9910  23.9910

          k = 0.2754-0.4958-0.4958 ( 12308 PWs)   bands (ev):

   -67.0814 -67.0812 -67.0812 -67.0811 -67.0591 -67.0590 -67.0590 -67.0588
   -67.0269 -67.0268 -67.0268 -67.0266 -67.0124 -67.0122 -67.0122 -67.0121
   -33.3380 -33.3380 -33.3380 -33.3379 -33.3306 -33.3305 -33.3305 -33.3304
   -33.3066 -33.3065 -33.3065 -33.3064 -33.2477 -33.2475 -33.2475 -33.2474
   -33.2378 -33.2378 -33.2378 -33.2378 -33.2199 -33.2199 -33.2199 -33.2198
   -33.0876 -33.0875 -33.0875 -33.0874 -33.0688 -33.0688 -33.0688 -33.0688
   -33.0259 -33.0257 -33.0257 -33.0256 -33.0228 -33.0227 -33.0227 -33.0226
   -33.0053 -33.0051 -33.0051 -33.0050 -32.9757 -32.9756 -32.9756 -32.9756
    12.7275  12.7276  12.7276  12.7277  14.3425  14.3426  14.3426  14.3426
    16.0762  16.0763  16.0763  16.0763  16.1099  16.1099  16.1099  16.1100
    16.4274  16.4275  16.4275  16.4276  16.5614  16.5614  16.5614  16.5615
    16.8001  16.8002  16.8002  16.8002  16.8700  16.8701  16.8701  16.8703
    17.0258  17.0259  17.0259  17.0259  17.1449  17.1449  17.1449  17.1449
    17.3023  17.3024  17.3024  17.3025  17.5571  17.5571  17.5571  17.5571
    19.5937  19.5938  19.5938  19.5938  19.7332  19.7333  19.7333  19.7333
    19.7652  19.7652  19.7652  19.7653  19.8458  19.8458  19.8458  19.8459
    19.9218  19.9219  19.9219  19.9220  20.1516  20.1517  20.1517  20.1518
    20.2340  20.2340  20.2340  20.2340  20.2721  20.2722  20.2722  20.2723
    20.4505  20.4505  20.4505  20.4506  21.0997  21.0998  21.0998  21.0998
    24.4575  24.4575

          k = 0.3856 0.3856 0.3856 ( 12292 PWs)   bands (ev):

   -67.0895 -67.0752 -67.0752 -67.0752 -67.0643 -67.0643 -67.0643 -67.0562
   -67.0273 -67.0232 -67.0232 -67.0232 -67.0165 -67.0165 -67.0165 -67.0060
   -33.3403 -33.3403 -33.3403 -33.3299 -33.3299 -33.3299 -33.3147 -33.2989
   -33.2989 -33.2929 -33.2929 -33.2929 -33.2866 -33.2866 -33.2506 -33.2506
   -33.2506 -33.2437 -33.2437 -33.2436 -33.2372 -33.2372 -33.2372 -33.1809
   -33.1114 -33.0674 -33.0674 -33.0674 -33.0550 -33.0550 -33.0550 -33.0445
   -33.0445 -33.0342 -33.0342 -33.0342 -33.0332 -33.0332 -33.0332 -33.0173
   -32.9946 -32.9946 -32.9945 -32.9896 -32.9896 -32.9868 -32.9868 -32.9868
    12.2132  13.1326  13.1326  13.1326  13.9242  13.9242  13.9242  14.6957
    16.0499  16.0499  16.0499  16.1687  16.1687  16.2018  16.2018  16.2018
    16.2918  16.4084  16.4084  16.4084  16.6881  16.6881  16.6899  16.6899
    16.8124  16.8124  16.8124  16.8538  16.8538  16.8539  16.9395  16.9395
    16.9395  17.0058  17.0058  17.0058  17.1246  17.1246  17.1246  17.1279
    17.1279  17.1279  17.3042  17.3042  17.3450  17.3450  17.3450  17.7531
    19.4554  19.6591  19.6591  19.6591  19.6935  19.6935  19.6935  19.7805
    19.7805  19.7805  19.9484  19.9484  19.9484  19.9937  19.9937  20.0177
    20.0177  20.0177  20.0535  20.0535  20.1239  20.1239  20.1617  20.1617
    20.2139  20.2139  20.2139  20.2530  20.2530  20.2530  20.2966  20.2967
    20.2967  20.3093  20.3093  20.3093  20.7001  20.7001  20.7001  21.4971
    24.7308  24.7308

          k = 0.3856 0.3856-0.4958 ( 12348 PWs)   bands (ev):

   -67.0831 -67.0829 -67.0703 -67.0702 -67.0701 -67.0701 -67.0606 -67.0605
   -67.0251 -67.0249 -67.0196 -67.0196 -67.0195 -67.0194 -67.0108 -67.0106
   -33.3318 -33.3318 -33.3318 -33.3318 -33.3170 -33.3170 -33.3159 -33.3157
   -33.3038 -33.3037 -33.2769 -33.2768 -33.2684 -33.2684 -33.2684 -33.2683
   -33.2634 -33.2633 -33.2514 -33.2514 -33.2513 -33.2513 -33.2127 -33.2127
   -33.0884 -33.0884 -33.0505 -33.0505 -33.0492 -33.0491 -33.0491 -33.0491
   -33.0408 -33.0408 -33.0406 -33.0406 -33.0235 -33.0234 -33.0175 -33.0174
   -33.0100 -33.0098 -32.9924 -32.9924 -32.9924 -32.9924 -32.9870 -32.9870
    12.6382  12.6383  13.5077  13.5077  13.5078  13.5078  14.2942  14.2943
    16.1990  16.1990  16.1990  16.1990  16.2636  16.2637  16.2696  16.2698
    16.2831  16.2832  16.5743  16.5743  16.5744  16.5744  16.7069  16.7070
    16.7540  16.7540  16.7694  16.7696  16.8161  16.8162  16.9698  16.9699
    16.9699  16.9699  17.0511  17.0512  17.0513  17.0513  17.0974  17.0975
    17.0975  17.0975  17.1886  17.1887  17.2183  17.2185  17.4700  17.4700
    19.7053  19.7053  19.7053  19.7053  19.7381  19.7381  19.8715  19.8717
    19.8904  19.8905  19.8914  19.8914  19.8915  19.8915  19.8949  19.8950
    20.0528  20.0528  20.1136  20.1137  20.1555  20.1555  20.1918  20.1919
    20.1921  20.1921  20.1922  20.1922  20.2415  20.2416  20.2753  20.2753
    20.2753  20.2753  20.3753  20.3754  20.3754  20.3754  21.0929  21.0929
    25.0166  25.0166

          k = 0.3856-0.4958-0.4958 ( 12332 PWs)   bands (ev):

   -67.0772 -67.0771 -67.0771 -67.0770 -67.0657 -67.0656 -67.0656 -67.0655
   -67.0221 -67.0219 -67.0219 -67.0218 -67.0147 -67.0146 -67.0146 -67.0145
   -33.3197 -33.3196 -33.3196 -33.3196 -33.3163 -33.3162 -33.3162 -33.3160
   -33.2858 -33.2858 -33.2858 -33.2857 -33.2731 -33.2730 -33.2730 -33.2728
   -33.2687 -33.2687 -33.2687 -33.2687 -33.2408 -33.2407 -33.2407 -33.2406
   -33.0678 -33.0677 -33.0677 -33.0676 -33.0395 -33.0394 -33.0394 -33.0394
   -33.0350 -33.0349 -33.0349 -33.0348 -33.0197 -33.0195 -33.0195 -33.0194
   -33.0087 -33.0086 -33.0086 -33.0084 -32.9924 -32.9924 -32.9924 -32.9923
    13.0436  13.0437  13.0437  13.0437  13.8822  13.8823  13.8823  13.8824
    16.2873  16.2873  16.2873  16.2874  16.4056  16.4056  16.4056  16.4057
    16.4602  16.4603  16.4603  16.4604  16.5299  16.5300  16.5300  16.5301
    16.8581  16.8581  16.8581  16.8581  16.8844  16.8844  16.8844  16.8845
    16.8869  16.8871  16.8871  16.8872  17.0655  17.0655  17.0655  17.0656
    17.1214  17.1215  17.1215  17.1217  17.1898  17.1898  17.1899  17.1899
    19.8319  19.8320  19.8320  19.8320  19.8620  19.8620  19.8620  19.8621
    19.9444  19.9445  19.9445  19.9446  19.9953  19.9954  19.9954  19.9955
    20.0459  20.0460  20.0460  20.0460  20.1127  20.1128  20.1128  20.1129
    20.1484  20.1484  20.1484  20.1485  20.1762  20.1763  20.1763  20.1764
    20.2219  20.2219  20.2219  20.2220  20.7254  20.7254  20.7254  20.7255
    25.5203  25.5204

          k =-0.4958-0.4958-0.4958 ( 12400 PWs)   bands (ev):

   -67.0722 -67.0720 -67.0720 -67.0720 -67.0719 -67.0719 -67.0719 -67.0717
   -67.0180 -67.0179 -67.0179 -67.0179 -67.0177 -67.0177 -67.0177 -67.0176
   -33.2963 -33.2963 -33.2963 -33.2963 -33.2963 -33.2962 -33.2962 -33.2962
   -33.2961 -33.2961 -33.2961 -33.2961 -33.2961 -33.2960 -33.2960 -33.2960
   -33.2637 -33.2637 -33.2637 -33.2637 -33.2635 -33.2635 -33.2635 -33.2635
   -33.0500 -33.0499 -33.0499 -33.0499 -33.0498 -33.0498 -33.0498 -33.0498
   -33.0143 -33.0143 -33.0143 -33.0143 -33.0143 -33.0142 -33.0142 -33.0142
   -33.0142 -33.0142 -33.0142 -33.0141 -33.0141 -33.0140 -33.0140 -33.0140
    13.4373  13.4375  13.4375  13.4375  13.4376  13.4376  13.4376  13.4376
    16.4958  16.4958  16.4959  16.4959  16.4959  16.4959  16.4959  16.4959
    16.4960  16.4960  16.4960  16.4960  16.4960  16.4960  16.4961  16.4961
    16.8674  16.8674  16.8674  16.8674  16.8674  16.8674  16.8674  16.8674
    16.9750  16.9750  16.9750  16.9751  16.9751  16.9751  16.9751  16.9751
    16.9752  16.9752  16.9753  16.9753  16.9753  16.9754  16.9754  16.9754
    20.0175  20.0175  20.0175  20.0176  20.0176  20.0176  20.0177  20.0177
    20.0177  20.0177  20.0177  20.0177  20.0177  20.0178  20.0178  20.0178
    20.0598  20.0598  20.0599  20.0599  20.0599  20.0599  20.0599  20.0599
    20.0599  20.0599  20.0599  20.0600  20.0600  20.0600  20.0601  20.0601
    20.3781  20.3781  20.3781  20.3781  20.3782  20.3782  20.3782  20.3782
    26.5810  26.5810

     the Fermi energy is    18.3687 ev

!    total energy              =   -5268.19298342 Ry
     Harris-Foulkes estimate   =   -5268.19298194 Ry
     estimated scf accuracy    <       0.00000056 Ry

     total all-electron energy =    -40728.937512 Ry

     The total energy is the sum of the following terms:

     one-electron contribution =   -1745.33548768 Ry
     hartree contribution      =    1035.98413665 Ry
     xc contribution           =    -443.99917926 Ry
     ewald contribution        =   -2790.31301404 Ry
     one-center paw contrib.   =   -1324.66464709 Ry
     smearing contrib. (-TS)   =       0.13520802 Ry

     total magnetization       =    33.42 Bohr mag/cell
     absolute magnetization    =    35.31 Bohr mag/cell

     convergence has been achieved in  18 iterations

     negative rho (up, down):  0.000E+00 2.642E-03

     Forces acting on atoms (cartesian axes, Ry/au):

     atom    1 type  1   force =     0.00000000   -0.00000000   -0.00000000
     atom    2 type  2   force =    -0.00000238   -0.00000238   -0.00000238
     atom    3 type  1   force =     0.00000000    0.00000000    0.00000000
     atom    4 type  2   force =    -0.00000238   -0.00000238    0.00000238
     atom    5 type  1   force =     0.00000000    0.00000000    0.00000000
     atom    6 type  2   force =    -0.00000238    0.00000238   -0.00000238
     atom    7 type  1   force =     0.00000000    0.00000000    0.00000000
     atom    8 type  2   force =    -0.00000238    0.00000238    0.00000238
     atom    9 type  1   force =     0.00000000    0.00000000    0.00000000
     atom   10 type  2   force =     0.00000238   -0.00000238   -0.00000238
     atom   11 type  1   force =     0.00000000    0.00000000    0.00000000
     atom   12 type  2   force =     0.00000238   -0.00000238    0.00000238
     atom   13 type  1   force =     0.00000000    0.00000000    0.00000000
     atom   14 type  2   force =     0.00000238    0.00000238   -0.00000238
     atom   15 type  1   force =     0.00000000    0.00000000    0.00000000
     atom   16 type  2   force =     0.00000238    0.00000238    0.00000238

     Total force =     0.000012     Total SCF correction =     0.002488
     SCF correction compared to forces is large: reduce conv_thr to get better values


     Computing stress (Cartesian axis) and pressure


     negative rho (up, down):  0.000E+00 2.642E-03
          total   stress  (Ry/bohr**3)                   (kbar)     P=  -57.35
  -0.00038983   0.00000000   0.00000000        -57.35      0.00      0.00
   0.00000000  -0.00038983   0.00000000          0.00    -57.35      0.00
   0.00000000   0.00000000  -0.00038983          0.00      0.00    -57.35


     Writing output data file SOUGqdSMwXwihuzJ.save/
 
     init_run     :      7.40s CPU      7.68s WALL (       1 calls)
     electrons    :    457.69s CPU    468.84s WALL (       1 calls)
     forces       :      2.37s CPU      2.54s WALL (       1 calls)
     stress       :      9.78s CPU      9.85s WALL (       1 calls)

     Called by init_run:
     wfcinit      :      6.77s CPU      7.01s WALL (       1 calls)
     potinit      :      0.29s CPU      0.31s WALL (       1 calls)
     hinit0       :      0.15s CPU      0.16s WALL (       1 calls)

     Called by electrons:
     c_bands      :    407.05s CPU    415.77s WALL (      19 calls)
     sum_band     :     44.62s CPU     46.54s WALL (      19 calls)
     v_of_rho     :      0.45s CPU      0.49s WALL (      19 calls)
     newd         :      1.00s CPU      1.20s WALL (      19 calls)
     PAW_pot      :      4.69s CPU      4.92s WALL (      19 calls)
     mix_rho      :      0.12s CPU      0.13s WALL (      19 calls)

     Called by c_bands:
     init_us_2    :      2.83s CPU      2.87s WALL (    2870 calls)
     cegterg      :    391.05s CPU    399.62s WALL (    1330 calls)

     Called by sum_band:
     sum_band:bec :      0.48s CPU      0.48s WALL (    1330 calls)
     addusdens    :      1.83s CPU      2.09s WALL (      19 calls)

     Called by *egterg:
     h_psi        :    175.30s CPU    180.87s WALL (    4477 calls)
     s_psi        :     12.43s CPU     12.48s WALL (    4477 calls)
     g_psi        :      0.61s CPU      0.61s WALL (    3077 calls)
     cdiaghg      :    159.96s CPU    160.39s WALL (    4337 calls)

     Called by h_psi:
     h_psi:pot    :    174.10s CPU    179.66s WALL (    4477 calls)
     h_psi:calbec :     14.44s CPU     15.98s WALL (    4477 calls)
     vloc_psi     :    146.85s CPU    150.82s WALL (    4477 calls)
     add_vuspsi   :     12.78s CPU     12.83s WALL (    4477 calls)

     General routines
     calbec       :     22.25s CPU     24.64s WALL (    6157 calls)
     fft          :      0.35s CPU      0.39s WALL (     517 calls)
     ffts         :      0.03s CPU      0.04s WALL (      76 calls)
     fftw         :    167.96s CPU    172.48s WALL ( 1132992 calls)
     interpolate  :      0.04s CPU      0.05s WALL (      38 calls)
 
     Parallel routines
     fft_scatt_xy :     13.78s CPU     14.15s WALL ( 1133585 calls)
     fft_scatt_yz :     96.69s CPU     99.35s WALL ( 1133585 calls)
 
     PWSCF        :  8m 0.69s CPU     8m20.60s WALL

 
   This run was terminated on:   1:14: 2  14Jun2020            

=------------------------------------------------------------------------------=
   JOB DONE.
=------------------------------------------------------------------------------=
