--------------------------------------------------------------------------
WARNING: No preset parameters were found for the device that Open MPI
detected:

  Local host:            bear-pg0206u36b
  Device name:           mlx5_0
  Device vendor ID:      0x02c9
  Device vendor part ID: 4123

Default device parameters will be used, which may result in lower
performance.  You can edit any of the files specified by the
btl_openib_device_param_files MCA parameter to set values for your
device.

NOTE: You can turn off this warning by setting the MCA parameter
      btl_openib_warn_no_device_params_found to 0.
--------------------------------------------------------------------------
--------------------------------------------------------------------------
WARNING: There was an error initializing an OpenFabrics device.

  Local host:   bear-pg0206u36b
  Local device: mlx5_0
--------------------------------------------------------------------------

     Program PWSCF v.6.3 starts on 13Jun2020 at 22:48:25 

     This program is part of the open-source Quantum ESPRESSO suite
     for quantum simulation of materials; please cite
         "P. Giannozzi et al., J. Phys.:Condens. Matter 21 395502 (2009);
         "P. Giannozzi et al., J. Phys.:Condens. Matter 29 465901 (2017);
          URL http://www.quantum-espresso.org", 
     in publications or presentations arising from this work. More details at
     http://www.quantum-espresso.org/quote

     Parallel version (MPI & OpenMP), running on      20 processor cores
     Number of MPI processes:                20
     Threads/MPI process:                     1

     MPI processes distributed on     1 nodes
     R & G space division:  proc/nbgrp/npool/nimage =      20
     Reading input from wd/eos/eos_007.in
Warning: card &IONS ignored
Warning: card ION_DYNAMICS = 'BFGS', ignored
Warning: card / ignored
Warning: card &CELL ignored
Warning: card CELL_DYNAMICS = 'BFGS', ignored
Warning: card CELL_FACTOR = 2.0, ignored
Warning: card PRESS = 0.0, ignored
Warning: card / ignored

     Current dimensions of program PWSCF are:
     Max number of different atomic species (ntypx) = 10
     Max number of k-points (npk) =  40000
     Max angular momentum in pseudopotentials (lmaxx) =  3
               file Fe.pbe-spn-kjpaw_psl.1.0.0.UPF: wavefunction(s)  3P 3D renormalized
               file Fe.pbe-spn-kjpaw_psl.1.0.0.UPF: wavefunction(s)  3P 3D renormalized

     Subspace diagonalization in iterative solution of the eigenvalue problem:
     a serial algorithm will be used

     Found symmetry operation: I + (  0.0000  0.0000 -0.5000)
     This is a supercell, fractional translations are disabled
 
     Parallelization info
     --------------------
     sticks:   dense  smooth     PW     G-vecs:    dense   smooth      PW
     Min         190     126     35                 8874     4758     707
     Max         191     127     37                 8879     4761     709
     Sum        3809    2537    709               177509    95193   14147
 


     bravais-lattice index     =            0
     lattice parameter (alat)  =      10.5935  a.u.
     unit-cell volume          =    1178.6720 (a.u.)^3
     number of atoms/cell      =           16
     number of atomic types    =            2
     number of electrons       =       256.00
     number of Kohn-Sham states=          154
     kinetic-energy cutoff     =      71.0000  Ry
     charge density cutoff     =     430.0000  Ry
     convergence threshold     =      1.0E-06
     mixing beta               =       0.1000
     number of iterations used =           10  plain     mixing
     Exchange-correlation      = SLA PW PBX PBC ( 1  4  3  4 0 0)

     celldm(1)=  10.593520  celldm(2)=   0.000000  celldm(3)=   0.000000
     celldm(4)=   0.000000  celldm(5)=   0.000000  celldm(6)=   0.000000

     crystal axes: (cart. coord. in units of alat)
               a(1) = (   0.997143   0.000000   0.000000 )  
               a(2) = (   0.000000   0.997143   0.000000 )  
               a(3) = (   0.000000   0.000000   0.997143 )  

     reciprocal axes: (cart. coord. in units 2 pi/alat)
               b(1) = (  1.002865  0.000000  0.000000 )  
               b(2) = (  0.000000  1.002865  0.000000 )  
               b(3) = (  0.000000  0.000000  1.002865 )  


     PseudoPot. # 1 for Fe read from file:
     /rds/homes/b/bxp912/pp/Fe.pbe-spn-kjpaw_psl.1.0.0.UPF
     MD5 check sum: 42f43b795421b414b0dc916aa790dbcb
     Pseudo is Projector augmented-wave + core cor, Zval = 16.0
     Generated using "atomic" code by A. Dal Corso v.6.3
     Shape of augmentation charge: PSQ
     Using radial grid of 1191 points,  6 beta functions with: 
                l(1) =   0
                l(2) =   0
                l(3) =   1
                l(4) =   1
                l(5) =   2
                l(6) =   2
     Q(r) pseudized with 0 coefficients 


     PseudoPot. # 2 for Fe read from file:
     /rds/homes/b/bxp912/pp/Fe.pbe-spn-kjpaw_psl.1.0.0.UPF
     MD5 check sum: 42f43b795421b414b0dc916aa790dbcb
     Pseudo is Projector augmented-wave + core cor, Zval = 16.0
     Generated using "atomic" code by A. Dal Corso v.6.3
     Shape of augmentation charge: PSQ
     Using radial grid of 1191 points,  6 beta functions with: 
                l(1) =   0
                l(2) =   0
                l(3) =   1
                l(4) =   1
                l(5) =   2
                l(6) =   2
     Q(r) pseudized with 0 coefficients 


     atomic species   valence    mass     pseudopotential
        Fe1           16.00    55.84500     Fe( 1.00)
        Fe2           16.00    55.84500     Fe( 1.00)

     Starting magnetic structure 
     atomic species   magnetization
        Fe1          0.100
        Fe2          0.100

     48 Sym. Ops., with inversion, found



   Cartesian axes

     site n.     atom                  positions (alat units)
         1           Fe1 tau(   1) = (   0.0000000   0.0000000   0.0000000  )
         2           Fe2 tau(   2) = (   0.2492861   0.2492861   0.2492861  )
         3           Fe1 tau(   3) = (   0.0000000   0.0000000   0.4985714  )
         4           Fe2 tau(   4) = (   0.2492861   0.2492861   0.7478567  )
         5           Fe1 tau(   5) = (   0.0000000   0.4985714   0.0000000  )
         6           Fe2 tau(   6) = (   0.2492861   0.7478567   0.2492861  )
         7           Fe1 tau(   7) = (   0.0000000   0.4985714   0.4985714  )
         8           Fe2 tau(   8) = (   0.2492861   0.7478567   0.7478567  )
         9           Fe1 tau(   9) = (   0.4985714   0.0000000   0.0000000  )
        10           Fe2 tau(  10) = (   0.7478567   0.2492861   0.2492861  )
        11           Fe1 tau(  11) = (   0.4985714   0.0000000   0.4985714  )
        12           Fe2 tau(  12) = (   0.7478567   0.2492861   0.7478567  )
        13           Fe1 tau(  13) = (   0.4985714   0.4985714   0.0000000  )
        14           Fe2 tau(  14) = (   0.7478567   0.7478567   0.2492861  )
        15           Fe1 tau(  15) = (   0.4985714   0.4985714   0.4985714  )
        16           Fe2 tau(  16) = (   0.7478567   0.7478567   0.7478567  )

     number of k points=    35  Marzari-Vanderbilt smearing, width (Ry)=  0.0400
                       cart. coord. in units 2pi/alat
        k(    1) = (   0.0557147   0.0557147   0.0557147), wk =   0.0109739
        k(    2) = (   0.0557147   0.0557147   0.1671442), wk =   0.0329218
        k(    3) = (   0.0557147   0.0557147   0.2785737), wk =   0.0329218
        k(    4) = (   0.0557147   0.0557147   0.3900032), wk =   0.0329218
        k(    5) = (   0.0557147   0.0557147  -0.5014327), wk =   0.0164609
        k(    6) = (   0.0557147   0.1671442   0.1671442), wk =   0.0329218
        k(    7) = (   0.0557147   0.1671442   0.2785737), wk =   0.0658436
        k(    8) = (   0.0557147   0.1671442   0.3900032), wk =   0.0658436
        k(    9) = (   0.0557147   0.1671442  -0.5014327), wk =   0.0329218
        k(   10) = (   0.0557147   0.2785737   0.2785737), wk =   0.0329218
        k(   11) = (   0.0557147   0.2785737   0.3900032), wk =   0.0658436
        k(   12) = (   0.0557147   0.2785737  -0.5014327), wk =   0.0329218
        k(   13) = (   0.0557147   0.3900032   0.3900032), wk =   0.0329218
        k(   14) = (   0.0557147   0.3900032  -0.5014327), wk =   0.0329218
        k(   15) = (   0.0557147  -0.5014327  -0.5014327), wk =   0.0082305
        k(   16) = (   0.1671442   0.1671442   0.1671442), wk =   0.0109739
        k(   17) = (   0.1671442   0.1671442   0.2785737), wk =   0.0329218
        k(   18) = (   0.1671442   0.1671442   0.3900032), wk =   0.0329218
        k(   19) = (   0.1671442   0.1671442  -0.5014327), wk =   0.0164609
        k(   20) = (   0.1671442   0.2785737   0.2785737), wk =   0.0329218
        k(   21) = (   0.1671442   0.2785737   0.3900032), wk =   0.0658436
        k(   22) = (   0.1671442   0.2785737  -0.5014327), wk =   0.0329218
        k(   23) = (   0.1671442   0.3900032   0.3900032), wk =   0.0329218
        k(   24) = (   0.1671442   0.3900032  -0.5014327), wk =   0.0329218
        k(   25) = (   0.1671442  -0.5014327  -0.5014327), wk =   0.0082305
        k(   26) = (   0.2785737   0.2785737   0.2785737), wk =   0.0109739
        k(   27) = (   0.2785737   0.2785737   0.3900032), wk =   0.0329218
        k(   28) = (   0.2785737   0.2785737  -0.5014327), wk =   0.0164609
        k(   29) = (   0.2785737   0.3900032   0.3900032), wk =   0.0329218
        k(   30) = (   0.2785737   0.3900032  -0.5014327), wk =   0.0329218
        k(   31) = (   0.2785737  -0.5014327  -0.5014327), wk =   0.0082305
        k(   32) = (   0.3900032   0.3900032   0.3900032), wk =   0.0109739
        k(   33) = (   0.3900032   0.3900032  -0.5014327), wk =   0.0164609
        k(   34) = (   0.3900032  -0.5014327  -0.5014327), wk =   0.0082305
        k(   35) = (  -0.5014327  -0.5014327  -0.5014327), wk =   0.0013717

     Dense  grid:   177509 G-vectors     FFT dimensions: (  72,  72,  72)

     Smooth grid:    95193 G-vectors     FFT dimensions: (  60,  60,  60)

     Estimated max dynamical RAM per process >     152.26 MB

     Estimated total dynamical RAM >       2.97 GB
     Generating pointlists ...
     new r_m :   0.1781 (alat units)  1.8868 (a.u.) for type    1
     new r_m :   0.1781 (alat units)  1.8868 (a.u.) for type    2

     Check: negative/imaginary core charge=   -0.000006    0.000000

     Initial potential from superposition of free atoms

     starting charge  255.99300, renormalised to  256.00000
     Starting wfcs are  160 randomized atomic wfcs
     Checking if some PAW data can be deallocated... 

     total cpu time spent up to now is        9.0 secs

     Self-consistent Calculation

     iteration #  1     ecut=    71.00 Ry     beta= 0.10
     Davidson diagonalization with overlap
     ethr =  1.00E-02,  avg # of iterations =  3.3

     Threshold (ethr) on eigenvalues was too large:
     Diagonalizing with lowered threshold

     Davidson diagonalization with overlap
     ethr =  2.04E-04,  avg # of iterations =  3.5

     total cpu time spent up to now is       67.8 secs

     total energy              =   -5267.97717245 Ry
     Harris-Foulkes estimate   =   -5268.02842535 Ry
     estimated scf accuracy    <       0.60454195 Ry

     total magnetization       =    27.86 Bohr mag/cell
     absolute magnetization    =    27.96 Bohr mag/cell

     iteration #  2     ecut=    71.00 Ry     beta= 0.10
     Davidson diagonalization with overlap
     ethr =  2.36E-04,  avg # of iterations =  1.0

     total cpu time spent up to now is       85.9 secs

     total energy              =   -5267.95983950 Ry
     Harris-Foulkes estimate   =   -5267.98884968 Ry
     estimated scf accuracy    <       0.34828670 Ry

     total magnetization       =    28.50 Bohr mag/cell
     absolute magnetization    =    28.63 Bohr mag/cell

     iteration #  3     ecut=    71.00 Ry     beta= 0.10
     Davidson diagonalization with overlap
     ethr =  1.36E-04,  avg # of iterations =  3.2

     total cpu time spent up to now is      116.0 secs

     total energy              =   -5268.02181583 Ry
     Harris-Foulkes estimate   =   -5268.02508568 Ry
     estimated scf accuracy    <       0.34477766 Ry

     total magnetization       =    29.80 Bohr mag/cell
     absolute magnetization    =    30.11 Bohr mag/cell

     iteration #  4     ecut=    71.00 Ry     beta= 0.10
     Davidson diagonalization with overlap
     ethr =  1.35E-04,  avg # of iterations =  1.0

     total cpu time spent up to now is      134.1 secs

     total energy              =   -5268.03848033 Ry
     Harris-Foulkes estimate   =   -5268.03011623 Ry
     estimated scf accuracy    <       0.11336383 Ry

     total magnetization       =    30.02 Bohr mag/cell
     absolute magnetization    =    30.35 Bohr mag/cell

     iteration #  5     ecut=    71.00 Ry     beta= 0.10
     Davidson diagonalization with overlap
     ethr =  4.43E-05,  avg # of iterations =  1.4

     total cpu time spent up to now is      153.3 secs

     total energy              =   -5268.11982431 Ry
     Harris-Foulkes estimate   =   -5268.04273294 Ry
     estimated scf accuracy    <       0.10120865 Ry

     total magnetization       =    30.07 Bohr mag/cell
     absolute magnetization    =    30.44 Bohr mag/cell

     iteration #  6     ecut=    71.00 Ry     beta= 0.10
     Davidson diagonalization with overlap
     ethr =  3.95E-05,  avg # of iterations =  3.2

     negative rho (up, down):  0.000E+00 3.276E-03

     total cpu time spent up to now is      184.6 secs

     total energy              =   -5268.13793402 Ry
     Harris-Foulkes estimate   =   -5268.15401522 Ry
     estimated scf accuracy    <       0.20740728 Ry

     total magnetization       =    30.75 Bohr mag/cell
     absolute magnetization    =    31.45 Bohr mag/cell

     iteration #  7     ecut=    71.00 Ry     beta= 0.10
     Davidson diagonalization with overlap
     ethr =  3.95E-05,  avg # of iterations =  2.9

     negative rho (up, down):  0.000E+00 1.921E-03

     total cpu time spent up to now is      214.2 secs

     total energy              =   -5268.17734167 Ry
     Harris-Foulkes estimate   =   -5268.18327653 Ry
     estimated scf accuracy    <       0.01175010 Ry

     total magnetization       =    32.16 Bohr mag/cell
     absolute magnetization    =    33.67 Bohr mag/cell

     iteration #  8     ecut=    71.00 Ry     beta= 0.10
     Davidson diagonalization with overlap
     ethr =  4.59E-06,  avg # of iterations =  2.4

     negative rho (up, down):  0.000E+00 1.911E-03

     total cpu time spent up to now is      239.3 secs

     total energy              =   -5268.18024550 Ry
     Harris-Foulkes estimate   =   -5268.17913234 Ry
     estimated scf accuracy    <       0.00836025 Ry

     total magnetization       =    32.08 Bohr mag/cell
     absolute magnetization    =    33.41 Bohr mag/cell

     iteration #  9     ecut=    71.00 Ry     beta= 0.10
     Davidson diagonalization with overlap
     ethr =  3.27E-06,  avg # of iterations =  1.3

     negative rho (up, down):  0.000E+00 2.338E-03

     total cpu time spent up to now is      258.5 secs

     total energy              =   -5268.18339356 Ry
     Harris-Foulkes estimate   =   -5268.18047067 Ry
     estimated scf accuracy    <       0.00540209 Ry

     total magnetization       =    32.17 Bohr mag/cell
     absolute magnetization    =    33.54 Bohr mag/cell

     iteration # 10     ecut=    71.00 Ry     beta= 0.10
     Davidson diagonalization with overlap
     ethr =  2.11E-06,  avg # of iterations =  3.3

     negative rho (up, down):  0.000E+00 2.252E-03

     total cpu time spent up to now is      287.6 secs

     total energy              =   -5268.18485358 Ry
     Harris-Foulkes estimate   =   -5268.18478344 Ry
     estimated scf accuracy    <       0.00086009 Ry

     total magnetization       =    32.48 Bohr mag/cell
     absolute magnetization    =    34.08 Bohr mag/cell

     iteration # 11     ecut=    71.00 Ry     beta= 0.10
     Davidson diagonalization with overlap
     ethr =  3.36E-07,  avg # of iterations =  1.3

     negative rho (up, down):  0.000E+00 2.061E-03

     total cpu time spent up to now is      306.6 secs

     total energy              =   -5268.18514496 Ry
     Harris-Foulkes estimate   =   -5268.18487086 Ry
     estimated scf accuracy    <       0.00071576 Ry

     total magnetization       =    32.49 Bohr mag/cell
     absolute magnetization    =    34.09 Bohr mag/cell

     iteration # 12     ecut=    71.00 Ry     beta= 0.10
     Davidson diagonalization with overlap
     ethr =  2.80E-07,  avg # of iterations =  2.0

     negative rho (up, down):  0.000E+00 2.322E-03

     total cpu time spent up to now is      329.4 secs

     total energy              =   -5268.18529065 Ry
     Harris-Foulkes estimate   =   -5268.18523771 Ry
     estimated scf accuracy    <       0.00060807 Ry

     total magnetization       =    32.58 Bohr mag/cell
     absolute magnetization    =    34.21 Bohr mag/cell

     iteration # 13     ecut=    71.00 Ry     beta= 0.10
     Davidson diagonalization with overlap
     ethr =  2.38E-07,  avg # of iterations =  3.3

     negative rho (up, down):  0.000E+00 2.364E-03

     total cpu time spent up to now is      359.5 secs

     total energy              =   -5268.18548808 Ry
     Harris-Foulkes estimate   =   -5268.18549335 Ry
     estimated scf accuracy    <       0.00012026 Ry

     total magnetization       =    32.71 Bohr mag/cell
     absolute magnetization    =    34.43 Bohr mag/cell

     iteration # 14     ecut=    71.00 Ry     beta= 0.10
     Davidson diagonalization with overlap
     ethr =  4.70E-08,  avg # of iterations =  2.4

     negative rho (up, down):  0.000E+00 2.371E-03

     total cpu time spent up to now is      383.4 secs

     total energy              =   -5268.18550228 Ry
     Harris-Foulkes estimate   =   -5268.18550991 Ry
     estimated scf accuracy    <       0.00014306 Ry

     total magnetization       =    32.73 Bohr mag/cell
     absolute magnetization    =    34.45 Bohr mag/cell

     iteration # 15     ecut=    71.00 Ry     beta= 0.10
     Davidson diagonalization with overlap
     ethr =  4.70E-08,  avg # of iterations =  1.1

     negative rho (up, down):  0.000E+00 2.379E-03

     total cpu time spent up to now is      401.7 secs

     total energy              =   -5268.18552785 Ry
     Harris-Foulkes estimate   =   -5268.18551119 Ry
     estimated scf accuracy    <       0.00002236 Ry

     total magnetization       =    32.74 Bohr mag/cell
     absolute magnetization    =    34.47 Bohr mag/cell

     iteration # 16     ecut=    71.00 Ry     beta= 0.10
     Davidson diagonalization with overlap
     ethr =  8.73E-09,  avg # of iterations =  2.7

     negative rho (up, down):  0.000E+00 2.392E-03

     total cpu time spent up to now is      427.0 secs

     total energy              =   -5268.18553269 Ry
     Harris-Foulkes estimate   =   -5268.18553128 Ry
     estimated scf accuracy    <       0.00000734 Ry

     total magnetization       =    32.74 Bohr mag/cell
     absolute magnetization    =    34.46 Bohr mag/cell

     iteration # 17     ecut=    71.00 Ry     beta= 0.10
     Davidson diagonalization with overlap
     ethr =  2.87E-09,  avg # of iterations =  3.0

     negative rho (up, down):  0.000E+00 2.393E-03

     total cpu time spent up to now is      455.7 secs

     total energy              =   -5268.18553612 Ry
     Harris-Foulkes estimate   =   -5268.18553495 Ry
     estimated scf accuracy    <       0.00000331 Ry

     total magnetization       =    32.75 Bohr mag/cell
     absolute magnetization    =    34.47 Bohr mag/cell

     iteration # 18     ecut=    71.00 Ry     beta= 0.10
     Davidson diagonalization with overlap
     ethr =  1.29E-09,  avg # of iterations =  2.9

     negative rho (up, down):  0.000E+00 2.410E-03
 
     Magnetic moment per site:
     atom:    1    charge:   14.3595    magn:    2.0877    constr:    0.0000
     atom:    2    charge:   14.3594    magn:    2.0898    constr:    0.0000
     atom:    3    charge:   14.3595    magn:    2.0885    constr:    0.0000
     atom:    4    charge:   14.3594    magn:    2.0898    constr:    0.0000
     atom:    5    charge:   14.3595    magn:    2.0885    constr:    0.0000
     atom:    6    charge:   14.3594    magn:    2.0898    constr:    0.0000
     atom:    7    charge:   14.3595    magn:    2.0889    constr:    0.0000
     atom:    8    charge:   14.3594    magn:    2.0898    constr:    0.0000
     atom:    9    charge:   14.3595    magn:    2.0885    constr:    0.0000
     atom:   10    charge:   14.3594    magn:    2.0898    constr:    0.0000
     atom:   11    charge:   14.3595    magn:    2.0889    constr:    0.0000
     atom:   12    charge:   14.3594    magn:    2.0898    constr:    0.0000
     atom:   13    charge:   14.3595    magn:    2.0889    constr:    0.0000
     atom:   14    charge:   14.3594    magn:    2.0898    constr:    0.0000
     atom:   15    charge:   14.3595    magn:    2.0893    constr:    0.0000
     atom:   16    charge:   14.3594    magn:    2.0898    constr:    0.0000

     total cpu time spent up to now is      482.7 secs

     End of self-consistent calculation

 ------ SPIN UP ------------


          k = 0.0557 0.0557 0.0557 ( 11876 PWs)   bands (ev):

   -68.8959 -68.8168 -68.8168 -68.8168 -68.8043 -68.8043 -68.8043 -68.8029
   -68.8028 -68.8028 -68.8024 -68.8024 -68.8021 -68.7977 -68.7963 -68.7357
   -35.1255 -35.1255 -35.1255 -35.1230 -35.1230 -35.1230 -34.9920 -34.9920
   -34.9867 -34.9254 -34.9228 -34.9228 -34.9228 -34.9051 -34.9051 -34.8936
   -34.8935 -34.8935 -34.8638 -34.8638 -34.8435 -34.8326 -34.8326 -34.8326
   -34.8230 -34.8230 -34.8230 -34.8130 -34.8130 -34.8130 -34.8101 -34.8101
   -34.8101 -34.8028 -34.8028 -34.8028 -34.7939 -34.7939 -34.7938 -34.6583
   -34.6568 -34.6568 -34.6568 -34.6542 -34.6542 -34.6542 -34.6533 -34.6533
    10.5037  14.0697  14.0697  14.0697  14.0888  14.0888  14.0888  14.1160
    14.1160  14.1309  14.1309  14.1309  14.5390  14.5391  14.5391  15.7212
    15.7326  15.7326  15.7326  15.7456  15.7456  15.7457  15.8075  15.8075
    15.8825  15.8826  15.8826  15.9531  15.9531  16.0093  16.2268  16.2268
    16.2268  16.8853  16.8853  16.9277  17.2156  17.2156  17.2157  17.2960
    17.2960  17.2960  17.3906  17.3906  17.3906  17.4725  17.4726  17.4726
    18.1177  18.1178  18.1178  18.1229  18.1229  18.1649  18.1649  18.1649
    18.2124  18.2125  18.2125  18.2193  18.2193  18.2193  18.3365  18.3365
    18.3365  18.3427  18.3427  18.3427  18.3764  18.3764  18.3779  18.3779
    19.2521  19.2521  19.2521  19.2916  19.2916  19.2916  19.4156  19.4829
    19.4829  19.4908  19.4908  19.4908  19.8303  19.8303  19.8303  20.0225
    20.0225  20.0225

          k = 0.0557 0.0557 0.1671 ( 11881 PWs)   bands (ev):

   -68.8930 -68.8309 -68.8163 -68.8162 -68.8057 -68.8057 -68.8039 -68.8026
   -68.8026 -68.8020 -68.8018 -68.8017 -68.7982 -68.7968 -68.7893 -68.7378
   -35.1189 -35.1189 -35.1180 -35.1158 -35.1116 -35.1116 -34.9948 -34.9867
   -34.9785 -34.9560 -34.9487 -34.9487 -34.9471 -34.9463 -34.9208 -34.9208
   -34.8927 -34.8699 -34.8621 -34.8602 -34.8520 -34.8325 -34.8325 -34.8239
   -34.8176 -34.8159 -34.8159 -34.8143 -34.8133 -34.8080 -34.8080 -34.8033
   -34.8033 -34.7991 -34.7991 -34.7738 -34.7710 -34.7709 -34.7653 -34.6707
   -34.6640 -34.6640 -34.6631 -34.6609 -34.6578 -34.6566 -34.6566 -34.6551
    10.6360  13.5792  14.0890  14.0890  14.1476  14.1476  14.1637  14.1732
    14.1766  14.1790  14.1790  14.1816  14.5755  14.5755  14.7627  15.5432
    15.6131  15.7112  15.7194  15.7309  15.7339  15.7780  15.7780  15.8165
    15.8165  15.8396  15.8653  15.8653  16.1525  16.1536  16.1766  16.1766
    16.5575  16.8636  16.8830  16.9851  17.0199  17.0199  17.0778  17.1726
    17.1840  17.1840  17.4154  17.4154  17.5413  17.5413  17.6044  17.6952
    17.7775  17.7775  17.8977  18.0471  18.0471  18.0624  18.1081  18.1482
    18.1697  18.1697  18.2259  18.2284  18.2474  18.2475  18.3236  18.3236
    18.3389  18.3712  18.3736  18.3736  18.3769  18.5420  18.5420  18.5662
    18.6655  18.8770  18.9174  19.2191  19.2191  19.2665  19.2747  19.2748
    19.3651  19.4759  19.5939  19.5939  19.8932  19.8932  19.8952  19.8952
    20.3408  20.3408

          k = 0.0557 0.0557 0.2786 ( 11883 PWs)   bands (ev):

   -68.8876 -68.8448 -68.8151 -68.8150 -68.8076 -68.8076 -68.8032 -68.8023
   -68.8023 -68.8014 -68.8014 -68.8013 -68.7989 -68.7974 -68.7769 -68.7419
   -35.1038 -35.1038 -35.1033 -35.1017 -35.0923 -35.0923 -34.9949 -34.9904
   -34.9856 -34.9836 -34.9836 -34.9760 -34.9660 -34.9658 -34.9572 -34.9572
   -34.8904 -34.8802 -34.8802 -34.8655 -34.8309 -34.8309 -34.8266 -34.8240
   -34.8226 -34.8192 -34.8192 -34.8065 -34.8065 -34.8035 -34.8035 -34.7858
   -34.7794 -34.7697 -34.7697 -34.7466 -34.7432 -34.7432 -34.7387 -34.6910
   -34.6767 -34.6767 -34.6758 -34.6743 -34.6675 -34.6644 -34.6644 -34.6629
    10.8967  12.9575  14.1392  14.1392  14.2418  14.2418  14.2453  14.2453
    14.2863  14.2907  14.3443  14.3597  14.6065  14.6065  14.8148  15.2210
    15.4628  15.5116  15.6587  15.6960  15.7055  15.7094  15.8791  15.8791
    15.8984  15.8984  15.9428  15.9428  16.1642  16.1642  16.4012  16.4126
    16.7568  16.7568  16.8221  16.8520  16.8798  16.9053  16.9054  16.9756
    17.0700  17.1405  17.3047  17.3047  17.5578  17.5579  17.6041  17.6041
    17.6562  17.6562  17.6886  17.8579  17.9015  17.9429  17.9581  18.0703
    18.1025  18.1025  18.1876  18.1876  18.1970  18.2500  18.2667  18.3433
    18.3604  18.3631  18.3689  18.3764  18.5504  18.5900  18.5900  18.6383
    18.7810  18.8014  18.8014  19.0402  19.1513  19.2277  19.2277  19.3209
    19.3209  19.4120  19.5670  19.5670  19.7619  19.7619  20.0090  20.0090
    20.4341  20.4341

          k = 0.0557 0.0557 0.3900 ( 11908 PWs)   bands (ev):

   -68.8797 -68.8579 -68.8136 -68.8135 -68.8096 -68.8096 -68.8022 -68.8020
   -68.8019 -68.8014 -68.8014 -68.8004 -68.7999 -68.7983 -68.7656 -68.7479
   -35.0820 -35.0817 -35.0817 -35.0811 -35.0654 -35.0654 -35.0241 -35.0220
   -35.0196 -35.0196 -34.9959 -34.9959 -34.9928 -34.9795 -34.9603 -34.9495
   -34.9168 -34.9062 -34.8665 -34.8565 -34.8385 -34.8332 -34.8285 -34.8285
   -34.8226 -34.8226 -34.8052 -34.8052 -34.8038 -34.8038 -34.7873 -34.7508
   -34.7471 -34.7413 -34.7413 -34.7216 -34.7184 -34.7173 -34.7172 -34.7145
   -34.6946 -34.6943 -34.6941 -34.6941 -34.6817 -34.6771 -34.6771 -34.6760
    11.2775  12.3356  14.2061  14.2061  14.2827  14.2827  14.3605  14.3605
    14.4416  14.4527  14.5779  14.5779  14.5968  14.6078  14.7439  14.9263
    15.2058  15.2164  15.6406  15.6571  15.6690  15.6770  16.0318  16.0319
    16.0608  16.0608  16.1185  16.1185  16.2667  16.2667  16.5093  16.5093
    16.6257  16.6257  16.7221  16.7307  16.8268  16.8268  16.8517  16.8804
    16.8974  16.9071  17.0354  17.0354  17.1842  17.3070  17.4969  17.5165
    17.5619  17.7694  17.7844  17.7844  17.7992  17.7992  18.0140  18.0140
    18.0988  18.0988  18.1451  18.2527  18.2676  18.2812  18.2861  18.3409
    18.3427  18.3493  18.3628  18.3784  18.4236  18.4771  18.7595  18.8460
    18.8460  18.8735  18.9801  19.0551  19.0551  19.1838  19.1839  19.3027
    19.3922  19.3922  19.4534  19.4534  19.6210  19.6210  20.1571  20.1571
    20.4130  20.4130

          k = 0.0557 0.0557-0.5014 ( 11892 PWs)   bands (ev):

   -68.8697 -68.8695 -68.8117 -68.8117 -68.8116 -68.8115 -68.8018 -68.8017
   -68.8015 -68.8015 -68.8010 -68.8010 -68.7996 -68.7991 -68.7560 -68.7558
   -35.0548 -35.0546 -35.0546 -35.0544 -35.0530 -35.0530 -35.0530 -35.0530
   -35.0327 -35.0327 -35.0327 -35.0327 -34.9882 -34.9880 -34.9403 -34.9401
   -34.9297 -34.9296 -34.8525 -34.8523 -34.8452 -34.8449 -34.8259 -34.8259
   -34.8257 -34.8257 -34.8044 -34.8044 -34.8042 -34.8041 -34.7509 -34.7507
   -34.7197 -34.7195 -34.7188 -34.7186 -34.7158 -34.7158 -34.7158 -34.7157
   -34.6999 -34.6997 -34.6949 -34.6949 -34.6949 -34.6948 -34.6933 -34.6931
    11.7644  11.7644  14.2645  14.2645  14.2646  14.2646  14.4838  14.4839
    14.4839  14.4839  14.6041  14.6041  14.6679  14.6679  14.8980  14.8981
    14.9016  14.9018  15.6475  15.6477  15.6557  15.6558  16.2231  16.2231
    16.2231  16.2231  16.2920  16.2920  16.2921  16.2921  16.4507  16.4507
    16.4507  16.4508  16.6050  16.6050  16.6050  16.6051  16.8681  16.8682
    16.8885  16.8887  17.1039  17.1041  17.1096  17.1098  17.3273  17.3275
    17.5504  17.5505  17.9066  17.9066  17.9067  17.9067  17.9688  17.9688
    17.9688  17.9688  18.3137  18.3139  18.3147  18.3149  18.3562  18.3563
    18.3596  18.3598  18.3884  18.3885  18.4522  18.4524  18.5645  18.5648
    19.0541  19.0541  19.0541  19.0541  19.1563  19.1564  19.2775  19.2775
    19.2775  19.2775  19.4922  19.4922  19.4923  19.4923  20.3054  20.3054
    20.3055  20.3055

          k = 0.0557 0.1671 0.1671 ( 11900 PWs)   bands (ev):

   -68.8904 -68.8300 -68.8299 -68.8156 -68.8097 -68.8053 -68.8053 -68.8024
   -68.8016 -68.8015 -68.7988 -68.7987 -68.7969 -68.7896 -68.7896 -68.7398
   -35.1174 -35.1119 -35.1119 -35.1052 -35.1052 -35.0960 -35.0004 -34.9832
   -34.9757 -34.9716 -34.9716 -34.9652 -34.9647 -34.9586 -34.9384 -34.9010
   -34.8880 -34.8880 -34.8615 -34.8615 -34.8607 -34.8367 -34.8278 -34.8278
   -34.8241 -34.8216 -34.8216 -34.8122 -34.8122 -34.8080 -34.8064 -34.8010
   -34.7900 -34.7804 -34.7750 -34.7750 -34.7548 -34.7440 -34.7440 -34.6875
   -34.6766 -34.6697 -34.6697 -34.6631 -34.6631 -34.6619 -34.6540 -34.6534
    10.7669  13.6469  13.6469  14.0574  14.1845  14.1845  14.2289  14.2347
    14.2376  14.2376  14.2396  14.2396  14.6230  14.7991  14.7991  15.5172
    15.5494  15.5494  15.6218  15.7616  15.7617  15.7847  15.7956  15.7956
    15.7969  15.8301  15.9032  15.9120  16.1101  16.1513  16.1640  16.4587
    16.4587  16.8093  16.8697  16.8930  16.8931  16.9459  17.0682  17.0791
    17.3393  17.3393  17.3845  17.3846  17.4061  17.4566  17.5860  17.7046
    17.7046  17.7131  17.7132  17.9757  17.9758  18.0537  18.0889  18.1011
    18.1065  18.1066  18.1308  18.1850  18.1850  18.2422  18.2422  18.3175
    18.3637  18.3712  18.3720  18.3818  18.4583  18.6467  18.6724  18.7366
    18.7366  18.7569  18.7569  18.8703  18.8703  19.0688  19.1158  19.1158
    19.2777  19.3350  19.4998  19.6650  19.6927  19.9927  20.5666  20.5666
    20.7483  20.7483

          k = 0.0557 0.1671 0.2786 ( 11891 PWs)   bands (ev):

   -68.8850 -68.8434 -68.8279 -68.8145 -68.8138 -68.8071 -68.8045 -68.8021
   -68.8011 -68.8009 -68.7996 -68.7975 -68.7960 -68.7901 -68.7775 -68.7437
   -35.1075 -35.0978 -35.0977 -35.0927 -35.0871 -35.0719 -35.0050 -35.0039
   -35.0002 -34.9913 -34.9888 -34.9885 -34.9730 -34.9669 -34.9486 -34.9256
   -34.8920 -34.8892 -34.8581 -34.8575 -34.8560 -34.8520 -34.8383 -34.8323
   -34.8317 -34.8255 -34.8201 -34.8107 -34.8084 -34.7977 -34.7944 -34.7771
   -34.7768 -34.7635 -34.7571 -34.7482 -34.7337 -34.7192 -34.7185 -34.7122
   -34.6937 -34.6797 -34.6797 -34.6756 -34.6712 -34.6694 -34.6565 -34.6560
    11.0244  13.0449  13.7616  14.0425  14.2363  14.3153  14.3336  14.3353
    14.3555  14.3567  14.3678  14.4157  14.6737  14.8180  14.8572  15.2455
    15.4072  15.4889  15.6206  15.7141  15.7335  15.7608  15.8002  15.8289
    15.8544  15.8719  15.9087  16.0619  16.0634  16.3087  16.3443  16.3935
    16.6525  16.6680  16.7612  16.7629  16.8056  16.8561  16.8637  16.9847
    17.0945  17.1999  17.2459  17.3449  17.4662  17.5315  17.5707  17.6072
    17.6230  17.6883  17.6929  17.7225  17.7395  17.8946  17.9360  17.9645
    18.0031  18.1216  18.1678  18.1857  18.2148  18.2376  18.2446  18.3488
    18.3585  18.3716  18.3773  18.3918  18.4752  18.6024  18.6178  18.6212
    18.7580  18.7964  18.8080  18.8341  18.8600  18.9607  19.0038  19.0704
    19.1910  19.4635  19.4646  19.4854  19.6772  20.1730  20.3554  20.9264
    20.9802  21.2843

          k = 0.0557 0.1671 0.3900 ( 11903 PWs)   bands (ev):

   -68.8773 -68.8561 -68.8252 -68.8179 -68.8130 -68.8091 -68.8034 -68.8017
   -68.8011 -68.8008 -68.8000 -68.7982 -68.7938 -68.7910 -68.7667 -68.7496
   -35.0895 -35.0775 -35.0770 -35.0748 -35.0623 -35.0413 -35.0363 -35.0269
   -35.0213 -35.0213 -35.0071 -34.9999 -34.9996 -34.9661 -34.9578 -34.9293
   -34.9152 -34.8826 -34.8773 -34.8533 -34.8509 -34.8453 -34.8399 -34.8369
   -34.8300 -34.8298 -34.8147 -34.8099 -34.8091 -34.7886 -34.7796 -34.7674
   -34.7461 -34.7425 -34.7377 -34.7335 -34.7239 -34.7146 -34.7128 -34.6972
   -34.6961 -34.6948 -34.6942 -34.6941 -34.6849 -34.6800 -34.6647 -34.6646
    11.4000  12.4388  13.8846  14.0238  14.3038  14.3683  14.4525  14.4848
    14.4966  14.5178  14.6236  14.6590  14.6623  14.7612  14.7909  14.9658
    15.2133  15.2372  15.6699  15.7009  15.7102  15.7220  15.8219  15.9435
    15.9855  15.9985  16.0495  16.1014  16.2569  16.3577  16.5113  16.5600
    16.5844  16.5862  16.6151  16.6448  16.7306  16.7363  16.7910  16.7969
    16.8056  16.8408  16.9732  17.1423  17.2547  17.3297  17.3431  17.4600
    17.6932  17.7828  17.7920  17.7993  17.8126  17.8180  17.8976  17.9194
    18.0366  18.0943  18.1425  18.2037  18.2395  18.2546  18.2652  18.3250
    18.3331  18.3721  18.3982  18.4126  18.4527  18.5099  18.5546  18.6265
    18.6737  18.7486  18.7982  18.8601  18.8686  18.9487  19.1445  19.1688
    19.2402  19.2455  19.4163  19.5892  19.6573  20.1279  20.4016  20.8460
    21.1390  21.4079

          k = 0.0557 0.1671-0.5014 ( 11914 PWs)   bands (ev):

   -68.8676 -68.8674 -68.8219 -68.8217 -68.8112 -68.8110 -68.8022 -68.8021
   -68.8015 -68.8012 -68.7993 -68.7989 -68.7923 -68.7921 -68.7575 -68.7572
   -35.0655 -35.0654 -35.0524 -35.0522 -35.0516 -35.0514 -35.0510 -35.0509
   -35.0324 -35.0323 -35.0059 -35.0058 -35.0055 -35.0055 -34.9384 -34.9382
   -34.9074 -34.9073 -34.8613 -34.8611 -34.8473 -34.8471 -34.8412 -34.8409
   -34.8340 -34.8338 -34.8096 -34.8094 -34.7839 -34.7837 -34.7771 -34.7770
   -34.7394 -34.7394 -34.7180 -34.7178 -34.7147 -34.7145 -34.7124 -34.7124
   -34.7025 -34.7023 -34.6945 -34.6944 -34.6786 -34.6786 -34.6779 -34.6779
    11.8791  11.8791  13.9765  13.9765  14.3596  14.3597  14.5747  14.5747
    14.6407  14.6408  14.6511  14.6512  14.7207  14.7208  14.9263  14.9265
    14.9407  14.9408  15.6745  15.6747  15.6959  15.6960  16.1095  16.1095
    16.1110  16.1110  16.1407  16.1408  16.1700  16.1701  16.5221  16.5221
    16.5412  16.5412  16.6193  16.6193  16.7223  16.7224  16.7240  16.7241
    16.8231  16.8232  16.9301  16.9302  16.9343  16.9344  17.5080  17.5081
    17.6390  17.6390  17.8439  17.8440  17.9322  17.9323  17.9612  17.9613
    17.9958  17.9959  18.1989  18.1990  18.2950  18.2952  18.2965  18.2967
    18.3333  18.3335  18.3775  18.3776  18.4572  18.4572  18.4990  18.4992
    18.7122  18.7123  18.8283  18.8283  19.0148  19.0148  19.0797  19.0797
    19.2994  19.2995  19.4400  19.4400  19.8890  19.8890  20.6393  20.6393
    21.3266  21.3267

          k = 0.0557 0.2786 0.2786 ( 11927 PWs)   bands (ev):

   -68.8800 -68.8407 -68.8406 -68.8201 -68.8134 -68.8063 -68.8062 -68.8018
   -68.8008 -68.8006 -68.8005 -68.7978 -68.7912 -68.7789 -68.7788 -68.7474
   -35.1025 -35.0856 -35.0856 -35.0774 -35.0774 -35.0444 -35.0177 -35.0176
   -35.0154 -35.0139 -35.0059 -35.0030 -34.9845 -34.9637 -34.9278 -34.8929
   -34.8902 -34.8901 -34.8844 -34.8844 -34.8537 -34.8452 -34.8450 -34.8374
   -34.8374 -34.8258 -34.8258 -34.8188 -34.8188 -34.8133 -34.7831 -34.7577
   -34.7518 -34.7518 -34.7448 -34.7412 -34.7400 -34.7200 -34.7143 -34.6971
   -34.6970 -34.6861 -34.6861 -34.6800 -34.6794 -34.6794 -34.6539 -34.6534
    11.2753  13.2057  13.2057  13.9357  14.4221  14.4221  14.4257  14.4271
    14.4810  14.4836  14.5082  14.5082  14.7681  14.8809  14.8809  15.3488
    15.3488  15.3490  15.4154  15.7558  15.7617  15.8113  15.8113  15.8263
    15.8509  15.8509  15.9192  15.9629  16.2343  16.2620  16.3207  16.5336
    16.5336  16.6191  16.6191  16.6226  16.6696  16.6902  16.7581  16.8247
    17.1163  17.1163  17.2611  17.2611  17.3230  17.3230  17.3617  17.5023
    17.5778  17.5778  17.6849  17.7670  17.8800  17.8801  17.9121  17.9669
    18.1467  18.1581  18.1581  18.1628  18.1629  18.1913  18.1913  18.2243
    18.2839  18.3253  18.3414  18.3819  18.4158  18.5178  18.5784  18.5784
    18.5928  18.5928  18.6526  18.8073  18.8672  18.8672  18.8718  19.1868
    19.1869  19.2360  19.5319  19.7016  19.7146  20.4462  21.0011  21.0011
    21.6464  21.6464

          k = 0.0557 0.2786 0.3900 ( 11909 PWs)   bands (ev):

   -68.8726 -68.8526 -68.8367 -68.8262 -68.8119 -68.8081 -68.8050 -68.8021
   -68.8014 -68.8006 -68.7999 -68.7984 -68.7870 -68.7808 -68.7688 -68.7529
   -35.0897 -35.0684 -35.0683 -35.0636 -35.0567 -35.0457 -35.0301 -35.0255
   -35.0249 -35.0242 -35.0227 -35.0106 -35.0074 -34.9492 -34.9311 -34.9090
   -34.9050 -34.8837 -34.8771 -34.8571 -34.8538 -34.8524 -34.8516 -34.8481
   -34.8480 -34.8426 -34.8289 -34.8182 -34.8165 -34.7950 -34.7752 -34.7731
   -34.7571 -34.7384 -34.7346 -34.7290 -34.7263 -34.7228 -34.7062 -34.6961
   -34.6956 -34.6939 -34.6925 -34.6856 -34.6787 -34.6784 -34.6564 -34.6562
    11.6397  12.6356  13.4107  13.7991  14.4891  14.5170  14.5545  14.6153
    14.6254  14.6543  14.6786  14.7457  14.8057  14.8246  14.8355  15.0941
    15.2302  15.2464  15.5712  15.7227  15.7616  15.7623  15.7877  15.7965
    15.9082  15.9393  15.9400  16.0182  16.2429  16.3450  16.4051  16.4577
    16.4584  16.5392  16.5789  16.5985  16.6023  16.6204  16.6926  16.7403
    16.7885  16.8369  16.9175  16.9720  17.0134  17.0767  17.5420  17.5892
    17.6497  17.7981  17.8249  17.8332  17.8469  17.8752  17.8903  17.9475
    18.0811  18.0856  18.1009  18.1252  18.1938  18.2030  18.2082  18.2145
    18.2914  18.3087  18.3358  18.3981  18.4056  18.4222  18.4549  18.4769
    18.5392  18.6139  18.6509  18.6531  18.6713  18.8395  18.8971  18.9948
    19.3405  19.3932  19.5217  19.6590  20.0243  20.6841  20.7711  21.4096
    21.6763  22.2898

          k = 0.0557 0.2786-0.5014 ( 11926 PWs)   bands (ev):

   -68.8635 -68.8633 -68.8320 -68.8317 -68.8102 -68.8100 -68.8037 -68.8035
   -68.8011 -68.8008 -68.7993 -68.7989 -68.7837 -68.7835 -68.7602 -68.7599
   -35.0706 -35.0706 -35.0476 -35.0475 -35.0474 -35.0473 -35.0473 -35.0471
   -35.0325 -35.0324 -35.0266 -35.0265 -34.9722 -34.9722 -34.9309 -34.9307
   -34.8801 -34.8801 -34.8688 -34.8687 -34.8681 -34.8679 -34.8468 -34.8466
   -34.8393 -34.8392 -34.8178 -34.8177 -34.8130 -34.8130 -34.7655 -34.7655
   -34.7645 -34.7642 -34.7128 -34.7126 -34.7097 -34.7095 -34.7091 -34.7088
   -34.7079 -34.7079 -34.6946 -34.6946 -34.6649 -34.6649 -34.6648 -34.6647
    12.1014  12.1014  13.6203  13.6203  14.5353  14.5353  14.6987  14.6988
    14.7384  14.7384  14.7416  14.7416  14.8615  14.8615  14.9731  14.9732
    15.0086  15.0087  15.7243  15.7245  15.7453  15.7454  15.8823  15.8824
    15.9224  15.9225  15.9629  15.9630  16.1630  16.1630  16.5539  16.5539
    16.5563  16.5564  16.5801  16.5802  16.6669  16.6670  16.6816  16.6817
    16.7195  16.7195  16.7479  16.7480  16.7543  16.7543  17.7347  17.7347
    17.7720  17.7720  17.8193  17.8194  17.8869  17.8870  17.9742  17.9742
    17.9849  17.9850  17.9855  17.9856  18.2514  18.2515  18.2618  18.2619
    18.2848  18.2850  18.3397  18.3399  18.4199  18.4201  18.4244  18.4245
    18.5245  18.5245  18.6741  18.6742  18.7375  18.7375  18.8776  18.8777
    19.4553  19.4553  19.5543  19.5543  20.3549  20.3549  21.1044  21.1044
    22.3666  22.3667

          k = 0.0557 0.3900 0.3900 ( 11919 PWs)   bands (ev):

   -68.8660 -68.8477 -68.8476 -68.8341 -68.8104 -68.8068 -68.8068 -68.8037
   -68.8009 -68.8001 -68.8000 -68.7987 -68.7810 -68.7719 -68.7718 -68.7577
   -35.0822 -35.0566 -35.0566 -35.0495 -35.0495 -35.0485 -35.0485 -35.0357
   -35.0351 -35.0331 -35.0318 -35.0192 -34.9741 -34.9362 -34.8996 -34.8995
   -34.8928 -34.8927 -34.8817 -34.8786 -34.8730 -34.8579 -34.8579 -34.8564
   -34.8441 -34.8282 -34.8282 -34.8233 -34.8232 -34.8227 -34.8127 -34.7648
   -34.7589 -34.7369 -34.7369 -34.7204 -34.7149 -34.7126 -34.7040 -34.7006
   -34.6990 -34.6990 -34.6944 -34.6943 -34.6650 -34.6649 -34.6535 -34.6533
    11.9849  12.9052  12.9052  13.5249  14.6466  14.6726  14.7118  14.7378
    14.7378  14.8186  14.8186  14.8446  14.8534  14.8534  14.9346  15.1881
    15.2132  15.3181  15.3181  15.7160  15.7435  15.7544  15.8231  15.8231
    15.8266  15.8266  15.8418  15.9218  16.0875  16.3371  16.3555  16.3555
    16.4024  16.4865  16.5113  16.5503  16.6242  16.6242  16.6440  16.6440
    16.6590  16.6591  16.6910  16.7370  16.8811  17.2707  17.2707  17.7568
    17.8234  17.8320  17.8320  17.8793  17.9128  17.9344  17.9574  17.9575
    17.9645  18.0796  18.1327  18.1328  18.1426  18.1426  18.1714  18.2136
    18.2137  18.2423  18.2440  18.2670  18.3421  18.3421  18.3820  18.4306
    18.5059  18.5373  18.5373  18.6208  18.7029  18.7029  18.7448  18.7698
    19.5052  19.5052  19.5749  19.6687  20.4308  21.1895  21.2675  21.2675
    22.0207  22.0207

          k = 0.0557 0.3900-0.5014 ( 11918 PWs)   bands (ev):

   -68.8576 -68.8574 -68.8415 -68.8413 -68.8088 -68.8086 -68.8054 -68.8052
   -68.8006 -68.8003 -68.7995 -68.7992 -68.7760 -68.7758 -68.7642 -68.7639
   -35.0678 -35.0678 -35.0446 -35.0446 -35.0442 -35.0441 -35.0435 -35.0433
   -35.0419 -35.0418 -35.0339 -35.0338 -34.9343 -34.9343 -34.9195 -34.9193
   -34.8874 -34.8872 -34.8722 -34.8721 -34.8598 -34.8598 -34.8530 -34.8530
   -34.8510 -34.8510 -34.8376 -34.8375 -34.8266 -34.8266 -34.7933 -34.7933
   -34.7469 -34.7467 -34.7189 -34.7187 -34.7065 -34.7063 -34.7055 -34.7054
   -34.7047 -34.7046 -34.6965 -34.6965 -34.6564 -34.6564 -34.6562 -34.6562
    12.4164  12.4165  13.2152  13.2152  14.7438  14.7438  14.7538  14.7539
    14.7807  14.7807  14.9435  14.9436  15.0006  15.0007  15.0715  15.0715
    15.0809  15.0810  15.6037  15.6038  15.7514  15.7515  15.7597  15.7597
    15.7694  15.7695  15.8331  15.8332  16.2021  16.2021  16.4036  16.4036
    16.4491  16.4492  16.4864  16.4865  16.4881  16.4882  16.5075  16.5075
    16.6958  16.6959  16.7193  16.7194  16.9664  16.9664  17.5631  17.5631
    17.8619  17.8621  17.8947  17.8947  17.9840  17.9840  17.9855  17.9855
    18.0261  18.0261  18.0590  18.0591  18.1499  18.1501  18.1850  18.1851
    18.2090  18.2091  18.2279  18.2281  18.2701  18.2702  18.4724  18.4725
    18.4851  18.4851  18.5805  18.5806  18.5809  18.5810  18.7326  18.7326
    19.5683  19.5683  19.6173  19.6173  20.8497  20.8497  21.6163  21.6163
    21.8631  21.8632

          k = 0.0557-0.5014-0.5014 ( 11908 PWs)   bands (ev):

   -68.8503 -68.8501 -68.8501 -68.8498 -68.8072 -68.8071 -68.8071 -68.8068
   -68.8000 -68.7998 -68.7998 -68.7995 -68.7696 -68.7694 -68.7694 -68.7691
   -35.0589 -35.0589 -35.0589 -35.0589 -35.0423 -35.0422 -35.0422 -35.0421
   -35.0371 -35.0370 -35.0370 -35.0368 -34.9049 -34.9047 -34.9047 -34.9045
   -34.8939 -34.8939 -34.8938 -34.8938 -34.8690 -34.8689 -34.8689 -34.8689
   -34.8335 -34.8335 -34.8335 -34.8335 -34.8222 -34.8222 -34.8222 -34.8222
   -34.7316 -34.7314 -34.7314 -34.7312 -34.7037 -34.7036 -34.7036 -34.7035
   -34.7008 -34.7007 -34.7007 -34.7006 -34.6536 -34.6536 -34.6536 -34.6536
    12.7995  12.7996  12.7996  12.7996  14.7769  14.7769  14.7769  14.7770
    14.9368  14.9369  14.9369  14.9369  15.0845  15.0845  15.0846  15.0846
    15.3261  15.3262  15.3262  15.3263  15.7131  15.7131  15.7131  15.7132
    15.7682  15.7683  15.7683  15.7683  16.2840  16.2840  16.2840  16.2840
    16.4047  16.4048  16.4048  16.4050  16.4507  16.4507  16.4507  16.4508
    16.6866  16.6867  16.6867  16.6868  17.2511  17.2511  17.2511  17.2511
    17.9780  17.9781  17.9781  17.9782  17.9782  17.9784  17.9784  17.9787
    18.1041  18.1042  18.1042  18.1043  18.1389  18.1389  18.1389  18.1390
    18.2043  18.2044  18.2044  18.2046  18.2344  18.2344  18.2345  18.2345
    18.5206  18.5206  18.5206  18.5208  18.6412  18.6412  18.6412  18.6413
    19.6230  19.6230  19.6231  19.6231  21.3558  21.3558  21.3558  21.3558
    22.1400  22.1400

          k = 0.1671 0.1671 0.1671 ( 11843 PWs)   bands (ev):

   -68.8877 -68.8289 -68.8289 -68.8289 -68.8091 -68.8091 -68.8090 -68.7998
   -68.7985 -68.7985 -68.7984 -68.7965 -68.7898 -68.7898 -68.7897 -68.7417
   -35.1102 -35.1101 -35.1101 -35.0907 -35.0907 -35.0907 -34.9946 -34.9946
   -34.9926 -34.9857 -34.9857 -34.9856 -34.9489 -34.9410 -34.9410 -34.9069
   -34.9068 -34.9068 -34.8670 -34.8670 -34.8670 -34.8308 -34.8308 -34.8308
   -34.8210 -34.8210 -34.8073 -34.8072 -34.8072 -34.8039 -34.8039 -34.8039
   -34.7768 -34.7768 -34.7768 -34.7688 -34.7303 -34.7303 -34.7303 -34.7047
   -34.6797 -34.6797 -34.6797 -34.6607 -34.6606 -34.6606 -34.6580 -34.6580
    10.8964  13.7195  13.7195  13.7195  14.1571  14.1571  14.1571  14.2912
    14.2912  14.3273  14.3273  14.3273  14.8501  14.8501  14.8501  15.4376
    15.5381  15.5381  15.5381  15.7099  15.7099  15.7810  15.7810  15.7810
    15.8822  15.8822  15.8822  16.0670  16.0670  16.0746  16.3542  16.3542
    16.3542  16.7988  16.7988  16.8325  16.8325  16.8326  17.1842  17.2086
    17.2086  17.2086  17.3455  17.3455  17.3455  17.4018  17.4018  17.4018
    17.7759  17.7759  17.7759  17.9998  17.9998  17.9998  18.0828  18.0828
    18.1178  18.1178  18.1178  18.2731  18.2732  18.2732  18.3204  18.3204
    18.3204  18.3231  18.3231  18.3231  18.3587  18.3587  18.3847  18.3847
    18.8298  18.8385  18.8385  18.8385  18.8881  18.8881  18.8881  19.3261
    19.3262  19.3262  19.3827  19.3827  20.2096  20.2096  20.2096  20.8759
    20.8759  20.8759

          k = 0.1671 0.1671 0.2786 ( 11890 PWs)   bands (ev):

   -68.8825 -68.8420 -68.8270 -68.8270 -68.8131 -68.8131 -68.8081 -68.8013
   -68.7981 -68.7965 -68.7959 -68.7958 -68.7904 -68.7903 -68.7782 -68.7455
   -35.1005 -35.1005 -35.0956 -35.0807 -35.0684 -35.0684 -35.0108 -35.0093
   -35.0092 -35.0038 -35.0005 -34.9836 -34.9797 -34.9372 -34.9371 -34.9298
   -34.9225 -34.8963 -34.8719 -34.8682 -34.8682 -34.8439 -34.8405 -34.8405
   -34.8343 -34.8276 -34.8101 -34.7968 -34.7968 -34.7833 -34.7821 -34.7821
   -34.7792 -34.7792 -34.7490 -34.7476 -34.7306 -34.7122 -34.7122 -34.7086
   -34.6940 -34.6940 -34.6864 -34.6738 -34.6679 -34.6628 -34.6628 -34.6581
    11.1511  13.1351  13.8433  13.8433  14.1461  14.1461  14.3491  14.3964
    14.4074  14.4454  14.4454  14.4980  14.8937  14.8937  14.9175  15.2521
    15.3607  15.5778  15.5779  15.5828  15.6741  15.7526  15.8313  15.8514
    15.8514  15.9040  16.0130  16.0130  16.1634  16.2614  16.2614  16.2736
    16.5354  16.6688  16.6688  16.7299  16.7399  16.7781  16.9433  16.9433
    16.9738  16.9738  17.2168  17.3251  17.3916  17.4347  17.5237  17.5237
    17.5776  17.5776  17.6078  17.8232  17.8232  17.9897  18.0157  18.0445
    18.0445  18.0772  18.1378  18.1681  18.2121  18.2121  18.2411  18.3258
    18.3406  18.3533  18.3724  18.4102  18.4363  18.4363  18.4644  18.4645
    18.5399  18.6070  18.9543  18.9543  18.9688  18.9766  18.9766  19.0220
    19.1703  19.3973  19.3973  19.4215  19.9137  19.9137  20.8661  21.0971
    21.0971  21.7237

          k = 0.1671 0.1671 0.3900 ( 11912 PWs)   bands (ev):

   -68.8750 -68.8543 -68.8244 -68.8243 -68.8172 -68.8171 -68.8066 -68.8031
   -68.7976 -68.7967 -68.7939 -68.7938 -68.7911 -68.7911 -68.7677 -68.7512
   -35.0839 -35.0839 -35.0746 -35.0663 -35.0401 -35.0401 -35.0360 -35.0360
   -35.0302 -35.0157 -35.0099 -35.0089 -34.9720 -34.9720 -34.9677 -34.9233
   -34.9085 -34.9022 -34.8647 -34.8647 -34.8611 -34.8605 -34.8500 -34.8500
   -34.8347 -34.8282 -34.8171 -34.7909 -34.7909 -34.7824 -34.7824 -34.7619
   -34.7567 -34.7567 -34.7489 -34.7281 -34.7233 -34.7118 -34.7118 -34.6966
   -34.6947 -34.6947 -34.6934 -34.6896 -34.6823 -34.6694 -34.6694 -34.6636
    11.5220  12.5434  13.9780  13.9780  14.1293  14.1293  14.5506  14.5606
    14.5856  14.5857  14.6186  14.7311  14.8505  14.8505  14.8587  14.9857
    15.2232  15.2817  15.6694  15.7185  15.7525  15.7525  15.7737  15.7765
    15.9663  15.9663  16.1524  16.1524  16.2107  16.2107  16.4225  16.5148
    16.5455  16.5455  16.5668  16.5668  16.6462  16.6821  16.6824  16.7277
    16.7278  16.7488  17.0177  17.0177  17.0188  17.1647  17.4884  17.5479
    17.6303  17.7826  17.7826  17.8585  17.8637  17.8637  17.8715  17.9738
    17.9738  18.1159  18.1159  18.2145  18.2266  18.2299  18.2556  18.2937
    18.3154  18.3328  18.3407  18.3472  18.4323  18.4590  18.5230  18.5230
    18.5648  18.5648  18.7103  18.8959  19.1229  19.1229  19.1338  19.1338
    19.1841  19.3703  19.3703  19.3951  19.6388  19.6388  21.3610  21.3610
    21.5601  21.7595

          k = 0.1671 0.1671-0.5014 ( 11914 PWs)   bands (ev):

   -68.8656 -68.8654 -68.8211 -68.8211 -68.8209 -68.8208 -68.8050 -68.8048
   -68.7972 -68.7969 -68.7924 -68.7924 -68.7922 -68.7921 -68.7587 -68.7585
   -35.0619 -35.0619 -35.0619 -35.0619 -35.0492 -35.0490 -35.0478 -35.0476
   -35.0119 -35.0118 -35.0072 -35.0072 -35.0072 -35.0071 -34.9475 -34.9473
   -34.8854 -34.8853 -34.8812 -34.8810 -34.8583 -34.8583 -34.8582 -34.8582
   -34.8241 -34.8239 -34.7974 -34.7974 -34.7861 -34.7861 -34.7860 -34.7859
   -34.7329 -34.7329 -34.7328 -34.7328 -34.7187 -34.7184 -34.7106 -34.7105
   -34.7011 -34.7009 -34.6800 -34.6800 -34.6800 -34.6800 -34.6747 -34.6746
    11.9939  11.9940  14.0791  14.0791  14.0791  14.0791  14.7236  14.7237
    14.7311  14.7311  14.7311  14.7311  14.7491  14.7492  14.9412  14.9413
    14.9928  14.9929  15.6875  15.6877  15.7431  15.7432  16.0343  16.0343
    16.0344  16.0344  16.1065  16.1065  16.1065  16.1066  16.5145  16.5145
    16.5145  16.5145  16.6585  16.6585  16.6585  16.6585  16.6638  16.6638
    16.7086  16.7088  16.7633  16.7634  16.7731  16.7732  17.6716  17.6717
    17.7027  17.7027  17.9125  17.9125  17.9126  17.9126  17.9153  17.9154
    17.9698  17.9698  17.9698  17.9698  18.2850  18.2851  18.2908  18.2910
    18.3102  18.3104  18.3401  18.3402  18.5498  18.5498  18.5704  18.5704
    18.5705  18.5705  18.5941  18.5944  19.2742  19.2742  19.2742  19.2742
    19.3123  19.3124  19.3696  19.3697  19.3697  19.3697  21.6074  21.6074
    21.6075  21.6075

          k = 0.1671 0.2786 0.2786 ( 11912 PWs)   bands (ev):

   -68.8776 -68.8394 -68.8393 -68.8251 -68.8192 -68.8119 -68.8118 -68.8035
   -68.7960 -68.7958 -68.7956 -68.7912 -68.7907 -68.7795 -68.7794 -68.7490
   -35.0953 -35.0869 -35.0869 -35.0619 -35.0619 -35.0428 -35.0212 -35.0207
   -35.0207 -35.0204 -35.0094 -34.9880 -34.9807 -34.9574 -34.9319 -34.9077
   -34.9031 -34.9031 -34.8970 -34.8970 -34.8769 -34.8563 -34.8563 -34.8557
   -34.8152 -34.8080 -34.8080 -34.8017 -34.8017 -34.7844 -34.7823 -34.7692
   -34.7619 -34.7585 -34.7518 -34.7517 -34.7325 -34.7117 -34.7024 -34.6959
   -34.6959 -34.6938 -34.6938 -34.6748 -34.6748 -34.6739 -34.6601 -34.6585
    11.3998  13.3013  13.3013  13.9865  14.0455  14.3458  14.3458  14.4933
    14.5268  14.5713  14.6133  14.6133  14.9674  14.9674  14.9983  15.3287
    15.3287  15.3308  15.5373  15.5432  15.7182  15.8153  15.8153  15.8988
    15.9277  15.9311  15.9311  16.0520  16.1361  16.1616  16.2350  16.4057
    16.4058  16.5925  16.5940  16.6001  16.6001  16.6487  16.7258  16.8015
    16.8551  16.8551  17.1202  17.1203  17.2042  17.2042  17.2759  17.4959
    17.6072  17.6072  17.6676  17.9129  17.9778  17.9988  18.0165  18.0165
    18.1155  18.1155  18.1166  18.1786  18.1954  18.1954  18.2275  18.2876
    18.3114  18.3114  18.3180  18.3483  18.3714  18.3714  18.3741  18.4389
    18.5208  18.6063  18.6063  18.9681  19.0623  19.0744  19.0744  19.1427
    19.1427  19.1705  19.4143  19.4823  19.5815  20.4854  20.4854  21.3838
    22.2125  22.2125

          k = 0.1671 0.2786 0.3900 ( 11911 PWs)   bands (ev):

   -68.8704 -68.8510 -68.8355 -68.8252 -68.8226 -68.8157 -68.8101 -68.8058
   -68.7956 -68.7954 -68.7939 -68.7914 -68.7872 -68.7813 -68.7697 -68.7543
   -35.0830 -35.0727 -35.0672 -35.0530 -35.0435 -35.0382 -35.0366 -35.0319
   -35.0253 -35.0182 -35.0143 -35.0116 -34.9831 -34.9669 -34.9390 -34.9236
   -34.9181 -34.8915 -34.8843 -34.8793 -34.8759 -34.8696 -34.8672 -34.8662
   -34.8340 -34.8139 -34.8070 -34.7951 -34.7917 -34.7859 -34.7812 -34.7734
   -34.7569 -34.7422 -34.7419 -34.7321 -34.7268 -34.7188 -34.7085 -34.7003
   -34.6928 -34.6926 -34.6871 -34.6797 -34.6785 -34.6785 -34.6624 -34.6603
    11.7606  12.7427  13.5137  13.9116  14.1477  14.3318  14.6247  14.6261
    14.6929  14.7039  14.7534  14.8393  14.9124  14.9282  15.0092  15.0961
    15.2606  15.2994  15.5429  15.6414  15.7109  15.7716  15.8201  15.8433
    15.9099  15.9924  16.0033  16.0630  16.1965  16.2060  16.2733  16.3661
    16.3813  16.4847  16.4939  16.5323  16.5398  16.5711  16.5870  16.6208
    16.6799  16.7191  16.7912  16.8383  16.8496  16.9014  17.3283  17.6896
    17.6917  17.7970  17.8163  17.9042  17.9223  17.9397  17.9737  17.9755
    18.0655  18.1001  18.1045  18.1206  18.1739  18.2001  18.2117  18.2602
    18.2843  18.3192  18.3420  18.3485  18.3545  18.3957  18.4204  18.4410
    18.5048  18.5240  18.7372  18.8094  18.8172  19.0027  19.0940  19.2793
    19.2854  19.2869  19.4182  19.4677  19.4788  20.1346  21.0982  21.7220
    22.2987  22.3714

          k = 0.1671 0.2786-0.5014 ( 11906 PWs)   bands (ev):

   -68.8616 -68.8613 -68.8308 -68.8306 -68.8194 -68.8192 -68.8082 -68.8079
   -68.7955 -68.7952 -68.7925 -68.7923 -68.7840 -68.7838 -68.7614 -68.7611
   -35.0652 -35.0652 -35.0551 -35.0551 -35.0427 -35.0425 -35.0424 -35.0422
   -35.0244 -35.0243 -35.0111 -35.0110 -34.9761 -34.9761 -34.9475 -34.9473
   -34.8975 -34.8973 -34.8820 -34.8818 -34.8754 -34.8753 -34.8596 -34.8596
   -34.8284 -34.8284 -34.8117 -34.8115 -34.7900 -34.7899 -34.7644 -34.7642
   -34.7555 -34.7555 -34.7236 -34.7236 -34.7157 -34.7155 -34.7079 -34.7078
   -34.7051 -34.7049 -34.6844 -34.6844 -34.6690 -34.6690 -34.6671 -34.6671
    12.2168  12.2168  13.7302  13.7302  14.2720  14.2720  14.7774  14.7775
    14.8292  14.8292  14.8853  14.8854  14.8998  14.8998  14.9599  14.9600
    15.0811  15.0812  15.7315  15.7317  15.7872  15.7873  15.8515  15.8516
    15.8732  15.8733  16.0051  16.0052  16.1238  16.1238  16.4799  16.4799
    16.4935  16.4936  16.5200  16.5200  16.5278  16.5278  16.5470  16.5470
    16.5961  16.5961  16.6294  16.6295  16.6319  16.6319  17.5960  17.5961
    17.8052  17.8053  17.9034  17.9034  17.9395  17.9396  17.9684  17.9684
    17.9725  17.9725  18.0210  18.0210  18.2459  18.2461  18.2684  18.2685
    18.2803  18.2805  18.3499  18.3500  18.3840  18.3841  18.4943  18.4944
    18.5359  18.5361  18.6226  18.6227  19.0015  19.0016  19.0580  19.0580
    19.3740  19.3741  19.4068  19.4069  19.7960  19.7961  21.7290  21.7291
    22.0512  22.0513

          k = 0.1671 0.3900 0.3900 ( 11924 PWs)   bands (ev):

   -68.8639 -68.8462 -68.8461 -68.8329 -68.8201 -68.8137 -68.8137 -68.8086
   -68.7946 -68.7939 -68.7939 -68.7919 -68.7814 -68.7726 -68.7726 -68.7590
   -35.0754 -35.0571 -35.0571 -35.0443 -35.0443 -35.0397 -35.0360 -35.0360
   -35.0329 -35.0297 -35.0226 -34.9987 -34.9777 -34.9558 -34.9188 -34.9163
   -34.9163 -34.9028 -34.9027 -34.8898 -34.8879 -34.8874 -34.8873 -34.8589
   -34.8269 -34.8075 -34.8070 -34.8070 -34.7998 -34.7998 -34.7899 -34.7579
   -34.7552 -34.7343 -34.7342 -34.7275 -34.7269 -34.7113 -34.7066 -34.7066
   -34.6984 -34.6921 -34.6921 -34.6915 -34.6685 -34.6685 -34.6597 -34.6587
    12.1040  13.0159  13.0159  13.6405  14.3523  14.6110  14.6110  14.7203
    14.8006  14.8785  14.9070  14.9070  14.9747  14.9747  15.1525  15.1930
    15.2850  15.3216  15.3216  15.5794  15.7525  15.7809  15.8434  15.8434
    15.8554  15.8554  15.9197  15.9565  16.0622  16.1282  16.3122  16.3167
    16.3167  16.3998  16.4591  16.4706  16.4707  16.5046  16.5224  16.5224
    16.5334  16.5436  16.5436  16.6235  16.7128  17.0328  17.0329  17.5803
    17.8475  17.8476  17.9078  17.9088  17.9577  17.9663  18.0709  18.0739
    18.1302  18.1302  18.1492  18.1492  18.1573  18.1693  18.1693  18.2357
    18.2456  18.3057  18.3057  18.3205  18.3624  18.4025  18.4025  18.4324
    18.4325  18.4885  18.5675  18.6135  18.8534  18.8534  18.9117  18.9858
    19.3929  19.3930  19.4536  19.5115  19.8534  20.6690  20.6690  21.7866
    22.1438  22.9227

          k = 0.1671 0.3900-0.5014 ( 11932 PWs)   bands (ev):

   -68.8558 -68.8556 -68.8401 -68.8399 -68.8172 -68.8170 -68.8114 -68.8111
   -68.7943 -68.7940 -68.7929 -68.7926 -68.7766 -68.7764 -68.7652 -68.7650
   -35.0618 -35.0618 -35.0472 -35.0471 -35.0391 -35.0391 -35.0391 -35.0389
   -35.0340 -35.0339 -35.0172 -35.0172 -34.9408 -34.9408 -34.9382 -34.9380
   -34.9065 -34.9064 -34.9040 -34.9038 -34.8928 -34.8927 -34.8647 -34.8647
   -34.8329 -34.8329 -34.8038 -34.8037 -34.7945 -34.7944 -34.7803 -34.7803
   -34.7450 -34.7448 -34.7158 -34.7158 -34.7146 -34.7144 -34.7088 -34.7087
   -34.7074 -34.7073 -34.6914 -34.6914 -34.6620 -34.6619 -34.6613 -34.6613
    12.5323  12.5323  13.3294  13.3295  14.5246  14.5246  14.8241  14.8241
    14.8693  14.8693  14.9267  14.9267  15.0951  15.0952  15.1113  15.1113
    15.1902  15.1902  15.6072  15.6073  15.7136  15.7137  15.7586  15.7587
    15.7855  15.7856  15.9011  15.9011  16.1722  16.1722  16.2753  16.2754
    16.3679  16.3680  16.3735  16.3735  16.3778  16.3779  16.4188  16.4188
    16.5758  16.5759  16.5801  16.5802  16.7637  16.7638  17.2819  17.2820
    17.9166  17.9167  17.9859  17.9860  18.0226  18.0227  18.0333  18.0334
    18.1318  18.1318  18.1568  18.1568  18.1800  18.1801  18.2201  18.2202
    18.2606  18.2608  18.2649  18.2651  18.3735  18.3737  18.3799  18.3800
    18.4487  18.4488  18.6778  18.6779  18.6996  18.6996  18.8725  18.8725
    19.4497  19.4497  19.4788  19.4788  20.2561  20.2562  21.2214  21.2214
    22.5663  22.5664

          k = 0.1671-0.5014-0.5014 ( 11948 PWs)   bands (ev):

   -68.8487 -68.8485 -68.8485 -68.8482 -68.8145 -68.8143 -68.8143 -68.8141
   -68.7935 -68.7933 -68.7933 -68.7930 -68.7704 -68.7702 -68.7702 -68.7699
   -35.0525 -35.0525 -35.0525 -35.0525 -35.0410 -35.0409 -35.0409 -35.0407
   -35.0252 -35.0251 -35.0251 -35.0250 -34.9232 -34.9230 -34.9230 -34.9228
   -34.9045 -34.9044 -34.9044 -34.9044 -34.9030 -34.9030 -34.9030 -34.9030
   -34.8064 -34.8064 -34.8063 -34.8063 -34.7987 -34.7986 -34.7986 -34.7986
   -34.7283 -34.7282 -34.7282 -34.7279 -34.7101 -34.7100 -34.7100 -34.7100
   -34.7000 -34.6999 -34.6999 -34.6998 -34.6597 -34.6596 -34.6596 -34.6596
    12.9154  12.9154  12.9154  12.9154  14.7736  14.7737  14.7737  14.7737
    14.8613  14.8613  14.8613  14.8613  15.2481  15.2481  15.2481  15.2481
    15.3446  15.3446  15.3446  15.3447  15.6589  15.6590  15.6590  15.6590
    15.8288  15.8288  15.8288  15.8288  16.2480  16.2481  16.2481  16.2482
    16.2554  16.2554  16.2554  16.2554  16.3599  16.3600  16.3600  16.3600
    16.5560  16.5560  16.5560  16.5561  16.9977  16.9977  16.9977  16.9977
    17.9897  17.9897  17.9897  17.9898  18.0999  18.1000  18.1000  18.1001
    18.1880  18.1881  18.1881  18.1883  18.2007  18.2008  18.2008  18.2010
    18.2152  18.2153  18.2153  18.2154  18.4132  18.4132  18.4132  18.4134
    18.4231  18.4232  18.4232  18.4232  18.7487  18.7487  18.7487  18.7488
    19.4912  19.4913  19.4913  19.4913  20.7328  20.7329  20.7329  20.7329
    23.0955  23.0955

          k = 0.2786 0.2786 0.2786 ( 11881 PWs)   bands (ev):

   -68.8729 -68.8368 -68.8368 -68.8367 -68.8176 -68.8176 -68.8175 -68.8066
   -68.7942 -68.7914 -68.7914 -68.7913 -68.7806 -68.7806 -68.7805 -68.7523
   -35.0813 -35.0813 -35.0813 -35.0400 -35.0400 -35.0400 -35.0278 -35.0278
   -35.0277 -35.0263 -34.9981 -34.9981 -34.9692 -34.9692 -34.9256 -34.9255
   -34.9255 -34.9072 -34.9072 -34.9072 -34.8842 -34.8744 -34.8744 -34.8744
   -34.7863 -34.7863 -34.7863 -34.7856 -34.7853 -34.7853 -34.7853 -34.7789
   -34.7789 -34.7531 -34.7531 -34.7531 -34.7218 -34.7085 -34.7085 -34.7085
   -34.6883 -34.6883 -34.6882 -34.6728 -34.6727 -34.6727 -34.6687 -34.6687
    11.6440  13.4786  13.4786  13.4786  14.2582  14.2582  14.2582  14.6164
    14.6164  14.7372  14.7372  14.7372  15.1000  15.1000  15.1000  15.3207
    15.3207  15.3207  15.3428  15.7116  15.7116  15.7289  15.8619  15.8619
    15.8619  16.0425  16.0425  16.0425  16.0533  16.0533  16.2768  16.2769
    16.2769  16.5011  16.5011  16.5012  16.5351  16.5351  16.5351  16.6083
    16.6083  16.8737  16.8738  16.8738  16.9350  16.9350  16.9350  17.6885
    17.7064  17.7064  17.7064  17.8974  18.0585  18.0585  18.0853  18.0853
    18.0853  18.1162  18.1163  18.1163  18.1733  18.1734  18.1734  18.2932
    18.2933  18.2933  18.3140  18.3140  18.4109  18.4110  18.4110  18.4342
    18.4342  18.7629  18.7630  18.7630  19.1122  19.1122  19.1123  19.1864
    19.1864  19.1864  19.2029  19.2029  20.0717  20.0717  20.0717  22.3736
    22.5073  22.5073

          k = 0.2786 0.2786 0.3900 ( 11903 PWs)   bands (ev):

   -68.8662 -68.8477 -68.8331 -68.8331 -68.8233 -68.8233 -68.8154 -68.8097
   -68.7930 -68.7916 -68.7876 -68.7876 -68.7823 -68.7822 -68.7715 -68.7572
   -35.0701 -35.0701 -35.0609 -35.0404 -35.0403 -35.0368 -35.0300 -35.0287
   -35.0135 -35.0135 -35.0129 -35.0039 -34.9817 -34.9537 -34.9537 -34.9470
   -34.9356 -34.9093 -34.9093 -34.8976 -34.8905 -34.8905 -34.8904 -34.8598
   -34.8182 -34.8100 -34.7883 -34.7852 -34.7739 -34.7739 -34.7627 -34.7627
   -34.7572 -34.7572 -34.7454 -34.7265 -34.7238 -34.7237 -34.7134 -34.7070
   -34.6916 -34.6837 -34.6821 -34.6821 -34.6771 -34.6740 -34.6740 -34.6671
    11.9968  12.9473  13.7072  13.7072  14.1295  14.1295  14.5601  14.7466
    14.7771  14.8720  14.8720  14.9597  15.0699  15.1043  15.1043  15.1066
    15.3304  15.3313  15.4850  15.4850  15.7310  15.8155  15.8715  15.9148
    15.9459  15.9459  15.9535  16.0782  16.0782  16.1663  16.1663  16.1915
    16.2970  16.2970  16.3887  16.4100  16.4100  16.4449  16.4516  16.5122
    16.5511  16.5761  16.6282  16.6282  16.6365  16.6365  17.0267  17.5675
    17.7848  17.8455  17.8455  17.9075  17.9773  18.0815  18.0815  18.1031
    18.1031  18.1331  18.1331  18.1397  18.1976  18.2049  18.2761  18.2998
    18.3077  18.3104  18.3116  18.3116  18.3657  18.3922  18.4034  18.4034
    18.4437  18.5349  18.9100  18.9345  19.0494  19.0494  19.1354  19.1354
    19.2155  19.2155  19.2201  19.2743  19.7112  19.7112  20.6146  21.7643
    22.8511  22.8511

          k = 0.2786 0.2786-0.5014 ( 11886 PWs)   bands (ev):

   -68.8578 -68.8576 -68.8286 -68.8286 -68.8284 -68.8284 -68.8128 -68.8126
   -68.7923 -68.7920 -68.7847 -68.7847 -68.7845 -68.7844 -68.7638 -68.7635
   -35.0555 -35.0555 -35.0555 -35.0555 -35.0349 -35.0347 -35.0335 -35.0334
   -35.0234 -35.0233 -34.9839 -34.9839 -34.9839 -34.9839 -34.9608 -34.9606
   -34.9226 -34.9225 -34.9028 -34.9028 -34.9027 -34.9027 -34.8541 -34.8541
   -34.8349 -34.8348 -34.7885 -34.7884 -34.7641 -34.7641 -34.7639 -34.7639
   -34.7419 -34.7419 -34.7419 -34.7419 -34.7163 -34.7161 -34.7086 -34.7085
   -34.7033 -34.7031 -34.6769 -34.6769 -34.6769 -34.6769 -34.6697 -34.6697
    12.4404  12.4404  13.9401  13.9401  13.9401  13.9401  14.9123  14.9123
    14.9286  14.9287  14.9439  14.9440  15.0024  15.0024  15.0024  15.0024
    15.1911  15.1912  15.7684  15.7686  15.7828  15.7828  15.7829  15.7829
    15.8282  15.8283  16.0553  16.0553  16.0553  16.0554  16.2427  16.2428
    16.3270  16.3270  16.4279  16.4279  16.4279  16.4279  16.4364  16.4364
    16.4364  16.4365  16.4565  16.4565  16.4782  16.4783  17.2670  17.2670
    17.8814  17.8815  17.9863  17.9863  17.9864  17.9864  18.1050  18.1050
    18.1051  18.1051  18.1421  18.1421  18.2353  18.2354  18.2397  18.2399
    18.3055  18.3056  18.3127  18.3129  18.3611  18.3611  18.3612  18.3612
    18.6456  18.6458  18.6907  18.6908  19.1864  19.1864  19.1865  19.1865
    19.2778  19.2779  19.3732  19.3732  19.3732  19.3732  21.1809  21.1810
    23.1502  23.1502

          k = 0.2786 0.3900 0.3900 ( 11917 PWs)   bands (ev):

   -68.8600 -68.8431 -68.8431 -68.8306 -68.8297 -68.8207 -68.8206 -68.8136
   -68.7910 -68.7884 -68.7883 -68.7838 -68.7822 -68.7742 -68.7741 -68.7615
   -35.0620 -35.0517 -35.0516 -35.0395 -35.0374 -35.0374 -35.0259 -35.0178
   -35.0170 -35.0170 -35.0079 -34.9844 -34.9788 -34.9729 -34.9547 -34.9370
   -34.9370 -34.9220 -34.9204 -34.9204 -34.9146 -34.9146 -34.9114 -34.8508
   -34.8345 -34.7857 -34.7857 -34.7740 -34.7740 -34.7726 -34.7590 -34.7557
   -34.7450 -34.7420 -34.7340 -34.7313 -34.7312 -34.7168 -34.7167 -34.7111
   -34.6914 -34.6907 -34.6907 -34.6853 -34.6747 -34.6747 -34.6721 -34.6696
    12.3358  13.2282  13.2282  13.8646  13.9622  14.4365  14.4365  14.8587
    14.9449  14.9708  15.0767  15.0767  15.0985  15.0985  15.1573  15.3076
    15.3244  15.3244  15.4035  15.4359  15.7825  15.8158  15.8877  15.8877
    15.8882  15.9140  15.9148  15.9148  16.0157  16.0619  16.1059  16.2267
    16.2267  16.2492  16.2493  16.2852  16.3013  16.3338  16.3338  16.3763
    16.3763  16.4074  16.4360  16.4599  16.4718  16.7395  16.7395  17.2390
    17.9024  17.9024  17.9363  18.0126  18.0920  18.1293  18.1367  18.1367
    18.1434  18.1553  18.2284  18.2285  18.2344  18.2383  18.2477  18.2976
    18.2976  18.3020  18.3079  18.3079  18.3430  18.3430  18.3762  18.4137
    18.5897  18.7136  18.7136  18.8257  18.9531  18.9531  19.0184  19.2213
    19.2214  19.2405  19.2640  19.3542  19.4098  20.1885  20.1885  21.2124
    23.2715  23.8956

          k = 0.2786 0.3900-0.5014 ( 11900 PWs)   bands (ev):

   -68.8523 -68.8521 -68.8374 -68.8372 -68.8256 -68.8253 -68.8174 -68.8172
   -68.7896 -68.7894 -68.7859 -68.7856 -68.7779 -68.7776 -68.7673 -68.7671
   -35.0500 -35.0500 -35.0433 -35.0432 -35.0293 -35.0291 -35.0289 -35.0288
   -35.0213 -35.0212 -34.9948 -34.9948 -34.9611 -34.9609 -34.9525 -34.9525
   -34.9384 -34.9383 -34.9278 -34.9277 -34.9241 -34.9241 -34.8854 -34.8854
   -34.8097 -34.8097 -34.7728 -34.7727 -34.7643 -34.7642 -34.7629 -34.7629
   -34.7413 -34.7411 -34.7293 -34.7293 -34.7123 -34.7122 -34.7119 -34.7117
   -34.7088 -34.7086 -34.6885 -34.6884 -34.6725 -34.6725 -34.6707 -34.6706
    12.7567  12.7568  13.5498  13.5498  14.2269  14.2269  14.8019  14.8020
    14.9754  14.9754  15.0397  15.0397  15.1411  15.1411  15.2377  15.2377
    15.3289  15.3290  15.6109  15.6110  15.6733  15.6734  15.7829  15.7829
    15.8294  15.8295  15.9734  15.9734  16.0686  16.0686  16.1182  16.1182
    16.1563  16.1563  16.2325  16.2326  16.2766  16.2767  16.3192  16.3192
    16.3726  16.3727  16.4083  16.4084  16.4911  16.4911  16.9506  16.9507
    17.9691  17.9691  18.0167  18.0167  18.0413  18.0414  18.1861  18.1863
    18.1997  18.1999  18.2437  18.2438  18.2538  18.2538  18.2586  18.2587
    18.3047  18.3048  18.3418  18.3420  18.3488  18.3489  18.4223  18.4223
    18.5870  18.5872  18.7359  18.7360  18.9703  18.9703  19.0261  19.0261
    19.2531  19.2532  19.2549  19.2549  19.7912  19.7912  20.6908  20.6908
    23.6702  23.6702

          k = 0.2786-0.5014-0.5014 ( 11900 PWs)   bands (ev):

   -68.8455 -68.8453 -68.8453 -68.8450 -68.8219 -68.8217 -68.8217 -68.8214
   -68.7876 -68.7874 -68.7874 -68.7871 -68.7721 -68.7719 -68.7719 -68.7716
   -35.0398 -35.0398 -35.0398 -35.0398 -35.0324 -35.0323 -35.0323 -35.0321
   -35.0080 -35.0079 -35.0079 -35.0079 -34.9482 -34.9481 -34.9481 -34.9479
   -34.9383 -34.9383 -34.9383 -34.9383 -34.9189 -34.9189 -34.9189 -34.9189
   -34.7855 -34.7854 -34.7854 -34.7854 -34.7659 -34.7659 -34.7659 -34.7659
   -34.7224 -34.7222 -34.7222 -34.7220 -34.7194 -34.7193 -34.7193 -34.7192
   -34.7015 -34.7014 -34.7014 -34.7013 -34.6709 -34.6709 -34.6708 -34.6708
    13.1395  13.1396  13.1396  13.1396  14.5427  14.5427  14.5427  14.5427
    15.0223  15.0224  15.0224  15.0224  15.3796  15.3797  15.3797  15.3798
    15.4347  15.4348  15.4348  15.4348  15.6030  15.6031  15.6031  15.6032
    15.8970  15.8970  15.8970  15.8970  16.0817  16.0818  16.0818  16.0819
    16.1713  16.1713  16.1713  16.1714  16.2030  16.2030  16.2030  16.2030
    16.3677  16.3677  16.3677  16.3678  16.6794  16.6794  16.6794  16.6795
    18.0281  18.0282  18.0282  18.0283  18.1141  18.1142  18.1142  18.1143
    18.1929  18.1931  18.1931  18.1932  18.3222  18.3223  18.3223  18.3224
    18.3421  18.3422  18.3422  18.3423  18.4205  18.4206  18.4206  18.4207
    18.7149  18.7150  18.7150  18.7150  18.8131  18.8132  18.8132  18.8133
    19.2686  19.2686  19.2686  19.2686  20.2316  20.2317  20.2317  20.2317
    24.2000  24.2000

          k = 0.3900 0.3900 0.3900 ( 11890 PWs)   bands (ev):

   -68.8544 -68.8388 -68.8388 -68.8388 -68.8274 -68.8274 -68.8273 -68.8185
   -68.7879 -68.7836 -68.7836 -68.7835 -68.7765 -68.7765 -68.7764 -68.7653
   -35.0423 -35.0422 -35.0422 -35.0319 -35.0319 -35.0319 -35.0160 -35.0004
   -35.0004 -34.9939 -34.9939 -34.9939 -34.9878 -34.9878 -34.9517 -34.9516
   -34.9516 -34.9431 -34.9430 -34.9430 -34.9379 -34.9379 -34.9379 -34.8799
   -34.8102 -34.7648 -34.7648 -34.7648 -34.7524 -34.7524 -34.7524 -34.7407
   -34.7407 -34.7308 -34.7308 -34.7308 -34.7297 -34.7296 -34.7296 -34.7140
   -34.6900 -34.6900 -34.6900 -34.6857 -34.6857 -34.6822 -34.6822 -34.6821
    12.6668  13.5211  13.5211  13.5211  14.1810  14.1810  14.1810  14.9313
    15.0400  15.0400  15.2064  15.2064  15.2064  15.2931  15.2931  15.2931
    15.3382  15.3382  15.3382  15.5479  15.8306  15.8306  15.8514  15.8514
    15.9020  15.9020  15.9020  15.9556  15.9556  15.9556  16.0541  16.0541
    16.0541  16.1604  16.1604  16.1604  16.1957  16.1957  16.1957  16.2285
    16.2285  16.2285  16.3366  16.3366  16.4574  16.4574  16.4574  16.9097
    17.9840  17.9840  17.9840  18.0884  18.0884  18.1322  18.1322  18.1322
    18.2437  18.2437  18.2488  18.2488  18.2488  18.2745  18.2745  18.2745
    18.3226  18.3226  18.3226  18.4304  18.4498  18.4499  18.4499  18.5569
    18.5569  18.9777  18.9777  18.9964  18.9964  18.9964  19.0472  19.0472
    19.0472  19.0718  19.0718  19.0719  19.7781  19.7782  19.7782  20.7033
    24.5319  24.5319

          k = 0.3900 0.3900-0.5014 ( 11886 PWs)   bands (ev):

   -68.8473 -68.8471 -68.8336 -68.8336 -68.8334 -68.8333 -68.8233 -68.8231
   -68.7856 -68.7854 -68.7797 -68.7797 -68.7795 -68.7794 -68.7704 -68.7702
   -35.0336 -35.0336 -35.0336 -35.0335 -35.0184 -35.0183 -35.0175 -35.0173
   -35.0050 -35.0049 -34.9782 -34.9779 -34.9685 -34.9685 -34.9685 -34.9684
   -34.9643 -34.9641 -34.9523 -34.9523 -34.9522 -34.9522 -34.9115 -34.9115
   -34.7868 -34.7868 -34.7473 -34.7472 -34.7458 -34.7458 -34.7458 -34.7457
   -34.7373 -34.7373 -34.7372 -34.7372 -34.7203 -34.7203 -34.7131 -34.7129
   -34.7064 -34.7062 -34.6876 -34.6876 -34.6876 -34.6875 -34.6823 -34.6822
    13.0736  13.0736  13.8572  13.8572  13.8573  13.8573  14.5586  14.5587
    15.1583  15.1584  15.2241  15.2242  15.2777  15.2777  15.2777  15.2777
    15.4725  15.4727  15.6063  15.6063  15.6064  15.6064  15.8344  15.8345
    15.8811  15.8812  15.8908  15.8910  15.9682  15.9682  16.0491  16.0491
    16.0492  16.0492  16.1647  16.1647  16.1648  16.1648  16.2184  16.2184
    16.2184  16.2184  16.2487  16.2487  16.2527  16.2529  16.6305  16.6306
    18.0378  18.0379  18.0715  18.0715  18.0716  18.0716  18.1774  18.1776
    18.1853  18.1855  18.2477  18.2478  18.2494  18.2494  18.2496  18.2496
    18.4236  18.4236  18.4236  18.4236  18.4655  18.4656  18.7043  18.7045
    18.7271  18.7271  18.7533  18.7535  19.0112  19.0113  19.0113  19.0113
    19.0599  19.0600  19.4030  19.4030  19.4030  19.4031  20.2295  20.2296
    24.8550  24.8550

          k = 0.3900-0.5014-0.5014 ( 11892 PWs)   bands (ev):

   -68.8410 -68.8408 -68.8408 -68.8405 -68.8289 -68.8287 -68.8287 -68.8284
   -68.7824 -68.7822 -68.7822 -68.7819 -68.7747 -68.7745 -68.7745 -68.7742
   -35.0215 -35.0215 -35.0214 -35.0214 -35.0178 -35.0177 -35.0177 -35.0176
   -34.9869 -34.9868 -34.9868 -34.9867 -34.9743 -34.9742 -34.9742 -34.9740
   -34.9699 -34.9698 -34.9698 -34.9698 -34.9399 -34.9398 -34.9398 -34.9398
   -34.7651 -34.7651 -34.7651 -34.7650 -34.7359 -34.7358 -34.7358 -34.7358
   -34.7315 -34.7314 -34.7314 -34.7314 -34.7159 -34.7158 -34.7158 -34.7156
   -34.7047 -34.7046 -34.7046 -34.7045 -34.6878 -34.6878 -34.6878 -34.6878
    13.4549  13.4549  13.4549  13.4549  14.2153  14.2153  14.2153  14.2153
    15.2427  15.2427  15.2427  15.2427  15.4276  15.4277  15.4277  15.4278
    15.5440  15.5441  15.5441  15.5442  15.5907  15.5907  15.5907  15.5908
    15.9731  15.9732  15.9732  15.9732  15.9887  15.9888  15.9888  15.9888
    16.0092  16.0093  16.0093  16.0094  16.1329  16.1329  16.1329  16.1329
    16.1856  16.1857  16.1857  16.1858  16.3617  16.3618  16.3618  16.3618
    18.0874  18.0874  18.0874  18.0875  18.1367  18.1368  18.1368  18.1370
    18.1793  18.1794  18.1794  18.1796  18.2393  18.2394  18.2394  18.2395
    18.5218  18.5219  18.5219  18.5219  18.6141  18.6142  18.6142  18.6144
    18.8155  18.8156  18.8156  18.8157  19.0070  19.0070  19.0070  19.0070
    19.0544  19.0544  19.0544  19.0544  19.8052  19.8053  19.8053  19.8053
    25.3982  25.3983

          k =-0.5014-0.5014-0.5014 ( 11752 PWs)   bands (ev):

   -68.8353 -68.8352 -68.8352 -68.8352 -68.8350 -68.8350 -68.8350 -68.8346
   -68.7782 -68.7780 -68.7780 -68.7780 -68.7778 -68.7778 -68.7778 -68.7774
   -34.9980 -34.9980 -34.9980 -34.9979 -34.9979 -34.9979 -34.9979 -34.9979
   -34.9977 -34.9977 -34.9977 -34.9977 -34.9977 -34.9976 -34.9976 -34.9976
   -34.9628 -34.9627 -34.9627 -34.9627 -34.9626 -34.9626 -34.9626 -34.9626
   -34.7469 -34.7468 -34.7468 -34.7468 -34.7467 -34.7467 -34.7467 -34.7467
   -34.7093 -34.7093 -34.7093 -34.7092 -34.7092 -34.7092 -34.7092 -34.7092
   -34.7091 -34.7091 -34.7090 -34.7090 -34.7090 -34.7089 -34.7089 -34.7089
    13.8306  13.8306  13.8306  13.8306  13.8306  13.8306  13.8306  13.8307
    15.4842  15.4842  15.4843  15.4843  15.4843  15.4843  15.4843  15.4843
    15.4843  15.4843  15.4843  15.4844  15.4844  15.4844  15.4844  15.4844
    16.0540  16.0540  16.0540  16.0541  16.0541  16.0541  16.0541  16.0541
    16.0542  16.0542  16.0542  16.0542  16.0542  16.0543  16.0543  16.0543
    16.0849  16.0850  16.0850  16.0850  16.0851  16.0851  16.0851  16.0851
    18.1603  18.1603  18.1603  18.1603  18.1603  18.1604  18.1604  18.1604
    18.1604  18.1604  18.1604  18.1605  18.1605  18.1605  18.1606  18.1606
    18.7487  18.7487  18.7487  18.7487  18.7487  18.7487  18.7488  18.7488
    18.7489  18.7489  18.7489  18.7489  18.7489  18.7490  18.7490  18.7490
    19.4187  19.4188  19.4188  19.4188  19.4188  19.4189  19.4189  19.4189
    26.5585  26.5585

 ------ SPIN DOWN ----------


          k = 0.0557 0.0557 0.0557 ( 11876 PWs)   bands (ev):

   -66.4196 -66.3341 -66.3341 -66.3341 -66.3203 -66.3202 -66.3202 -66.3190
   -66.3189 -66.3189 -66.3188 -66.3188 -66.3187 -66.3127 -66.3121 -66.2464
   -32.7366 -32.7366 -32.7366 -32.7339 -32.7339 -32.7339 -32.5871 -32.5871
   -32.5813 -32.5161 -32.5140 -32.5140 -32.5140 -32.4938 -32.4938 -32.4821
   -32.4821 -32.4821 -32.4484 -32.4484 -32.4260 -32.4124 -32.4124 -32.4124
   -32.4020 -32.4020 -32.4020 -32.3903 -32.3903 -32.3903 -32.3875 -32.3875
   -32.3875 -32.3798 -32.3798 -32.3798 -32.3702 -32.3702 -32.3702 -32.2220
   -32.2208 -32.2208 -32.2208 -32.2179 -32.2179 -32.2179 -32.2164 -32.2164
    10.6534  14.6075  14.6075  14.6075  15.2359  15.2359  15.2359  15.2437
    15.2438  15.2438  15.2753  15.2753  15.2753  15.9026  15.9026  16.9876
    17.0646  17.0646  17.1667  17.1667  17.1841  17.2515  17.2515  17.2515
    17.2647  17.2648  17.2648  18.0044  18.0044  18.0044  18.3927  18.3927
    18.3927  18.5900  18.5900  18.6372  18.8584  18.8585  18.8585  19.0059
    19.0059  19.0059  19.0438  19.0438  19.0438  19.1505  19.1505  19.1505
    19.5816  19.5816  19.5817  19.6285  19.6285  19.6285  19.9374  19.9374
    19.9375  20.1858  20.1859  20.1859  20.6653  20.6653  20.6653  20.6907
    20.6907  20.6907  20.8589  20.8589  21.1393  21.1393  21.1393  21.1860
    21.1860  21.1869  21.1869  21.2835  21.2835  21.2835  21.3683  21.4511
    21.4511  21.7143  21.7143  21.7143  21.8202  21.8202  21.8202  21.8667
    21.8667  21.8667

          k = 0.0557 0.0557 0.1671 ( 11881 PWs)   bands (ev):

   -66.4165 -66.3493 -66.3334 -66.3334 -66.3219 -66.3219 -66.3198 -66.3187
   -66.3186 -66.3183 -66.3179 -66.3179 -66.3134 -66.3128 -66.3044 -66.2487
   -32.7294 -32.7294 -32.7285 -32.7260 -32.7214 -32.7214 -32.5903 -32.5813
   -32.5723 -32.5499 -32.5421 -32.5421 -32.5403 -32.5391 -32.5117 -32.5117
   -32.4801 -32.4550 -32.4455 -32.4447 -32.4339 -32.4123 -32.4123 -32.4045
   -32.3955 -32.3936 -32.3936 -32.3929 -32.3921 -32.3851 -32.3851 -32.3804
   -32.3804 -32.3762 -32.3762 -32.3481 -32.3454 -32.3454 -32.3390 -32.2357
   -32.2287 -32.2287 -32.2277 -32.2253 -32.2214 -32.2206 -32.2206 -32.2185
    10.7866  13.9046  14.6769  14.6769  15.2120  15.2120  15.2999  15.2999
    15.3337  15.3337  15.3343  15.3722  15.7464  15.9522  15.9697  16.8913
    16.9738  17.0118  17.0897  17.2277  17.2394  17.2969  17.3018  17.3018
    17.3239  17.3411  17.3411  17.5998  17.9077  17.9077  18.2124  18.2124
    18.5631  18.5835  18.6207  18.6516  18.6517  18.6989  18.7184  18.8256
    18.8256  19.0711  19.2210  19.2211  19.2540  19.2540  19.2740  19.2978
    19.2978  19.3103  19.3103  19.3127  19.3296  19.3761  19.6949  20.1611
    20.1611  20.4043  20.4044  20.4327  20.5853  20.5853  20.6546  20.6546
    20.6920  20.7138  20.7798  20.8902  21.1423  21.1455  21.1486  21.1817
    21.1833  21.1845  21.2075  21.2307  21.2307  21.3010  21.4443  21.5139
    21.5276  21.5276  21.7133  21.7133  21.7321  21.7321  21.9088  21.9088
    22.0477  22.0477

          k = 0.0557 0.0557 0.2786 ( 11883 PWs)   bands (ev):

   -66.4106 -66.3643 -66.3321 -66.3321 -66.3240 -66.3240 -66.3190 -66.3183
   -66.3183 -66.3176 -66.3174 -66.3174 -66.3142 -66.3134 -66.2910 -66.2531
   -32.7127 -32.7127 -32.7123 -32.7104 -32.7001 -32.7001 -32.5907 -32.5877
   -32.5824 -32.5803 -32.5803 -32.5695 -32.5606 -32.5586 -32.5515 -32.5515
   -32.4758 -32.4661 -32.4648 -32.4500 -32.4104 -32.4104 -32.4058 -32.4056
   -32.4015 -32.3974 -32.3974 -32.3835 -32.3835 -32.3805 -32.3805 -32.3625
   -32.3555 -32.3442 -32.3442 -32.3183 -32.3152 -32.3152 -32.3099 -32.2583
   -32.2425 -32.2425 -32.2416 -32.2400 -32.2320 -32.2291 -32.2291 -32.2270
    11.0497  13.1962  14.7991  14.7991  15.1901  15.1901  15.3890  15.3890
    15.4042  15.4042  15.5232  15.5579  16.0400  16.0689  16.1028  16.7149
    16.7381  17.0024  17.0305  17.1840  17.1936  17.2135  17.4130  17.4130
    17.4781  17.4781  17.5084  17.5392  17.8163  17.8164  18.0587  18.0587
    18.3685  18.3685  18.5237  18.5237  18.5430  18.5727  18.6169  18.6215
    18.7617  18.7617  18.7904  18.8349  18.8349  18.9176  18.9238  19.3992
    19.4652  19.5486  19.5542  19.5542  19.5670  19.5670  19.6577  20.4548
    20.4548  20.4634  20.4634  20.5532  20.5532  20.6237  20.6701  20.6970
    20.6970  20.7426  20.7604  20.9057  20.9497  21.0348  21.0763  21.0813
    21.1480  21.1729  21.1759  21.1794  21.3505  21.3505  21.3668  21.3722
    21.5732  21.5732  21.6242  21.6242  21.7086  21.7086  22.0341  22.0341
    22.0944  22.0944

          k = 0.0557 0.0557 0.3900 ( 11908 PWs)   bands (ev):

   -66.4021 -66.3786 -66.3305 -66.3305 -66.3262 -66.3262 -66.3181 -66.3180
   -66.3178 -66.3175 -66.3174 -66.3166 -66.3153 -66.3143 -66.2788 -66.2596
   -32.6887 -32.6883 -32.6883 -32.6877 -32.6706 -32.6706 -32.6248 -32.6226
   -32.6199 -32.6199 -32.5941 -32.5940 -32.5888 -32.5750 -32.5523 -32.5405
   -32.5047 -32.4932 -32.4508 -32.4398 -32.4192 -32.4134 -32.4078 -32.4078
   -32.4011 -32.4011 -32.3821 -32.3821 -32.3808 -32.3808 -32.3651 -32.3241
   -32.3200 -32.3132 -32.3132 -32.2911 -32.2886 -32.2869 -32.2868 -32.2835
   -32.2622 -32.2620 -32.2615 -32.2615 -32.2475 -32.2429 -32.2429 -32.2413
    11.4359  12.5285  14.9420  14.9420  15.1488  15.1488  15.4680  15.4680
    15.4684  15.4684  15.7869  15.8162  16.1407  16.2108  16.2991  16.4316
    16.4373  16.8613  17.0261  17.0372  17.1285  17.1363  17.5809  17.5809
    17.6700  17.6700  17.7834  17.8130  17.8217  17.8217  17.9854  17.9854
    18.1108  18.1109  18.2190  18.2190  18.3317  18.3317  18.4222  18.4222
    18.4998  18.5187  18.5319  18.5628  18.5641  18.5829  18.9143  19.2552
    19.7672  19.8157  19.8157  19.8648  19.8770  19.8770  19.9834  20.2787
[...]
   -32.2550 -32.2549 -32.2549 -32.2382 -32.2382 -32.2382 -32.2333 -32.2333
    11.8079  13.7819  13.7819  13.7819  15.0093  15.0093  15.0093  16.0597
    16.0597  16.0597  16.3794  16.3794  16.3794  16.3898  16.3898  16.4398
    16.6734  17.1208  17.1208  17.1594  17.1594  17.1594  17.3782  17.3782
    17.3831  17.3831  17.3831  17.5749  17.5750  17.5750  17.9793  17.9793
    17.9793  18.0345  18.0345  18.0345  18.0502  18.0502  18.0502  18.0588
    18.0588  18.0588  18.2701  18.2701  18.5039  18.5039  18.5039  19.4464
    19.5606  19.9944  19.9944  19.9945  20.0761  20.0761  20.0761  20.3543
    20.3544  20.3544  20.4362  20.4362  20.4363  20.6723  20.6723  20.6723
    20.7464  20.7464  20.9669  20.9669  21.0417  21.0417  21.0678  21.0678
    21.0678  21.1055  21.1055  21.1055  21.1152  21.1152  21.2561  21.2561
    21.2561  21.3217  21.3217  21.3217  21.7797  21.7797  21.7797  23.7941
    23.9221  23.9221

          k = 0.2786 0.2786 0.3900 ( 11903 PWs)   bands (ev):

   -66.3874 -66.3675 -66.3517 -66.3517 -66.3411 -66.3410 -66.3325 -66.3262
   -66.3082 -66.3068 -66.3025 -66.3025 -66.2968 -66.2968 -66.2852 -66.2697
   -32.6751 -32.6751 -32.6651 -32.6421 -32.6421 -32.6390 -32.6312 -32.6289
   -32.6134 -32.6134 -32.6109 -32.6023 -32.5763 -32.5475 -32.5475 -32.5394
   -32.5258 -32.4970 -32.4970 -32.4845 -32.4780 -32.4763 -32.4763 -32.4424
   -32.3984 -32.3879 -32.3644 -32.3616 -32.3484 -32.3484 -32.3362 -32.3362
   -32.3302 -32.3302 -32.3180 -32.2966 -32.2937 -32.2937 -32.2824 -32.2754
   -32.2589 -32.2498 -32.2482 -32.2482 -32.2427 -32.2395 -32.2395 -32.2317
    12.1702  13.1792  14.0536  14.0536  14.7040  14.7040  15.3147  16.0850
    16.2424  16.2424  16.2810  16.4491  16.4491  16.5078  16.5363  16.5622
    16.6564  16.9331  17.1711  17.2045  17.2045  17.2538  17.2814  17.3136
    17.4238  17.4850  17.4850  17.5349  17.6333  17.6334  17.7601  17.8007
    17.8007  17.8483  17.8483  17.8815  17.9305  17.9305  17.9386  17.9386
    18.0350  18.0647  18.1531  18.2110  18.2431  18.2431  18.6370  19.1874
    19.6760  20.0936  20.0936  20.1808  20.2217  20.2535  20.2535  20.2619
    20.2619  20.2631  20.5162  20.5971  20.5971  20.6142  20.7404  20.7404
    20.7497  20.8129  20.8361  20.8514  20.9471  20.9904  21.0518  21.0518
    21.0554  21.0676  21.1033  21.1582  21.1614  21.1615  21.1856  21.2093
    21.2276  21.2276  21.3026  21.3026  21.4746  21.4746  22.2513  23.2685
    24.2215  24.2215

          k = 0.2786 0.2786-0.5014 ( 11886 PWs)   bands (ev):

   -66.3783 -66.3782 -66.3468 -66.3467 -66.3466 -66.3466 -66.3297 -66.3295
   -66.3074 -66.3073 -66.2993 -66.2993 -66.2991 -66.2991 -66.2768 -66.2766
   -32.6589 -32.6589 -32.6588 -32.6588 -32.6364 -32.6362 -32.6352 -32.6350
   -32.6227 -32.6227 -32.5809 -32.5809 -32.5808 -32.5808 -32.5534 -32.5532
   -32.5123 -32.5122 -32.4899 -32.4899 -32.4898 -32.4898 -32.4379 -32.4379
   -32.4152 -32.4151 -32.3649 -32.3648 -32.3377 -32.3377 -32.3375 -32.3375
   -32.3135 -32.3135 -32.3134 -32.3134 -32.2859 -32.2857 -32.2770 -32.2769
   -32.2712 -32.2710 -32.2426 -32.2426 -32.2426 -32.2426 -32.2346 -32.2346
    12.6334  12.6335  14.3733  14.3733  14.3733  14.3733  15.6861  15.6861
    16.3913  16.3913  16.3914  16.3914  16.5088  16.5089  16.5880  16.5881
    16.7207  16.7208  17.2389  17.2390  17.3026  17.3028  17.3936  17.3936
    17.3937  17.3937  17.4813  17.4814  17.6275  17.6275  17.6276  17.6276
    17.7083  17.7083  17.8923  17.8923  17.8924  17.8924  18.0080  18.0081
    18.0081  18.0081  18.0712  18.0713  18.1413  18.1415  18.8669  18.8669
    19.9229  19.9229  20.1698  20.1698  20.1698  20.1698  20.4473  20.4473
    20.4473  20.4473  20.4488  20.4489  20.5032  20.5034  20.6823  20.6824
    20.8450  20.8451  20.9722  20.9723  20.9913  20.9913  20.9913  20.9914
    21.0501  21.0501  21.0637  21.0638  21.2278  21.2279  21.2408  21.2408
    21.2408  21.2408  21.2535  21.2535  21.2535  21.2536  22.7544  22.7545
    24.4565  24.4565

          k = 0.2786 0.3900 0.3900 ( 11917 PWs)   bands (ev):

   -66.3808 -66.3625 -66.3625 -66.3490 -66.3480 -66.3382 -66.3382 -66.3305
   -66.3061 -66.3033 -66.3033 -66.2984 -66.2967 -66.2880 -66.2880 -66.2744
   -32.6660 -32.6548 -32.6548 -32.6412 -32.6386 -32.6386 -32.6268 -32.6171
   -32.6171 -32.6164 -32.6066 -32.5814 -32.5733 -32.5687 -32.5479 -32.5274
   -32.5274 -32.5112 -32.5109 -32.5109 -32.5032 -32.5032 -32.4994 -32.4342
   -32.4147 -32.3614 -32.3614 -32.3488 -32.3488 -32.3477 -32.3324 -32.3285
   -32.3168 -32.3136 -32.3054 -32.3018 -32.3018 -32.2859 -32.2859 -32.2797
   -32.2582 -32.2578 -32.2578 -32.2517 -32.2401 -32.2401 -32.2373 -32.2345
    12.5207  13.4865  13.4865  14.2819  14.3354  15.0082  15.0082  15.7565
    16.4439  16.4606  16.4606  16.6007  16.6193  16.6443  16.6443  16.6763
    16.7378  17.0272  17.0272  17.1563  17.2507  17.2742  17.2827  17.4076
    17.4076  17.4448  17.4448  17.5127  17.5158  17.5679  17.6738  17.6738
    17.6809  17.7333  17.7333  17.7716  17.8563  17.8564  17.8614  17.8895
    17.9684  17.9684  18.0196  18.0353  18.1159  18.3229  18.3230  18.8166
    19.9323  20.2222  20.2554  20.2566  20.2567  20.4049  20.4088  20.4088
    20.4440  20.4440  20.4874  20.4874  20.6178  20.6426  20.6849  20.6849
    20.7115  20.7682  20.8331  20.8921  20.9566  20.9838  20.9983  21.0332
    21.0496  21.0496  21.0537  21.0537  21.0985  21.1297  21.1297  21.1321
    21.1815  21.2069  21.2069  21.2971  21.3046  21.8910  21.8910  22.7965
    24.6038  25.0956

          k = 0.2786 0.3900-0.5014 ( 11900 PWs)   bands (ev):

   -66.3724 -66.3722 -66.3563 -66.3561 -66.3435 -66.3433 -66.3346 -66.3345
   -66.3046 -66.3044 -66.3006 -66.3004 -66.2920 -66.2918 -66.2806 -66.2804
   -32.6526 -32.6525 -32.6454 -32.6454 -32.6301 -32.6300 -32.6288 -32.6288
   -32.6217 -32.6216 -32.5928 -32.5927 -32.5538 -32.5536 -32.5463 -32.5462
   -32.5297 -32.5296 -32.5173 -32.5172 -32.5137 -32.5136 -32.4724 -32.4723
   -32.3876 -32.3875 -32.3477 -32.3477 -32.3382 -32.3381 -32.3364 -32.3363
   -32.3127 -32.3125 -32.2996 -32.2995 -32.2810 -32.2809 -32.2809 -32.2808
   -32.2772 -32.2771 -32.2553 -32.2552 -32.2378 -32.2378 -32.2356 -32.2356
    12.9663  12.9664  13.8640  13.8641  14.6671  14.6672  15.3739  15.3740
    16.5901  16.5901  16.6018  16.6018  16.6690  16.6691  16.6847  16.6848
    16.8492  16.8493  17.2512  17.2513  17.2621  17.2622  17.2920  17.2920
    17.3257  17.3258  17.4448  17.4448  17.5363  17.5364  17.6123  17.6123
    17.6802  17.6804  17.6926  17.6926  17.8300  17.8300  17.9066  17.9067
    17.9281  17.9281  18.0370  18.0371  18.0585  18.0585  18.5133  18.5133
    20.2056  20.2057  20.2329  20.2330  20.3654  20.3654  20.4773  20.4774
    20.5465  20.5466  20.5509  20.5510  20.5567  20.5568  20.6246  20.6247
    20.7895  20.7897  20.8013  20.8013  20.9231  20.9232  21.0096  21.0098
    21.0104  21.0104  21.0411  21.0412  21.0506  21.0507  21.0975  21.0975
    21.2139  21.2140  21.2647  21.2647  21.5545  21.5546  22.3382  22.3383
    24.9440  24.9440

          k = 0.2786-0.5014-0.5014 ( 11900 PWs)   bands (ev):

   -66.3650 -66.3648 -66.3648 -66.3647 -66.3395 -66.3393 -66.3393 -66.3391
   -66.3024 -66.3022 -66.3022 -66.3021 -66.2857 -66.2855 -66.2855 -66.2854
   -32.6411 -32.6411 -32.6411 -32.6410 -32.6335 -32.6333 -32.6333 -32.6332
   -32.6072 -32.6071 -32.6071 -32.6070 -32.5397 -32.5396 -32.5396 -32.5395
   -32.5295 -32.5295 -32.5295 -32.5294 -32.5093 -32.5093 -32.5093 -32.5092
   -32.3611 -32.3611 -32.3611 -32.3610 -32.3401 -32.3401 -32.3401 -32.3401
   -32.2920 -32.2918 -32.2918 -32.2917 -32.2887 -32.2886 -32.2886 -32.2885
   -32.2696 -32.2695 -32.2695 -32.2693 -32.2359 -32.2359 -32.2359 -32.2359
    13.3846  13.3846  13.3846  13.3846  15.0156  15.0156  15.0156  15.0157
    16.6839  16.6840  16.6840  16.6840  16.7440  16.7441  16.7441  16.7441
    17.0550  17.0550  17.0550  17.0551  17.1949  17.1949  17.1949  17.1950
    17.4364  17.4364  17.4364  17.4364  17.5127  17.5129  17.5129  17.5130
    17.6843  17.6844  17.6844  17.6844  17.7922  17.7922  17.7922  17.7922
    17.9597  17.9598  17.9598  17.9599  18.2293  18.2293  18.2293  18.2293
    20.3509  20.3510  20.3510  20.3511  20.5037  20.5037  20.5037  20.5037
    20.5237  20.5237  20.5237  20.5238  20.5994  20.5995  20.5995  20.5995
    20.6797  20.6798  20.6798  20.6799  20.9188  20.9189  20.9189  20.9190
    21.0174  21.0174  21.0174  21.0174  21.0471  21.0473  21.0473  21.0474
    21.2502  21.2502  21.2502  21.2502  21.9375  21.9376  21.9376  21.9377
    25.4243  25.4243

          k = 0.3900 0.3900 0.3900 ( 11890 PWs)   bands (ev):

   -66.3746 -66.3578 -66.3578 -66.3578 -66.3455 -66.3454 -66.3454 -66.3358
   -66.3028 -66.2982 -66.2981 -66.2981 -66.2906 -66.2905 -66.2905 -66.2785
   -32.6442 -32.6442 -32.6442 -32.6325 -32.6325 -32.6325 -32.6159 -32.5973
   -32.5973 -32.5917 -32.5917 -32.5917 -32.5843 -32.5843 -32.5437 -32.5437
   -32.5437 -32.5358 -32.5358 -32.5358 -32.5288 -32.5288 -32.5288 -32.4662
   -32.3881 -32.3384 -32.3384 -32.3384 -32.3252 -32.3252 -32.3252 -32.3127
   -32.3127 -32.3015 -32.3015 -32.3014 -32.3000 -32.3000 -32.3000 -32.2828
   -32.2570 -32.2570 -32.2569 -32.2520 -32.2520 -32.2483 -32.2482 -32.2482
    12.8630  13.7963  13.7963  13.7963  14.5930  14.5930  14.5930  15.3779
    16.6704  16.6704  16.6704  16.7748  16.7748  16.8348  16.8348  16.8348
    16.9158  17.0247  17.0247  17.0248  17.3205  17.3205  17.3400  17.3400
    17.4684  17.4684  17.4684  17.4897  17.4897  17.4897  17.5840  17.5840
    17.5840  17.6563  17.6563  17.6563  17.7735  17.7735  17.7735  17.7751
    17.7751  17.7751  17.9583  17.9583  18.0083  18.0083  18.0083  18.4373
    20.2119  20.4177  20.4177  20.4178  20.4499  20.4500  20.4500  20.5307
    20.5307  20.5307  20.7085  20.7085  20.7085  20.7528  20.7528  20.8010
    20.8010  20.8010  20.8254  20.8254  20.9079  20.9079  20.9313  20.9313
    20.9841  20.9841  20.9841  21.0284  21.0284  21.0284  21.0876  21.0876
    21.0876  21.0984  21.0984  21.0985  21.5185  21.5185  21.5185  22.3547
    25.7080  25.7080

          k = 0.3900 0.3900-0.5014 ( 11886 PWs)   bands (ev):

   -66.3670 -66.3668 -66.3521 -66.3521 -66.3519 -66.3519 -66.3410 -66.3408
   -66.3003 -66.3001 -66.2940 -66.2940 -66.2938 -66.2938 -66.2840 -66.2838
   -32.6345 -32.6345 -32.6345 -32.6345 -32.6173 -32.6173 -32.6170 -32.6168
   -32.6039 -32.6038 -32.5728 -32.5726 -32.5638 -32.5638 -32.5638 -32.5637
   -32.5581 -32.5580 -32.5446 -32.5446 -32.5445 -32.5445 -32.5011 -32.5010
   -32.3625 -32.3625 -32.3197 -32.3196 -32.3176 -32.3176 -32.3175 -32.3175
   -32.3086 -32.3086 -32.3085 -32.3085 -32.2897 -32.2896 -32.2823 -32.2821
   -32.2747 -32.2745 -32.2543 -32.2543 -32.2542 -32.2542 -32.2483 -32.2483
    13.2956  13.2956  14.1757  14.1758  14.1758  14.1758  14.9713  14.9713
    16.8240  16.8240  16.8240  16.8240  16.8836  16.8836  16.8941  16.8942
    16.8980  16.8981  17.2112  17.2113  17.2113  17.2113  17.3463  17.3464
    17.4034  17.4036  17.4076  17.4076  17.4554  17.4555  17.6108  17.6109
    17.6109  17.6109  17.6989  17.6989  17.6990  17.6990  17.7508  17.7508
    17.7508  17.7509  17.8385  17.8386  17.8691  17.8693  18.1412  18.1413
    20.4645  20.4645  20.4645  20.4646  20.5093  20.5094  20.6423  20.6424
    20.6476  20.6476  20.6477  20.6477  20.6499  20.6500  20.6554  20.6555
    20.8171  20.8172  20.8793  20.8794  20.9347  20.9348  20.9621  20.9623
    20.9638  20.9638  20.9639  20.9639  21.0306  21.0307  21.0642  21.0642
    21.0642  21.0642  21.1767  21.1768  21.1768  21.1768  21.9308  21.9309
    25.9979  25.9979

          k = 0.3900-0.5014-0.5014 ( 11892 PWs)   bands (ev):

   -66.3602 -66.3600 -66.3600 -66.3598 -66.3471 -66.3469 -66.3469 -66.3467
   -66.2968 -66.2967 -66.2967 -66.2965 -66.2885 -66.2884 -66.2884 -66.2882
   -32.6209 -32.6209 -32.6209 -32.6209 -32.6172 -32.6171 -32.6171 -32.6169
   -32.5840 -32.5839 -32.5839 -32.5838 -32.5688 -32.5686 -32.5686 -32.5685
   -32.5641 -32.5641 -32.5641 -32.5641 -32.5323 -32.5322 -32.5322 -32.5321
   -32.3387 -32.3387 -32.3387 -32.3386 -32.3071 -32.3071 -32.3071 -32.3071
   -32.3019 -32.3018 -32.3018 -32.3017 -32.2851 -32.2850 -32.2850 -32.2848
   -32.2730 -32.2729 -32.2729 -32.2728 -32.2545 -32.2545 -32.2545 -32.2544
    13.7074  13.7074  13.7074  13.7074  14.5565  14.5565  14.5565  14.5565
    16.9052  16.9053  16.9053  16.9054  17.0431  17.0431  17.0431  17.0432
    17.0894  17.0895  17.0895  17.0896  17.1624  17.1624  17.1624  17.1625
    17.5053  17.5054  17.5054  17.5054  17.5230  17.5230  17.5230  17.5230
    17.5260  17.5261  17.5261  17.5262  17.7098  17.7098  17.7099  17.7099
    17.7695  17.7696  17.7696  17.7697  17.8492  17.8493  17.8493  17.8493
    20.5992  20.5993  20.5993  20.5993  20.6274  20.6275  20.6275  20.6275
    20.7026  20.7027  20.7027  20.7028  20.7562  20.7563  20.7563  20.7564
    20.8328  20.8328  20.8328  20.8329  20.8786  20.8788  20.8788  20.8789
    20.9290  20.9290  20.9290  20.9291  20.9459  20.9461  20.9461  20.9462
    21.0090  21.0090  21.0090  21.0090  21.5453  21.5453  21.5453  21.5454
    26.5150  26.5151

          k =-0.5014-0.5014-0.5014 ( 11752 PWs)   bands (ev):

   -66.3539 -66.3537 -66.3537 -66.3537 -66.3536 -66.3536 -66.3536 -66.3534
   -66.2923 -66.2921 -66.2921 -66.2921 -66.2919 -66.2919 -66.2919 -66.2918
   -32.5951 -32.5951 -32.5951 -32.5950 -32.5950 -32.5949 -32.5949 -32.5949
   -32.5948 -32.5948 -32.5948 -32.5948 -32.5948 -32.5947 -32.5947 -32.5947
   -32.5574 -32.5574 -32.5574 -32.5574 -32.5572 -32.5572 -32.5572 -32.5572
   -32.3187 -32.3186 -32.3186 -32.3186 -32.3185 -32.3185 -32.3185 -32.3185
   -32.2780 -32.2780 -32.2780 -32.2779 -32.2779 -32.2779 -32.2779 -32.2779
   -32.2778 -32.2778 -32.2778 -32.2777 -32.2777 -32.2777 -32.2777 -32.2777
    14.1078  14.1078  14.1078  14.1078  14.1078  14.1078  14.1078  14.1079
    17.1267  17.1267  17.1268  17.1268  17.1268  17.1268  17.1268  17.1268
    17.1269  17.1269  17.1269  17.1269  17.1269  17.1269  17.1269  17.1269
    17.5155  17.5155  17.5155  17.5156  17.5156  17.5156  17.5156  17.5157
    17.6171  17.6171  17.6171  17.6172  17.6172  17.6172  17.6172  17.6172
    17.6173  17.6173  17.6174  17.6174  17.6174  17.6174  17.6174  17.6174
    20.7927  20.7927  20.7927  20.7928  20.7928  20.7928  20.7928  20.7928
    20.7929  20.7929  20.7929  20.7929  20.7929  20.7930  20.7930  20.7930
    20.8242  20.8242  20.8243  20.8243  20.8243  20.8244  20.8244  20.8244
    20.8244  20.8244  20.8244  20.8245  20.8245  20.8245  20.8246  20.8246
    21.1822  21.1822  21.1822  21.1822  21.1823  21.1823  21.1823  21.1823
    27.6015  27.6015

     the Fermi energy is    19.1814 ev

!    total energy              =   -5268.18553800 Ry
     Harris-Foulkes estimate   =   -5268.18553672 Ry
     estimated scf accuracy    <       0.00000038 Ry

     total all-electron energy =    -40728.930067 Ry

     The total energy is the sum of the following terms:

     one-electron contribution =   -1694.68843856 Ry
     hartree contribution      =    1017.70360911 Ry
     xc contribution           =    -444.35421888 Ry
     ewald contribution        =   -2822.29367896 Ry
     one-center paw contrib.   =   -1324.67284611 Ry
     smearing contrib. (-TS)   =       0.12003539 Ry

     total magnetization       =    32.75 Bohr mag/cell
     absolute magnetization    =    34.47 Bohr mag/cell

     convergence has been achieved in  18 iterations

     negative rho (up, down):  0.000E+00 2.410E-03

     Forces acting on atoms (cartesian axes, Ry/au):

     atom    1 type  1   force =     0.00000000    0.00000000   -0.00000000
     atom    2 type  2   force =     0.00001227    0.00001227    0.00001227
     atom    3 type  1   force =     0.00000000    0.00000000    0.00000000
     atom    4 type  2   force =     0.00001227    0.00001227   -0.00001227
     atom    5 type  1   force =     0.00000000    0.00000000    0.00000000
     atom    6 type  2   force =     0.00001227   -0.00001227    0.00001227
     atom    7 type  1   force =     0.00000000    0.00000000   -0.00000000
     atom    8 type  2   force =     0.00001227   -0.00001227   -0.00001227
     atom    9 type  1   force =     0.00000000    0.00000000    0.00000000
     atom   10 type  2   force =    -0.00001227    0.00001227    0.00001227
     atom   11 type  1   force =     0.00000000    0.00000000    0.00000000
     atom   12 type  2   force =    -0.00001227    0.00001227   -0.00001227
     atom   13 type  1   force =     0.00000000   -0.00000000    0.00000000
     atom   14 type  2   force =    -0.00001227   -0.00001227    0.00001227
     atom   15 type  1   force =     0.00000000    0.00000000    0.00000000
     atom   16 type  2   force =    -0.00001227   -0.00001227   -0.00001227

     Total force =     0.000060     Total SCF correction =     0.002286
     SCF correction compared to forces is large: reduce conv_thr to get better values


     Computing stress (Cartesian axis) and pressure


     negative rho (up, down):  0.000E+00 2.410E-03
          total   stress  (Ry/bohr**3)                   (kbar)     P=   18.40
   0.00012508   0.00000000   0.00000000         18.40      0.00      0.00
   0.00000000   0.00012508   0.00000000          0.00     18.40      0.00
   0.00000000   0.00000000   0.00012508          0.00      0.00     18.40


     Writing output data file YcBurBGugyEHyDIg.save/
 
     init_run     :      7.36s CPU      7.66s WALL (       1 calls)
     electrons    :    464.06s CPU    473.75s WALL (       1 calls)
     forces       :      2.41s CPU      2.55s WALL (       1 calls)
     stress       :     10.06s CPU     10.14s WALL (       1 calls)

     Called by init_run:
     wfcinit      :      6.77s CPU      7.00s WALL (       1 calls)
     potinit      :      0.30s CPU      0.31s WALL (       1 calls)
     hinit0       :      0.10s CPU      0.12s WALL (       1 calls)

     Called by electrons:
     c_bands      :    412.91s CPU    420.41s WALL (      19 calls)
     sum_band     :     44.99s CPU     46.70s WALL (      19 calls)
     v_of_rho     :      0.48s CPU      0.50s WALL (      19 calls)
     newd         :      0.99s CPU      1.20s WALL (      19 calls)
     PAW_pot      :      4.79s CPU      5.02s WALL (      19 calls)
     mix_rho      :      0.12s CPU      0.13s WALL (      19 calls)

     Called by c_bands:
     init_us_2    :      2.84s CPU      2.88s WALL (    2870 calls)
     cegterg      :    397.41s CPU    404.78s WALL (    1330 calls)

     Called by sum_band:
     sum_band:bec :      0.46s CPU      0.47s WALL (    1330 calls)
     addusdens    :      1.95s CPU      2.20s WALL (      19 calls)

     Called by *egterg:
     h_psi        :    177.09s CPU    182.16s WALL (    4565 calls)
     s_psi        :     12.41s CPU     12.46s WALL (    4565 calls)
     g_psi        :      0.61s CPU      0.61s WALL (    3165 calls)
     cdiaghg      :    164.64s CPU    165.08s WALL (    4425 calls)

     Called by h_psi:
     h_psi:pot    :    175.76s CPU    180.81s WALL (    4565 calls)
     h_psi:calbec :     14.82s CPU     15.92s WALL (    4565 calls)
     vloc_psi     :    148.30s CPU    152.19s WALL (    4565 calls)
     add_vuspsi   :     12.61s CPU     12.68s WALL (    4565 calls)

     General routines
     calbec       :     23.74s CPU     25.49s WALL (    6245 calls)
     fft          :      0.37s CPU      0.40s WALL (     517 calls)
     ffts         :      0.03s CPU      0.04s WALL (      76 calls)
     fftw         :    169.79s CPU    174.22s WALL ( 1134816 calls)
     interpolate  :      0.05s CPU      0.05s WALL (      38 calls)
 
     Parallel routines
     fft_scatt_xy :     13.96s CPU     14.33s WALL ( 1135409 calls)
     fft_scatt_yz :     97.99s CPU    100.60s WALL ( 1135409 calls)
 
     PWSCF        :  8m 7.30s CPU     8m25.37s WALL

 
   This run was terminated on:  22:56:50  13Jun2020            

=------------------------------------------------------------------------------=
   JOB DONE.
=------------------------------------------------------------------------------=
