--------------------------------------------------------------------------
WARNING: No preset parameters were found for the device that Open MPI
detected:

  Local host:            bear-pg0206u26a
  Device name:           mlx5_0
  Device vendor ID:      0x02c9
  Device vendor part ID: 4123

Default device parameters will be used, which may result in lower
performance.  You can edit any of the files specified by the
btl_openib_device_param_files MCA parameter to set values for your
device.

NOTE: You can turn off this warning by setting the MCA parameter
      btl_openib_warn_no_device_params_found to 0.
--------------------------------------------------------------------------
--------------------------------------------------------------------------
WARNING: There was an error initializing an OpenFabrics device.

  Local host:   bear-pg0206u26a
  Local device: mlx5_0
--------------------------------------------------------------------------

     Program PWSCF v.6.3 starts on  2Nov2020 at 13:22:39 

     This program is part of the open-source Quantum ESPRESSO suite
     for quantum simulation of materials; please cite
         "P. Giannozzi et al., J. Phys.:Condens. Matter 21 395502 (2009);
         "P. Giannozzi et al., J. Phys.:Condens. Matter 29 465901 (2017);
          URL http://www.quantum-espresso.org", 
     in publications or presentations arising from this work. More details at
     http://www.quantum-espresso.org/quote

     Parallel version (MPI & OpenMP), running on      40 processor cores
     Number of MPI processes:                40
     Threads/MPI process:                     1

     MPI processes distributed on     1 nodes
     R & G space division:  proc/nbgrp/npool/nimage =      40
     Reading input from wd/ec/ec_5_007.in
Warning: card &IONS ignored
Warning: card ION_DYNAMICS = 'BFGS', ignored
Warning: card / ignored
Warning: card &CELL ignored
Warning: card CELL_DYNAMICS = 'BFGS', ignored
Warning: card CELL_FACTOR = 2.0, ignored
Warning: card PRESS = 0.0, ignored
Warning: card / ignored

     Current dimensions of program PWSCF are:
     Max number of different atomic species (ntypx) = 10
     Max number of k-points (npk) =  40000
     Max angular momentum in pseudopotentials (lmaxx) =  3
               file Fe.pbe-spn-kjpaw_psl.1.0.0.UPF: wavefunction(s)  3P 3D renormalized
               file Fe.pbe-spn-kjpaw_psl.1.0.0.UPF: wavefunction(s)  3P 3D renormalized

     Subspace diagonalization in iterative solution of the eigenvalue problem:
     a serial algorithm will be used

     Found symmetry operation: I + (  0.0000  0.0000 -0.5000)
     This is a supercell, fractional translations are disabled
 
     Parallelization info
     --------------------
     sticks:   dense  smooth     PW     G-vecs:    dense   smooth      PW
     Min          95      63     17                 4472     2401     355
     Max          96      64     18                 4478     2406     359
     Sum        3833    2537    717               179021    96125   14307
 


     bravais-lattice index     =            0
     lattice parameter (alat)  =      10.5935  a.u.
     unit-cell volume          =    1188.8329 (a.u.)^3
     number of atoms/cell      =           16
     number of atomic types    =            2
     number of electrons       =       256.00
     number of Kohn-Sham states=          154
     kinetic-energy cutoff     =      71.0000  Ry
     charge density cutoff     =     430.0000  Ry
     convergence threshold     =      1.0E-06
     mixing beta               =       0.1000
     number of iterations used =           10  plain     mixing
     Exchange-correlation      = SLA PW PBX PBC ( 1  4  3  4 0 0)

     celldm(1)=  10.593520  celldm(2)=   0.000000  celldm(3)=   0.000000
     celldm(4)=   0.000000  celldm(5)=   0.000000  celldm(6)=   0.000000

     crystal axes: (cart. coord. in units of alat)
               a(1) = (   1.000005   0.000000   0.004000 )  
               a(2) = (   0.000000   1.000005   0.000000 )  
               a(3) = (   0.004000   0.000000   1.000005 )  

     reciprocal axes: (cart. coord. in units 2 pi/alat)
               b(1) = (  1.000011  0.000000 -0.004000 )  
               b(2) = (  0.000000  0.999995  0.000000 )  
               b(3) = ( -0.004000  0.000000  1.000011 )  


     PseudoPot. # 1 for Fe read from file:
     /rds/homes/b/bxp912/pp/Fe.pbe-spn-kjpaw_psl.1.0.0.UPF
     MD5 check sum: 42f43b795421b414b0dc916aa790dbcb
     Pseudo is Projector augmented-wave + core cor, Zval = 16.0
     Generated using "atomic" code by A. Dal Corso v.6.3
     Shape of augmentation charge: PSQ
     Using radial grid of 1191 points,  6 beta functions with: 
                l(1) =   0
                l(2) =   0
                l(3) =   1
                l(4) =   1
                l(5) =   2
                l(6) =   2
     Q(r) pseudized with 0 coefficients 


     PseudoPot. # 2 for Fe read from file:
     /rds/homes/b/bxp912/pp/Fe.pbe-spn-kjpaw_psl.1.0.0.UPF
     MD5 check sum: 42f43b795421b414b0dc916aa790dbcb
     Pseudo is Projector augmented-wave + core cor, Zval = 16.0
     Generated using "atomic" code by A. Dal Corso v.6.3
     Shape of augmentation charge: PSQ
     Using radial grid of 1191 points,  6 beta functions with: 
                l(1) =   0
                l(2) =   0
                l(3) =   1
                l(4) =   1
                l(5) =   2
                l(6) =   2
     Q(r) pseudized with 0 coefficients 


     atomic species   valence    mass     pseudopotential
        Fe1           16.00    55.84500     Fe( 1.00)
        Fe2           16.00    55.84500     Fe( 1.00)

     Starting magnetic structure 
     atomic species   magnetization
        Fe1          0.100
        Fe2          0.100

      8 Sym. Ops., with inversion, found



   Cartesian axes

     site n.     atom                  positions (alat units)
         1           Fe1 tau(   1) = (   0.0000000   0.0000000   0.0000000  )
         2           Fe2 tau(   2) = (   0.2510018   0.2500018   0.2510018  )
         3           Fe1 tau(   3) = (   0.0020000   0.0000000   0.5000027  )
         4           Fe2 tau(   4) = (   0.2530018   0.2500018   0.7510036  )
         5           Fe1 tau(   5) = (   0.0000000   0.5000027   0.0000000  )
         6           Fe2 tau(   6) = (   0.2510018   0.7500036   0.2510018  )
         7           Fe1 tau(   7) = (   0.0020000   0.5000027   0.5000027  )
         8           Fe2 tau(   8) = (   0.2530018   0.7500036   0.7510036  )
         9           Fe1 tau(   9) = (   0.5000027   0.0000000   0.0020000  )
        10           Fe2 tau(  10) = (   0.7510036   0.2500018   0.2530018  )
        11           Fe1 tau(  11) = (   0.5020027   0.0000000   0.5020027  )
        12           Fe2 tau(  12) = (   0.7530036   0.2500018   0.7530036  )
        13           Fe1 tau(  13) = (   0.5000027   0.5000027   0.0020000  )
        14           Fe2 tau(  14) = (   0.7510036   0.7500036   0.2530018  )
        15           Fe1 tau(  15) = (   0.5020027   0.5000027   0.5020027  )
        16           Fe2 tau(  16) = (   0.7530036   0.7500036   0.7530036  )

     number of k points=   125  Marzari-Vanderbilt smearing, width (Ry)=  0.0400

     Number of k-points >= 100: set verbosity='high' to print them.

     Dense  grid:   179021 G-vectors     FFT dimensions: (  72,  72,  72)

     Smooth grid:    96125 G-vectors     FFT dimensions: (  60,  60,  60)

     Estimated max dynamical RAM per process >     215.38 MB

     Estimated total dynamical RAM >       8.41 GB
     Generating pointlists ...
     new r_m :   0.1781 (alat units)  1.8872 (a.u.) for type    1
     new r_m :   0.1781 (alat units)  1.8872 (a.u.) for type    2

     Check: negative/imaginary core charge=   -0.000006    0.000000

     Initial potential from superposition of free atoms

     starting charge  255.99300, renormalised to  256.00000
     Starting wfcs are  160 randomized atomic wfcs
     Checking if some PAW data can be deallocated... 

     total cpu time spent up to now is       23.4 secs

     Self-consistent Calculation

     iteration #  1     ecut=    71.00 Ry     beta= 0.10
     Davidson diagonalization with overlap
     ethr =  1.00E-02,  avg # of iterations =  3.4

     Threshold (ethr) on eigenvalues was too large:
     Diagonalizing with lowered threshold

     Davidson diagonalization with overlap
     ethr =  2.24E-04,  avg # of iterations =  3.6

     total cpu time spent up to now is      214.8 secs

     total energy              =   -5268.06187598 Ry
     Harris-Foulkes estimate   =   -5268.15159381 Ry
     estimated scf accuracy    <       0.65854463 Ry

     total magnetization       =    28.16 Bohr mag/cell
     absolute magnetization    =    28.30 Bohr mag/cell

     iteration #  2     ecut=    71.00 Ry     beta= 0.10
     Davidson diagonalization with overlap
     ethr =  2.57E-04,  avg # of iterations =  1.0

     total cpu time spent up to now is      270.0 secs

     total energy              =   -5268.00502214 Ry
     Harris-Foulkes estimate   =   -5268.07582929 Ry
     estimated scf accuracy    <       0.39579243 Ry

     total magnetization       =    28.76 Bohr mag/cell
     absolute magnetization    =    28.92 Bohr mag/cell

     iteration #  3     ecut=    71.00 Ry     beta= 0.10
     Davidson diagonalization with overlap
     ethr =  1.55E-04,  avg # of iterations =  2.8

     total cpu time spent up to now is      350.6 secs

     total energy              =   -5268.02635656 Ry
     Harris-Foulkes estimate   =   -5268.05115511 Ry
     estimated scf accuracy    <       0.53111186 Ry

     total magnetization       =    29.55 Bohr mag/cell
     absolute magnetization    =    29.84 Bohr mag/cell

     iteration #  4     ecut=    71.00 Ry     beta= 0.10
     Davidson diagonalization with overlap
     ethr =  1.55E-04,  avg # of iterations =  1.2

     total cpu time spent up to now is      408.3 secs

     total energy              =   -5268.05195894 Ry
     Harris-Foulkes estimate   =   -5268.05028836 Ry
     estimated scf accuracy    <       0.13910697 Ry

     total magnetization       =    30.21 Bohr mag/cell
     absolute magnetization    =    30.55 Bohr mag/cell

     iteration #  5     ecut=    71.00 Ry     beta= 0.10
     Davidson diagonalization with overlap
     ethr =  5.43E-05,  avg # of iterations =  1.3

     total cpu time spent up to now is      466.9 secs

     total energy              =   -5268.10326024 Ry
     Harris-Foulkes estimate   =   -5268.05459635 Ry
     estimated scf accuracy    <       0.10618406 Ry

     total magnetization       =    30.29 Bohr mag/cell
     absolute magnetization    =    30.65 Bohr mag/cell

     iteration #  6     ecut=    71.00 Ry     beta= 0.10
     Davidson diagonalization with overlap
     ethr =  4.15E-05,  avg # of iterations =  3.3

     negative rho (up, down):  0.000E+00 1.648E-04

     total cpu time spent up to now is      571.5 secs

     total energy              =   -5268.15876338 Ry
     Harris-Foulkes estimate   =   -5268.14327627 Ry
     estimated scf accuracy    <       0.15102086 Ry

     total magnetization       =    30.98 Bohr mag/cell
     absolute magnetization    =    31.72 Bohr mag/cell

     iteration #  7     ecut=    71.00 Ry     beta= 0.10
     Davidson diagonalization with overlap
     ethr =  4.15E-05,  avg # of iterations =  2.6

     negative rho (up, down):  0.000E+00 8.691E-04

     total cpu time spent up to now is      652.9 secs

     total energy              =   -5268.17515560 Ry
     Harris-Foulkes estimate   =   -5268.17145637 Ry
     estimated scf accuracy    <       0.05812635 Ry

     total magnetization       =    31.73 Bohr mag/cell
     absolute magnetization    =    32.80 Bohr mag/cell

     iteration #  8     ecut=    71.00 Ry     beta= 0.10
     Davidson diagonalization with overlap
     ethr =  2.27E-05,  avg # of iterations =  1.1

     negative rho (up, down):  0.000E+00 1.730E-03

     total cpu time spent up to now is      709.1 secs

     total energy              =   -5268.17961085 Ry
     Harris-Foulkes estimate   =   -5268.17718170 Ry
     estimated scf accuracy    <       0.03988549 Ry

     total magnetization       =    31.95 Bohr mag/cell
     absolute magnetization    =    33.11 Bohr mag/cell

     iteration #  9     ecut=    71.00 Ry     beta= 0.10
     Davidson diagonalization with overlap
     ethr =  1.56E-05,  avg # of iterations =  2.1

     negative rho (up, down):  0.000E+00 2.089E-03

     total cpu time spent up to now is      785.2 secs

     total energy              =   -5268.18666454 Ry
     Harris-Foulkes estimate   =   -5268.18446311 Ry
     estimated scf accuracy    <       0.01227658 Ry

     total magnetization       =    32.34 Bohr mag/cell
     absolute magnetization    =    33.75 Bohr mag/cell

     iteration # 10     ecut=    71.00 Ry     beta= 0.10
     Davidson diagonalization with overlap
     ethr =  4.80E-06,  avg # of iterations =  1.8

     negative rho (up, down):  0.000E+00 2.558E-03

     total cpu time spent up to now is      849.8 secs

     total energy              =   -5268.18769726 Ry
     Harris-Foulkes estimate   =   -5268.18719938 Ry
     estimated scf accuracy    <       0.00563249 Ry

     total magnetization       =    32.48 Bohr mag/cell
     absolute magnetization    =    33.96 Bohr mag/cell

     iteration # 11     ecut=    71.00 Ry     beta= 0.10
     Davidson diagonalization with overlap
     ethr =  2.20E-06,  avg # of iterations =  3.5

     negative rho (up, down):  0.000E+00 2.476E-03

     total cpu time spent up to now is      943.1 secs

     total energy              =   -5268.18849984 Ry
     Harris-Foulkes estimate   =   -5268.18846148 Ry
     estimated scf accuracy    <       0.00092868 Ry

     total magnetization       =    32.67 Bohr mag/cell
     absolute magnetization    =    34.32 Bohr mag/cell

     iteration # 12     ecut=    71.00 Ry     beta= 0.10
     Davidson diagonalization with overlap
     ethr =  3.63E-07,  avg # of iterations =  1.7

     negative rho (up, down):  0.000E+00 2.374E-03

     total cpu time spent up to now is     1006.4 secs

     total energy              =   -5268.18872674 Ry
     Harris-Foulkes estimate   =   -5268.18853519 Ry
     estimated scf accuracy    <       0.00067094 Ry

     total magnetization       =    32.69 Bohr mag/cell
     absolute magnetization    =    34.33 Bohr mag/cell

     iteration # 13     ecut=    71.00 Ry     beta= 0.10
     Davidson diagonalization with overlap
     ethr =  2.62E-07,  avg # of iterations =  2.4

     negative rho (up, down):  0.000E+00 2.433E-03

     total cpu time spent up to now is     1083.1 secs

     total energy              =   -5268.18896174 Ry
     Harris-Foulkes estimate   =   -5268.18879977 Ry
     estimated scf accuracy    <       0.00066000 Ry

     total magnetization       =    32.73 Bohr mag/cell
     absolute magnetization    =    34.40 Bohr mag/cell

     iteration # 14     ecut=    71.00 Ry     beta= 0.10
     Davidson diagonalization with overlap
     ethr =  2.58E-07,  avg # of iterations =  2.8

     negative rho (up, down):  0.000E+00 2.453E-03

     total cpu time spent up to now is     1166.8 secs

     total energy              =   -5268.18906280 Ry
     Harris-Foulkes estimate   =   -5268.18906734 Ry
     estimated scf accuracy    <       0.00030889 Ry

     total magnetization       =    32.82 Bohr mag/cell
     absolute magnetization    =    34.55 Bohr mag/cell

     iteration # 15     ecut=    71.00 Ry     beta= 0.10
     Davidson diagonalization with overlap
     ethr =  1.21E-07,  avg # of iterations =  1.5

     negative rho (up, down):  0.000E+00 2.389E-03

     total cpu time spent up to now is     1228.1 secs

     total energy              =   -5268.18909382 Ry
     Harris-Foulkes estimate   =   -5268.18908048 Ry
     estimated scf accuracy    <       0.00007344 Ry

     total magnetization       =    32.84 Bohr mag/cell
     absolute magnetization    =    34.58 Bohr mag/cell

     iteration # 16     ecut=    71.00 Ry     beta= 0.10
     Davidson diagonalization with overlap
     ethr =  2.87E-08,  avg # of iterations =  2.9

     negative rho (up, down):  0.000E+00 2.454E-03

     total cpu time spent up to now is     1311.8 secs

     total energy              =   -5268.18910467 Ry
     Harris-Foulkes estimate   =   -5268.18910257 Ry
     estimated scf accuracy    <       0.00007779 Ry

     total magnetization       =    32.84 Bohr mag/cell
     absolute magnetization    =    34.57 Bohr mag/cell

     iteration # 17     ecut=    71.00 Ry     beta= 0.10
     Davidson diagonalization with overlap
     ethr =  2.87E-08,  avg # of iterations =  3.1

     negative rho (up, down):  0.000E+00 2.401E-03

     total cpu time spent up to now is     1404.4 secs

     total energy              =   -5268.18913711 Ry
     Harris-Foulkes estimate   =   -5268.18913268 Ry
     estimated scf accuracy    <       0.00003284 Ry

     total magnetization       =    32.88 Bohr mag/cell
     absolute magnetization    =    34.65 Bohr mag/cell

     iteration # 18     ecut=    71.00 Ry     beta= 0.10
     Davidson diagonalization with overlap
     ethr =  1.28E-08,  avg # of iterations =  2.5

     negative rho (up, down):  0.000E+00 2.425E-03

     total cpu time spent up to now is     1482.9 secs

     total energy              =   -5268.18914209 Ry
     Harris-Foulkes estimate   =   -5268.18914204 Ry
     estimated scf accuracy    <       0.00001716 Ry

     total magnetization       =    32.88 Bohr mag/cell
     absolute magnetization    =    34.64 Bohr mag/cell

     iteration # 19     ecut=    71.00 Ry     beta= 0.10
     Davidson diagonalization with overlap
     ethr =  6.70E-09,  avg # of iterations =  2.0

     negative rho (up, down):  0.000E+00 2.449E-03

     total cpu time spent up to now is     1550.9 secs

     total energy              =   -5268.18914362 Ry
     Harris-Foulkes estimate   =   -5268.18914378 Ry
     estimated scf accuracy    <       0.00000436 Ry

     total magnetization       =    32.89 Bohr mag/cell
     absolute magnetization    =    34.66 Bohr mag/cell

     iteration # 20     ecut=    71.00 Ry     beta= 0.10
     Davidson diagonalization with overlap
     ethr =  1.70E-09,  avg # of iterations =  3.2

     negative rho (up, down):  0.000E+00 2.448E-03

     total cpu time spent up to now is     1644.1 secs

     total energy              =   -5268.18914545 Ry
     Harris-Foulkes estimate   =   -5268.18914430 Ry
     estimated scf accuracy    <       0.00000245 Ry

     total magnetization       =    32.90 Bohr mag/cell
     absolute magnetization    =    34.67 Bohr mag/cell

     iteration # 21     ecut=    71.00 Ry     beta= 0.10
     Davidson diagonalization with overlap
     ethr =  9.58E-10,  avg # of iterations =  1.4

     negative rho (up, down):  0.000E+00 2.455E-03

     total cpu time spent up to now is     1703.9 secs

     total energy              =   -5268.18914667 Ry
     Harris-Foulkes estimate   =   -5268.18914574 Ry
     estimated scf accuracy    <       0.00000162 Ry

     total magnetization       =    32.90 Bohr mag/cell
     absolute magnetization    =    34.67 Bohr mag/cell

     iteration # 22     ecut=    71.00 Ry     beta= 0.10
     Davidson diagonalization with overlap
     ethr =  6.35E-10,  avg # of iterations =  2.2

     negative rho (up, down):  0.000E+00 2.466E-03
 
     Magnetic moment per site:
     atom:    1    charge:   14.3501    magn:    2.0992    constr:    0.0000
     atom:    2    charge:   14.3503    magn:    2.1018    constr:    0.0000
     atom:    3    charge:   14.3502    magn:    2.0989    constr:    0.0000
     atom:    4    charge:   14.3501    magn:    2.1015    constr:    0.0000
     atom:    5    charge:   14.3502    magn:    2.1005    constr:    0.0000
     atom:    6    charge:   14.3503    magn:    2.1018    constr:    0.0000
     atom:    7    charge:   14.3502    magn:    2.1000    constr:    0.0000
     atom:    8    charge:   14.3501    magn:    2.1015    constr:    0.0000
     atom:    9    charge:   14.3502    magn:    2.0989    constr:    0.0000
     atom:   10    charge:   14.3501    magn:    2.1015    constr:    0.0000
     atom:   11    charge:   14.3502    magn:    2.0985    constr:    0.0000
     atom:   12    charge:   14.3503    magn:    2.1018    constr:    0.0000
     atom:   13    charge:   14.3502    magn:    2.1000    constr:    0.0000
     atom:   14    charge:   14.3501    magn:    2.1015    constr:    0.0000
     atom:   15    charge:   14.3502    magn:    2.0997    constr:    0.0000
     atom:   16    charge:   14.3503    magn:    2.1018    constr:    0.0000

     total cpu time spent up to now is     1775.1 secs

     End of self-consistent calculation

     Number of k-points >= 100: set verbosity='high' to print the bands.

     the Fermi energy is    18.9744 ev

!    total energy              =   -5268.18914816 Ry
     Harris-Foulkes estimate   =   -5268.18914684 Ry
     estimated scf accuracy    <       0.00000082 Ry

     total all-electron energy =    -40728.933677 Ry

     The total energy is the sum of the following terms:

     one-electron contribution =   -1707.46875039 Ry
     hartree contribution      =    1022.29985536 Ry
     xc contribution           =    -444.26184310 Ry
     ewald contribution        =   -2814.21161108 Ry
     one-center paw contrib.   =   -1324.67093544 Ry
     smearing contrib. (-TS)   =       0.12413650 Ry

     total magnetization       =    32.91 Bohr mag/cell
     absolute magnetization    =    34.67 Bohr mag/cell

     convergence has been achieved in  22 iterations

     negative rho (up, down):  0.000E+00 2.466E-03

     Forces acting on atoms (cartesian axes, Ry/au):

     atom    1 type  1   force =     0.00000000    0.00000000    0.00000000
     atom    2 type  2   force =     0.00002943    0.00018830    0.00002943
     atom    3 type  1   force =     0.00000000    0.00000000    0.00000000
     atom    4 type  2   force =    -0.00011925    0.00009848    0.00011925
     atom    5 type  1   force =     0.00000000    0.00000000    0.00000000
     atom    6 type  2   force =     0.00002943   -0.00018830    0.00002943
     atom    7 type  1   force =     0.00000000    0.00000000    0.00000000
     atom    8 type  2   force =    -0.00011925   -0.00009848    0.00011925
     atom    9 type  1   force =     0.00000000    0.00000000    0.00000000
     atom   10 type  2   force =     0.00011925    0.00009848   -0.00011925
     atom   11 type  1   force =     0.00000000    0.00000000    0.00000000
     atom   12 type  2   force =    -0.00002943    0.00018830   -0.00002943
     atom   13 type  1   force =     0.00000000    0.00000000    0.00000000
     atom   14 type  2   force =     0.00011925   -0.00009848   -0.00011925
     atom   15 type  1   force =     0.00000000    0.00000000    0.00000000
     atom   16 type  2   force =    -0.00002943   -0.00018830   -0.00002943

     Total force =     0.000549     Total SCF correction =     0.006340
     SCF correction compared to forces is large: reduce conv_thr to get better values


     Computing stress (Cartesian axis) and pressure


     negative rho (up, down):  0.000E+00 2.466E-03
          total   stress  (Ry/bohr**3)                   (kbar)     P=   -2.26
  -0.00001555   0.00000000  -0.00007451         -2.29      0.00    -10.96
   0.00000000  -0.00001507   0.00000000          0.00     -2.22      0.00
  -0.00007451   0.00000000  -0.00001555        -10.96      0.00     -2.29


     Writing output data file andOIQEWwaGhXKhn.save/
 
     init_run     :     21.15s CPU     22.04s WALL (       1 calls)
     electrons    :   1697.41s CPU   1751.82s WALL (       1 calls)
     forces       :      7.42s CPU      8.12s WALL (       1 calls)
     stress       :     20.74s CPU     21.00s WALL (       1 calls)

     Called by init_run:
     wfcinit      :     20.51s CPU     21.35s WALL (       1 calls)
     potinit      :      0.26s CPU      0.28s WALL (       1 calls)
     hinit0       :      0.24s CPU      0.25s WALL (       1 calls)

     Called by electrons:
     c_bands      :   1535.44s CPU   1580.80s WALL (      23 calls)
     sum_band     :    157.41s CPU    165.81s WALL (      23 calls)
     v_of_rho     :      0.37s CPU      0.38s WALL (      23 calls)
     newd         :      0.77s CPU      0.97s WALL (      23 calls)
     PAW_pot      :      3.43s CPU      3.76s WALL (      23 calls)
     mix_rho      :      0.12s CPU      0.14s WALL (      23 calls)

     Called by c_bands:
     init_us_2    :      8.09s CPU      8.25s WALL (   12250 calls)
     cegterg      :   1493.91s CPU   1538.67s WALL (    5750 calls)

     Called by sum_band:
     sum_band:bec :      2.12s CPU      2.15s WALL (    5750 calls)
     addusdens    :      1.30s CPU      1.49s WALL (      23 calls)

     Called by *egterg:
     h_psi        :    620.69s CPU    647.82s WALL (   19407 calls)
     s_psi        :     33.47s CPU     33.72s WALL (   19407 calls)
     g_psi        :      1.31s CPU      1.33s WALL (   13407 calls)
     cdiaghg      :    694.34s CPU    697.41s WALL (   18907 calls)

     Called by h_psi:
     h_psi:pot    :    617.24s CPU    644.33s WALL (   19407 calls)
     h_psi:calbec :     51.39s CPU     59.71s WALL (   19407 calls)
     vloc_psi     :    531.51s CPU    550.01s WALL (   19407 calls)
     add_vuspsi   :     34.18s CPU     34.49s WALL (   19407 calls)

     General routines
     calbec       :     79.28s CPU     92.21s WALL (   26407 calls)
     fft          :      0.44s CPU      0.47s WALL (     617 calls)
     ffts         :      0.07s CPU      0.25s WALL (      92 calls)
     fftw         :    619.83s CPU    641.21s WALL ( 4778406 calls)
     interpolate  :      0.07s CPU      0.16s WALL (      46 calls)
 
     Parallel routines
     fft_scatt_xy :     41.11s CPU     42.49s WALL ( 4779115 calls)
     fft_scatt_yz :    415.42s CPU    430.18s WALL ( 4779115 calls)
 
     PWSCF        : 29m21.62s CPU    31m 6.20s WALL

 
   This run was terminated on:  13:53:45   2Nov2020            

=------------------------------------------------------------------------------=
   JOB DONE.
=------------------------------------------------------------------------------=
