--------------------------------------------------------------------------
WARNING: There was an error initializing an OpenFabrics device.

  Local host:   bear-pg0206u26a
  Local device: mlx5_0
--------------------------------------------------------------------------
--------------------------------------------------------------------------
WARNING: No preset parameters were found for the device that Open MPI
detected:

  Local host:            bear-pg0206u26a
  Device name:           mlx5_0
  Device vendor ID:      0x02c9
  Device vendor part ID: 4123

Default device parameters will be used, which may result in lower
performance.  You can edit any of the files specified by the
btl_openib_device_param_files MCA parameter to set values for your
device.

NOTE: You can turn off this warning by setting the MCA parameter
      btl_openib_warn_no_device_params_found to 0.
--------------------------------------------------------------------------

     Program PWSCF v.6.3 starts on  2Nov2020 at 12:18: 0 

     This program is part of the open-source Quantum ESPRESSO suite
     for quantum simulation of materials; please cite
         "P. Giannozzi et al., J. Phys.:Condens. Matter 21 395502 (2009);
         "P. Giannozzi et al., J. Phys.:Condens. Matter 29 465901 (2017);
          URL http://www.quantum-espresso.org", 
     in publications or presentations arising from this work. More details at
     http://www.quantum-espresso.org/quote

     Parallel version (MPI & OpenMP), running on      40 processor cores
     Number of MPI processes:                40
     Threads/MPI process:                     1

     MPI processes distributed on     1 nodes
     R & G space division:  proc/nbgrp/npool/nimage =      40
     Reading input from wd/ec/ec_5_004.in
Warning: card &IONS ignored
Warning: card ION_DYNAMICS = 'BFGS', ignored
Warning: card / ignored
Warning: card &CELL ignored
Warning: card CELL_DYNAMICS = 'BFGS', ignored
Warning: card CELL_FACTOR = 2.0, ignored
Warning: card PRESS = 0.0, ignored
Warning: card / ignored

     Current dimensions of program PWSCF are:
     Max number of different atomic species (ntypx) = 10
     Max number of k-points (npk) =  40000
     Max angular momentum in pseudopotentials (lmaxx) =  3
               file Fe.pbe-spn-kjpaw_psl.1.0.0.UPF: wavefunction(s)  3P 3D renormalized
               file Fe.pbe-spn-kjpaw_psl.1.0.0.UPF: wavefunction(s)  3P 3D renormalized

     Subspace diagonalization in iterative solution of the eigenvalue problem:
     a serial algorithm will be used

     Found symmetry operation: I + (  0.0000  0.0000 -0.5000)
     This is a supercell, fractional translations are disabled
 
     Parallelization info
     --------------------
     sticks:   dense  smooth     PW     G-vecs:    dense   smooth      PW
     Min          95      63     17                 4472     2400     355
     Max          96      64     18                 4477     2405     359
     Sum        3833    2537    717               178985    96089   14315
 


     bravais-lattice index     =            0
     lattice parameter (alat)  =      10.5935  a.u.
     unit-cell volume          =    1188.8329 (a.u.)^3
     number of atoms/cell      =           16
     number of atomic types    =            2
     number of electrons       =       256.00
     number of Kohn-Sham states=          154
     kinetic-energy cutoff     =      71.0000  Ry
     charge density cutoff     =     430.0000  Ry
     convergence threshold     =      1.0E-06
     mixing beta               =       0.1000
     number of iterations used =           10  plain     mixing
     Exchange-correlation      = SLA PW PBX PBC ( 1  4  3  4 0 0)

     celldm(1)=  10.593520  celldm(2)=   0.000000  celldm(3)=   0.000000
     celldm(4)=   0.000000  celldm(5)=   0.000000  celldm(6)=   0.000000

     crystal axes: (cart. coord. in units of alat)
               a(1) = (   1.000001   0.000000   0.002000 )  
               a(2) = (   0.000000   1.000001   0.000000 )  
               a(3) = (   0.002000   0.000000   1.000001 )  

     reciprocal axes: (cart. coord. in units 2 pi/alat)
               b(1) = (  1.000003  0.000000 -0.002000 )  
               b(2) = (  0.000000  0.999999  0.000000 )  
               b(3) = ( -0.002000  0.000000  1.000003 )  


     PseudoPot. # 1 for Fe read from file:
     /rds/homes/b/bxp912/pp/Fe.pbe-spn-kjpaw_psl.1.0.0.UPF
     MD5 check sum: 42f43b795421b414b0dc916aa790dbcb
     Pseudo is Projector augmented-wave + core cor, Zval = 16.0
     Generated using "atomic" code by A. Dal Corso v.6.3
     Shape of augmentation charge: PSQ
     Using radial grid of 1191 points,  6 beta functions with: 
                l(1) =   0
                l(2) =   0
                l(3) =   1
                l(4) =   1
                l(5) =   2
                l(6) =   2
     Q(r) pseudized with 0 coefficients 


     PseudoPot. # 2 for Fe read from file:
     /rds/homes/b/bxp912/pp/Fe.pbe-spn-kjpaw_psl.1.0.0.UPF
     MD5 check sum: 42f43b795421b414b0dc916aa790dbcb
     Pseudo is Projector augmented-wave + core cor, Zval = 16.0
     Generated using "atomic" code by A. Dal Corso v.6.3
     Shape of augmentation charge: PSQ
     Using radial grid of 1191 points,  6 beta functions with: 
                l(1) =   0
                l(2) =   0
                l(3) =   1
                l(4) =   1
                l(5) =   2
                l(6) =   2
     Q(r) pseudized with 0 coefficients 


     atomic species   valence    mass     pseudopotential
        Fe1           16.00    55.84500     Fe( 1.00)
        Fe2           16.00    55.84500     Fe( 1.00)

     Starting magnetic structure 
     atomic species   magnetization
        Fe1          0.100
        Fe2          0.100

      8 Sym. Ops., with inversion, found



   Cartesian axes

     site n.     atom                  positions (alat units)
         1           Fe1 tau(   1) = (   0.0000000   0.0000000   0.0000000  )
         2           Fe2 tau(   2) = (   0.2505008   0.2500008   0.2505008  )
         3           Fe1 tau(   3) = (   0.0010000   0.0000000   0.5000007  )
         4           Fe2 tau(   4) = (   0.2515008   0.2500008   0.7505006  )
         5           Fe1 tau(   5) = (   0.0000000   0.5000007   0.0000000  )
         6           Fe2 tau(   6) = (   0.2505008   0.7500006   0.2505008  )
         7           Fe1 tau(   7) = (   0.0010000   0.5000007   0.5000007  )
         8           Fe2 tau(   8) = (   0.2515008   0.7500006   0.7505006  )
         9           Fe1 tau(   9) = (   0.5000007   0.0000000   0.0010000  )
        10           Fe2 tau(  10) = (   0.7505006   0.2500008   0.2515008  )
        11           Fe1 tau(  11) = (   0.5010007   0.0000000   0.5010007  )
        12           Fe2 tau(  12) = (   0.7515006   0.2500008   0.7515006  )
        13           Fe1 tau(  13) = (   0.5000007   0.5000007   0.0010000  )
        14           Fe2 tau(  14) = (   0.7505006   0.7500006   0.2515008  )
        15           Fe1 tau(  15) = (   0.5010007   0.5000007   0.5010007  )
        16           Fe2 tau(  16) = (   0.7515006   0.7500006   0.7515006  )

     number of k points=   125  Marzari-Vanderbilt smearing, width (Ry)=  0.0400

     Number of k-points >= 100: set verbosity='high' to print them.

     Dense  grid:   178985 G-vectors     FFT dimensions: (  72,  72,  72)

     Smooth grid:    96089 G-vectors     FFT dimensions: (  60,  60,  60)

     Estimated max dynamical RAM per process >     215.38 MB

     Estimated total dynamical RAM >       8.41 GB
     Generating pointlists ...
     new r_m :   0.1784 (alat units)  1.8897 (a.u.) for type    1
     new r_m :   0.1784 (alat units)  1.8897 (a.u.) for type    2

     Check: negative/imaginary core charge=   -0.000006    0.000000

     Initial potential from superposition of free atoms

     starting charge  255.99300, renormalised to  256.00000
     Starting wfcs are  160 randomized atomic wfcs
     Checking if some PAW data can be deallocated... 

     total cpu time spent up to now is       23.3 secs

     Self-consistent Calculation

     iteration #  1     ecut=    71.00 Ry     beta= 0.10
     Davidson diagonalization with overlap
     ethr =  1.00E-02,  avg # of iterations =  3.4

     Threshold (ethr) on eigenvalues was too large:
     Diagonalizing with lowered threshold

     Davidson diagonalization with overlap
     ethr =  2.25E-04,  avg # of iterations =  3.6

     total cpu time spent up to now is      215.9 secs

     total energy              =   -5268.06216055 Ry
     Harris-Foulkes estimate   =   -5268.15191733 Ry
     estimated scf accuracy    <       0.65879697 Ry

     total magnetization       =    28.16 Bohr mag/cell
     absolute magnetization    =    28.30 Bohr mag/cell

     iteration #  2     ecut=    71.00 Ry     beta= 0.10
     Davidson diagonalization with overlap
     ethr =  2.57E-04,  avg # of iterations =  1.0

     total cpu time spent up to now is      271.1 secs

     total energy              =   -5268.00528685 Ry
     Harris-Foulkes estimate   =   -5268.07612545 Ry
     estimated scf accuracy    <       0.39591490 Ry

     total magnetization       =    28.76 Bohr mag/cell
     absolute magnetization    =    28.92 Bohr mag/cell

     iteration #  3     ecut=    71.00 Ry     beta= 0.10
     Davidson diagonalization with overlap
     ethr =  1.55E-04,  avg # of iterations =  2.8

     total cpu time spent up to now is      352.9 secs

     total energy              =   -5268.02664558 Ry
     Harris-Foulkes estimate   =   -5268.05144761 Ry
     estimated scf accuracy    <       0.53121396 Ry

     total magnetization       =    29.55 Bohr mag/cell
     absolute magnetization    =    29.84 Bohr mag/cell

     iteration #  4     ecut=    71.00 Ry     beta= 0.10
     Davidson diagonalization with overlap
     ethr =  1.55E-04,  avg # of iterations =  1.2

     total cpu time spent up to now is      410.7 secs

     total energy              =   -5268.05224946 Ry
     Harris-Foulkes estimate   =   -5268.05058390 Ry
     estimated scf accuracy    <       0.13912697 Ry

     total magnetization       =    30.21 Bohr mag/cell
     absolute magnetization    =    30.55 Bohr mag/cell

     iteration #  5     ecut=    71.00 Ry     beta= 0.10
     Davidson diagonalization with overlap
     ethr =  5.43E-05,  avg # of iterations =  1.3

     total cpu time spent up to now is      469.3 secs

     total energy              =   -5268.10353420 Ry
     Harris-Foulkes estimate   =   -5268.05488816 Ry
     estimated scf accuracy    <       0.10617083 Ry

     total magnetization       =    30.29 Bohr mag/cell
     absolute magnetization    =    30.65 Bohr mag/cell

     iteration #  6     ecut=    71.00 Ry     beta= 0.10
     Davidson diagonalization with overlap
     ethr =  4.15E-05,  avg # of iterations =  3.3

     negative rho (up, down):  0.000E+00 1.626E-04

     total cpu time spent up to now is      573.5 secs

     total energy              =   -5268.15890724 Ry
     Harris-Foulkes estimate   =   -5268.14355915 Ry
     estimated scf accuracy    <       0.15112147 Ry

     total magnetization       =    30.98 Bohr mag/cell
     absolute magnetization    =    31.71 Bohr mag/cell

     iteration #  7     ecut=    71.00 Ry     beta= 0.10
     Davidson diagonalization with overlap
     ethr =  4.15E-05,  avg # of iterations =  2.6

     negative rho (up, down):  0.000E+00 8.716E-04

     total cpu time spent up to now is      655.2 secs

     total energy              =   -5268.17550118 Ry
     Harris-Foulkes estimate   =   -5268.17163610 Ry
     estimated scf accuracy    <       0.05787990 Ry

     total magnetization       =    31.73 Bohr mag/cell
     absolute magnetization    =    32.80 Bohr mag/cell

     iteration #  8     ecut=    71.00 Ry     beta= 0.10
     Davidson diagonalization with overlap
     ethr =  2.26E-05,  avg # of iterations =  1.2

     negative rho (up, down):  0.000E+00 1.724E-03

     total cpu time spent up to now is      712.6 secs

     total energy              =   -5268.17986390 Ry
     Harris-Foulkes estimate   =   -5268.17752464 Ry
     estimated scf accuracy    <       0.04003179 Ry

     total magnetization       =    31.95 Bohr mag/cell
     absolute magnetization    =    33.11 Bohr mag/cell

     iteration #  9     ecut=    71.00 Ry     beta= 0.10
     Davidson diagonalization with overlap
     ethr =  1.56E-05,  avg # of iterations =  2.1

     negative rho (up, down):  0.000E+00 2.080E-03

     total cpu time spent up to now is      788.0 secs

     total energy              =   -5268.18689251 Ry
     Harris-Foulkes estimate   =   -5268.18469716 Ry
     estimated scf accuracy    <       0.01247860 Ry

     total magnetization       =    32.33 Bohr mag/cell
     absolute magnetization    =    33.74 Bohr mag/cell

     iteration # 10     ecut=    71.00 Ry     beta= 0.10
     Davidson diagonalization with overlap
     ethr =  4.87E-06,  avg # of iterations =  1.9

     negative rho (up, down):  0.000E+00 2.559E-03

     total cpu time spent up to now is      855.1 secs

     total energy              =   -5268.18794998 Ry
     Harris-Foulkes estimate   =   -5268.18743098 Ry
     estimated scf accuracy    <       0.00572667 Ry

     total magnetization       =    32.48 Bohr mag/cell
     absolute magnetization    =    33.95 Bohr mag/cell

     iteration # 11     ecut=    71.00 Ry     beta= 0.10
     Davidson diagonalization with overlap
     c_bands:  1 eigenvalues not converged
     ethr =  2.24E-06,  avg # of iterations =  3.5

     negative rho (up, down):  0.000E+00 2.457E-03

     total cpu time spent up to now is      949.9 secs

     total energy              =   -5268.18877651 Ry
     Harris-Foulkes estimate   =   -5268.18873670 Ry
     estimated scf accuracy    <       0.00092324 Ry

     total magnetization       =    32.67 Bohr mag/cell
     absolute magnetization    =    34.31 Bohr mag/cell

     iteration # 12     ecut=    71.00 Ry     beta= 0.10
     Davidson diagonalization with overlap
     ethr =  3.61E-07,  avg # of iterations =  2.0

     negative rho (up, down):  0.000E+00 2.368E-03

     total cpu time spent up to now is     1017.9 secs

     total energy              =   -5268.18901244 Ry
     Harris-Foulkes estimate   =   -5268.18881854 Ry
     estimated scf accuracy    <       0.00065491 Ry

     total magnetization       =    32.68 Bohr mag/cell
     absolute magnetization    =    34.33 Bohr mag/cell

     iteration # 13     ecut=    71.00 Ry     beta= 0.10
     Davidson diagonalization with overlap
     ethr =  2.56E-07,  avg # of iterations =  2.3

     negative rho (up, down):  0.000E+00 2.434E-03

     total cpu time spent up to now is     1093.5 secs

     total energy              =   -5268.18923619 Ry
     Harris-Foulkes estimate   =   -5268.18907949 Ry
     estimated scf accuracy    <       0.00064425 Ry

     total magnetization       =    32.72 Bohr mag/cell
     absolute magnetization    =    34.40 Bohr mag/cell

     iteration # 14     ecut=    71.00 Ry     beta= 0.10
     Davidson diagonalization with overlap
     ethr =  2.52E-07,  avg # of iterations =  2.9

     negative rho (up, down):  0.000E+00 2.438E-03

     total cpu time spent up to now is     1178.2 secs

     total energy              =   -5268.18933811 Ry
     Harris-Foulkes estimate   =   -5268.18934196 Ry
     estimated scf accuracy    <       0.00029821 Ry

     total magnetization       =    32.81 Bohr mag/cell
     absolute magnetization    =    34.55 Bohr mag/cell

     iteration # 15     ecut=    71.00 Ry     beta= 0.10
     Davidson diagonalization with overlap
     ethr =  1.16E-07,  avg # of iterations =  1.3

     negative rho (up, down):  0.000E+00 2.383E-03

     total cpu time spent up to now is     1237.2 secs

     total energy              =   -5268.18936606 Ry
     Harris-Foulkes estimate   =   -5268.18935486 Ry
     estimated scf accuracy    <       0.00007505 Ry

     total magnetization       =    32.83 Bohr mag/cell
     absolute magnetization    =    34.57 Bohr mag/cell

     iteration # 16     ecut=    71.00 Ry     beta= 0.10
     Davidson diagonalization with overlap
     ethr =  2.93E-08,  avg # of iterations =  2.9

     negative rho (up, down):  0.000E+00 2.445E-03

     total cpu time spent up to now is     1320.1 secs

     total energy              =   -5268.18937560 Ry
     Harris-Foulkes estimate   =   -5268.18937375 Ry
     estimated scf accuracy    <       0.00008119 Ry

     total magnetization       =    32.83 Bohr mag/cell
     absolute magnetization    =    34.57 Bohr mag/cell

     iteration # 17     ecut=    71.00 Ry     beta= 0.10
     Davidson diagonalization with overlap
     ethr =  2.93E-08,  avg # of iterations =  3.2

     negative rho (up, down):  0.000E+00 2.414E-03

     total cpu time spent up to now is     1414.8 secs

     total energy              =   -5268.18941121 Ry
     Harris-Foulkes estimate   =   -5268.18940814 Ry
     estimated scf accuracy    <       0.00001974 Ry

     total magnetization       =    32.88 Bohr mag/cell
     absolute magnetization    =    34.65 Bohr mag/cell

     iteration # 18     ecut=    71.00 Ry     beta= 0.10
     Davidson diagonalization with overlap
     ethr =  7.71E-09,  avg # of iterations =  2.5

     negative rho (up, down):  0.000E+00 2.434E-03

     total cpu time spent up to now is     1491.1 secs

     total energy              =   -5268.18941382 Ry
     Harris-Foulkes estimate   =   -5268.18941377 Ry
     estimated scf accuracy    <       0.00001276 Ry

     total magnetization       =    32.88 Bohr mag/cell
     absolute magnetization    =    34.64 Bohr mag/cell

     iteration # 19     ecut=    71.00 Ry     beta= 0.10
     Davidson diagonalization with overlap
     ethr =  4.99E-09,  avg # of iterations =  1.7

     negative rho (up, down):  0.000E+00 2.443E-03

     total cpu time spent up to now is     1554.3 secs

     total energy              =   -5268.18941572 Ry
     Harris-Foulkes estimate   =   -5268.18941485 Ry
     estimated scf accuracy    <       0.00000412 Ry

     total magnetization       =    32.89 Bohr mag/cell
     absolute magnetization    =    34.66 Bohr mag/cell

     iteration # 20     ecut=    71.00 Ry     beta= 0.10
     Davidson diagonalization with overlap
     ethr =  1.61E-09,  avg # of iterations =  2.5

     negative rho (up, down):  0.000E+00 2.455E-03

     total cpu time spent up to now is     1628.4 secs

     total energy              =   -5268.18941673 Ry
     Harris-Foulkes estimate   =   -5268.18941600 Ry
     estimated scf accuracy    <       0.00000260 Ry

     total magnetization       =    32.89 Bohr mag/cell
     absolute magnetization    =    34.66 Bohr mag/cell

     iteration # 21     ecut=    71.00 Ry     beta= 0.10
     Davidson diagonalization with overlap
     ethr =  1.02E-09,  avg # of iterations =  2.4

     negative rho (up, down):  0.000E+00 2.455E-03

     total cpu time spent up to now is     1703.0 secs

     total energy              =   -5268.18941783 Ry
     Harris-Foulkes estimate   =   -5268.18941700 Ry
     estimated scf accuracy    <       0.00000162 Ry

     total magnetization       =    32.90 Bohr mag/cell
     absolute magnetization    =    34.67 Bohr mag/cell

     iteration # 22     ecut=    71.00 Ry     beta= 0.10
     Davidson diagonalization with overlap
     ethr =  6.33E-10,  avg # of iterations =  1.0

     negative rho (up, down):  0.000E+00 2.453E-03

     total cpu time spent up to now is     1758.2 secs

     total energy              =   -5268.18941885 Ry
     Harris-Foulkes estimate   =   -5268.18941791 Ry
     estimated scf accuracy    <       0.00000125 Ry

     total magnetization       =    32.90 Bohr mag/cell
     absolute magnetization    =    34.67 Bohr mag/cell

     iteration # 23     ecut=    71.00 Ry     beta= 0.10
     Davidson diagonalization with overlap
     ethr =  4.89E-10,  avg # of iterations =  2.5

     negative rho (up, down):  0.000E+00 2.464E-03
 
     Magnetic moment per site:
     atom:    1    charge:   14.3583    magn:    2.0990    constr:    0.0000
     atom:    2    charge:   14.3583    magn:    2.1016    constr:    0.0000
     atom:    3    charge:   14.3584    magn:    2.0987    constr:    0.0000
     atom:    4    charge:   14.3582    magn:    2.1013    constr:    0.0000
     atom:    5    charge:   14.3583    magn:    2.1003    constr:    0.0000
     atom:    6    charge:   14.3583    magn:    2.1016    constr:    0.0000
     atom:    7    charge:   14.3582    magn:    2.0998    constr:    0.0000
     atom:    8    charge:   14.3582    magn:    2.1013    constr:    0.0000
     atom:    9    charge:   14.3584    magn:    2.0987    constr:    0.0000
     atom:   10    charge:   14.3582    magn:    2.1013    constr:    0.0000
     atom:   11    charge:   14.3582    magn:    2.0983    constr:    0.0000
     atom:   12    charge:   14.3583    magn:    2.1016    constr:    0.0000
     atom:   13    charge:   14.3582    magn:    2.0998    constr:    0.0000
     atom:   14    charge:   14.3582    magn:    2.1013    constr:    0.0000
     atom:   15    charge:   14.3583    magn:    2.0995    constr:    0.0000
     atom:   16    charge:   14.3583    magn:    2.1016    constr:    0.0000

     total cpu time spent up to now is     1833.4 secs

     End of self-consistent calculation

     Number of k-points >= 100: set verbosity='high' to print the bands.

     the Fermi energy is    18.9743 ev

!    total energy              =   -5268.18941998 Ry
     Harris-Foulkes estimate   =   -5268.18941897 Ry
     estimated scf accuracy    <       0.00000054 Ry

     total all-electron energy =    -40728.933949 Ry

     The total energy is the sum of the following terms:

     one-electron contribution =   -1707.44190655 Ry
     hartree contribution      =    1022.28541857 Ry
     xc contribution           =    -444.26063881 Ry
     ewald contribution        =   -2814.22538987 Ry
     one-center paw contrib.   =   -1324.67106486 Ry
     smearing contrib. (-TS)   =       0.12416155 Ry

     total magnetization       =    32.90 Bohr mag/cell
     absolute magnetization    =    34.67 Bohr mag/cell

     convergence has been achieved in  23 iterations

     negative rho (up, down):  0.000E+00 2.464E-03

     Forces acting on atoms (cartesian axes, Ry/au):

     atom    1 type  1   force =     0.00000000    0.00000000    0.00000000
     atom    2 type  2   force =     0.00006883    0.00020219    0.00006883
     atom    3 type  1   force =     0.00000000    0.00000000    0.00000000
     atom    4 type  2   force =    -0.00006666    0.00010443    0.00006666
     atom    5 type  1   force =     0.00000000    0.00000000    0.00000000
     atom    6 type  2   force =     0.00006883   -0.00020219    0.00006883
     atom    7 type  1   force =     0.00000000    0.00000000    0.00000000
     atom    8 type  2   force =    -0.00006666   -0.00010443    0.00006666
     atom    9 type  1   force =     0.00000000    0.00000000    0.00000000
     atom   10 type  2   force =     0.00006666    0.00010443   -0.00006666
     atom   11 type  1   force =     0.00000000    0.00000000    0.00000000
     atom   12 type  2   force =    -0.00006883    0.00020219   -0.00006883
     atom   13 type  1   force =     0.00000000    0.00000000    0.00000000
     atom   14 type  2   force =     0.00006666   -0.00010443   -0.00006666
     atom   15 type  1   force =     0.00000000    0.00000000    0.00000000
     atom   16 type  2   force =    -0.00006883   -0.00020219   -0.00006883

     Total force =     0.000530     Total SCF correction =     0.004661
     SCF correction compared to forces is large: reduce conv_thr to get better values


     Computing stress (Cartesian axis) and pressure


     negative rho (up, down):  0.000E+00 2.464E-03
          total   stress  (Ry/bohr**3)                   (kbar)     P=   -2.25
  -0.00001535   0.00000000  -0.00003732         -2.26      0.00     -5.49
   0.00000000  -0.00001519   0.00000000          0.00     -2.23      0.00
  -0.00003732   0.00000000  -0.00001535         -5.49      0.00     -2.26


     Writing output data file KabzAjUESYcOBsMN.save/
 
     init_run     :     21.23s CPU     22.08s WALL (       1 calls)
     electrons    :   1757.31s CPU   1810.10s WALL (       1 calls)
     forces       :      7.68s CPU      8.37s WALL (       1 calls)
     stress       :     20.56s CPU     20.75s WALL (       1 calls)

     Called by init_run:
     wfcinit      :     20.57s CPU     21.36s WALL (       1 calls)
     potinit      :      0.31s CPU      0.33s WALL (       1 calls)
     hinit0       :      0.24s CPU      0.25s WALL (       1 calls)

     Called by electrons:
     c_bands      :   1586.12s CPU   1630.02s WALL (      24 calls)
     sum_band     :    166.35s CPU    174.66s WALL (      24 calls)
     v_of_rho     :      0.38s CPU      0.39s WALL (      24 calls)
     newd         :      0.74s CPU      0.97s WALL (      24 calls)
     PAW_pot      :      3.71s CPU      3.97s WALL (      24 calls)
     mix_rho      :      0.14s CPU      0.15s WALL (      24 calls)

     Called by c_bands:
     init_us_2    :      8.04s CPU      8.12s WALL (   12750 calls)
     cegterg      :   1542.99s CPU   1586.39s WALL (    6000 calls)

     Called by sum_band:
     sum_band:bec :      2.23s CPU      2.26s WALL (    6000 calls)
     addusdens    :      1.34s CPU      1.53s WALL (      24 calls)

     Called by *egterg:
     h_psi        :    649.18s CPU    675.97s WALL (   19982 calls)
     s_psi        :     34.14s CPU     34.35s WALL (   19982 calls)
     g_psi        :      1.35s CPU      1.37s WALL (   13732 calls)
     cdiaghg      :    706.10s CPU    708.43s WALL (   19482 calls)

     Called by h_psi:
     h_psi:pot    :    645.46s CPU    672.21s WALL (   19982 calls)
     h_psi:calbec :     53.88s CPU     61.71s WALL (   19982 calls)
     vloc_psi     :    557.07s CPU    575.71s WALL (   19982 calls)
     add_vuspsi   :     34.35s CPU     34.67s WALL (   19982 calls)

     General routines
     calbec       :     82.58s CPU     94.93s WALL (   27232 calls)
     fft          :      0.43s CPU      0.46s WALL (     642 calls)
     ffts         :      0.04s CPU      0.23s WALL (      96 calls)
     fftw         :    651.83s CPU    673.54s WALL ( 4955724 calls)
     interpolate  :      0.07s CPU      0.15s WALL (      48 calls)
 
     Parallel routines
     fft_scatt_xy :     42.20s CPU     43.54s WALL ( 4956462 calls)
     fft_scatt_yz :    440.44s CPU    455.36s WALL ( 4956462 calls)
 
     PWSCF        : 30m21.88s CPU    32m 4.48s WALL

 
   This run was terminated on:  12:50: 4   2Nov2020            

=------------------------------------------------------------------------------=
   JOB DONE.
=------------------------------------------------------------------------------=
