--------------------------------------------------------------------------
WARNING: No preset parameters were found for the device that Open MPI
detected:

  Local host:            bear-pg0206u26a
  Device name:           mlx5_0
  Device vendor ID:      0x02c9
  Device vendor part ID: 4123

Default device parameters will be used, which may result in lower
performance.  You can edit any of the files specified by the
btl_openib_device_param_files MCA parameter to set values for your
device.

NOTE: You can turn off this warning by setting the MCA parameter
      btl_openib_warn_no_device_params_found to 0.
--------------------------------------------------------------------------
--------------------------------------------------------------------------
WARNING: There was an error initializing an OpenFabrics device.

  Local host:   bear-pg0206u26a
  Local device: mlx5_0
--------------------------------------------------------------------------

     Program PWSCF v.6.3 starts on  2Nov2020 at 20:52: 0 

     This program is part of the open-source Quantum ESPRESSO suite
     for quantum simulation of materials; please cite
         "P. Giannozzi et al., J. Phys.:Condens. Matter 21 395502 (2009);
         "P. Giannozzi et al., J. Phys.:Condens. Matter 29 465901 (2017);
          URL http://www.quantum-espresso.org", 
     in publications or presentations arising from this work. More details at
     http://www.quantum-espresso.org/quote

     Parallel version (MPI & OpenMP), running on      40 processor cores
     Number of MPI processes:                40
     Threads/MPI process:                     1

     MPI processes distributed on     1 nodes
     R & G space division:  proc/nbgrp/npool/nimage =      40
     Reading input from wd/ec/ec_8_005.in
Warning: card &IONS ignored
Warning: card ION_DYNAMICS = 'BFGS', ignored
Warning: card / ignored
Warning: card &CELL ignored
Warning: card CELL_DYNAMICS = 'BFGS', ignored
Warning: card CELL_FACTOR = 2.0, ignored
Warning: card PRESS = 0.0, ignored
Warning: card / ignored

     Current dimensions of program PWSCF are:
     Max number of different atomic species (ntypx) = 10
     Max number of k-points (npk) =  40000
     Max angular momentum in pseudopotentials (lmaxx) =  3
               file Fe.pbe-spn-kjpaw_psl.1.0.0.UPF: wavefunction(s)  3P 3D renormalized
               file Fe.pbe-spn-kjpaw_psl.1.0.0.UPF: wavefunction(s)  3P 3D renormalized

     Subspace diagonalization in iterative solution of the eigenvalue problem:
     a serial algorithm will be used

     Found symmetry operation: I + (  0.0000  0.0000 -0.5000)
     This is a supercell, fractional translations are disabled
 
     Parallelization info
     --------------------
     sticks:   dense  smooth     PW     G-vecs:    dense   smooth      PW
     Min          96      63     17                 4472     2401     355
     Max          97      64     18                 4476     2406     360
     Sum        3851    2553    717               178967    96157   14307
 


     bravais-lattice index     =            0
     lattice parameter (alat)  =      10.5935  a.u.
     unit-cell volume          =    1188.8329 (a.u.)^3
     number of atoms/cell      =           16
     number of atomic types    =            2
     number of electrons       =       256.00
     number of Kohn-Sham states=          154
     kinetic-energy cutoff     =      71.0000  Ry
     charge density cutoff     =     430.0000  Ry
     convergence threshold     =      1.0E-06
     mixing beta               =       0.1000
     number of iterations used =           10  plain     mixing
     Exchange-correlation      = SLA PW PBX PBC ( 1  4  3  4 0 0)

     celldm(1)=  10.593520  celldm(2)=   0.000000  celldm(3)=   0.000000
     celldm(4)=   0.000000  celldm(5)=   0.000000  celldm(6)=   0.000000

     crystal axes: (cart. coord. in units of alat)
               a(1) = (   1.002669   0.000000   0.000000 )  
               a(2) = (   0.000000   1.000002   0.000000 )  
               a(3) = (   0.000000   0.000000   0.997336 )  

     reciprocal axes: (cart. coord. in units 2 pi/alat)
               b(1) = (  0.997338  0.000000  0.000000 )  
               b(2) = (  0.000000  0.999998  0.000000 )  
               b(3) = (  0.000000  0.000000  1.002671 )  


     PseudoPot. # 1 for Fe read from file:
     /rds/homes/b/bxp912/pp/Fe.pbe-spn-kjpaw_psl.1.0.0.UPF
     MD5 check sum: 42f43b795421b414b0dc916aa790dbcb
     Pseudo is Projector augmented-wave + core cor, Zval = 16.0
     Generated using "atomic" code by A. Dal Corso v.6.3
     Shape of augmentation charge: PSQ
     Using radial grid of 1191 points,  6 beta functions with: 
                l(1) =   0
                l(2) =   0
                l(3) =   1
                l(4) =   1
                l(5) =   2
                l(6) =   2
     Q(r) pseudized with 0 coefficients 


     PseudoPot. # 2 for Fe read from file:
     /rds/homes/b/bxp912/pp/Fe.pbe-spn-kjpaw_psl.1.0.0.UPF
     MD5 check sum: 42f43b795421b414b0dc916aa790dbcb
     Pseudo is Projector augmented-wave + core cor, Zval = 16.0
     Generated using "atomic" code by A. Dal Corso v.6.3
     Shape of augmentation charge: PSQ
     Using radial grid of 1191 points,  6 beta functions with: 
                l(1) =   0
                l(2) =   0
                l(3) =   1
                l(4) =   1
                l(5) =   2
                l(6) =   2
     Q(r) pseudized with 0 coefficients 


     atomic species   valence    mass     pseudopotential
        Fe1           16.00    55.84500     Fe( 1.00)
        Fe2           16.00    55.84500     Fe( 1.00)

     Starting magnetic structure 
     atomic species   magnetization
        Fe1          0.100
        Fe2          0.100

      8 Sym. Ops., with inversion, found



   Cartesian axes

     site n.     atom                  positions (alat units)
         1           Fe1 tau(   1) = (   0.0000000   0.0000000   0.0000000  )
         2           Fe2 tau(   2) = (   0.2506677   0.2500010   0.2493344  )
         3           Fe1 tau(   3) = (   0.0000000   0.0000000   0.4986678  )
         4           Fe2 tau(   4) = (   0.2506677   0.2500010   0.7480013  )
         5           Fe1 tau(   5) = (   0.0000000   0.5000012   0.0000000  )
         6           Fe2 tau(   6) = (   0.2506677   0.7500013   0.2493344  )
         7           Fe1 tau(   7) = (   0.0000000   0.5000012   0.4986678  )
         8           Fe2 tau(   8) = (   0.2506677   0.7500013   0.7480013  )
         9           Fe1 tau(   9) = (   0.5013345   0.0000000   0.0000000  )
        10           Fe2 tau(  10) = (   0.7520014   0.2500010   0.2493344  )
        11           Fe1 tau(  11) = (   0.5013345   0.0000000   0.4986678  )
        12           Fe2 tau(  12) = (   0.7520014   0.2500010   0.7480013  )
        13           Fe1 tau(  13) = (   0.5013345   0.5000012   0.0000000  )
        14           Fe2 tau(  14) = (   0.7520014   0.7500013   0.2493344  )
        15           Fe1 tau(  15) = (   0.5013345   0.5000012   0.4986678  )
        16           Fe2 tau(  16) = (   0.7520014   0.7500013   0.7480013  )

     number of k points=   125  Marzari-Vanderbilt smearing, width (Ry)=  0.0400

     Number of k-points >= 100: set verbosity='high' to print them.

     Dense  grid:   178967 G-vectors     FFT dimensions: (  72,  72,  72)

     Smooth grid:    96157 G-vectors     FFT dimensions: (  60,  60,  60)

     Estimated max dynamical RAM per process >     215.38 MB

     Estimated total dynamical RAM >       8.41 GB
     Generating pointlists ...
     new r_m :   0.1786 (alat units)  1.8922 (a.u.) for type    1
     new r_m :   0.1786 (alat units)  1.8922 (a.u.) for type    2

     Check: negative/imaginary core charge=   -0.000006    0.000000

     Initial potential from superposition of free atoms

     starting charge  255.99300, renormalised to  256.00000
     Starting wfcs are  160 randomized atomic wfcs
     Checking if some PAW data can be deallocated... 

     total cpu time spent up to now is       23.3 secs

     Self-consistent Calculation

     iteration #  1     ecut=    71.00 Ry     beta= 0.10
     Davidson diagonalization with overlap
     ethr =  1.00E-02,  avg # of iterations =  3.4

     Threshold (ethr) on eigenvalues was too large:
     Diagonalizing with lowered threshold

     Davidson diagonalization with overlap
     ethr =  2.83E-04,  avg # of iterations =  3.4

     total cpu time spent up to now is      209.4 secs

     total energy              =   -5268.17610615 Ry
     Harris-Foulkes estimate   =   -5268.32781488 Ry
     estimated scf accuracy    <       0.82059558 Ry

     total magnetization       =    28.04 Bohr mag/cell
     absolute magnetization    =    28.41 Bohr mag/cell

     iteration #  2     ecut=    71.00 Ry     beta= 0.10
     Davidson diagonalization with overlap
     ethr =  3.21E-04,  avg # of iterations =  1.0

     total cpu time spent up to now is      264.6 secs

     total energy              =   -5268.07004337 Ry
     Harris-Foulkes estimate   =   -5268.19491352 Ry
     estimated scf accuracy    <       0.49784107 Ry

     total magnetization       =    28.67 Bohr mag/cell
     absolute magnetization    =    28.95 Bohr mag/cell

     iteration #  3     ecut=    71.00 Ry     beta= 0.10
     Davidson diagonalization with overlap
     ethr =  1.94E-04,  avg # of iterations =  2.5

     total cpu time spent up to now is      340.2 secs

     total energy              =   -5268.03728096 Ry
     Harris-Foulkes estimate   =   -5268.11678940 Ry
     estimated scf accuracy    <       0.57579635 Ry

     total magnetization       =    29.37 Bohr mag/cell
     absolute magnetization    =    29.70 Bohr mag/cell

     iteration #  4     ecut=    71.00 Ry     beta= 0.10
     Davidson diagonalization with overlap
     ethr =  1.94E-04,  avg # of iterations =  2.1

     total cpu time spent up to now is      408.8 secs

     total energy              =   -5268.06927649 Ry
     Harris-Foulkes estimate   =   -5268.07310670 Ry
     estimated scf accuracy    <       0.17921583 Ry

     total magnetization       =    30.20 Bohr mag/cell
     absolute magnetization    =    30.58 Bohr mag/cell

     iteration #  5     ecut=    71.00 Ry     beta= 0.10
     Davidson diagonalization with overlap
     ethr =  7.00E-05,  avg # of iterations =  1.3

     total cpu time spent up to now is      467.8 secs

     total energy              =   -5268.08811942 Ry
     Harris-Foulkes estimate   =   -5268.07352322 Ry
     estimated scf accuracy    <       0.11152011 Ry

     total magnetization       =    30.30 Bohr mag/cell
     absolute magnetization    =    30.69 Bohr mag/cell

     iteration #  6     ecut=    71.00 Ry     beta= 0.10
     Davidson diagonalization with overlap
     ethr =  4.36E-05,  avg # of iterations =  3.2

     total cpu time spent up to now is      570.8 secs

     total energy              =   -5268.14462753 Ry
     Harris-Foulkes estimate   =   -5268.12676004 Ry
     estimated scf accuracy    <       0.13291688 Ry

     total magnetization       =    30.92 Bohr mag/cell
     absolute magnetization    =    31.62 Bohr mag/cell

     iteration #  7     ecut=    71.00 Ry     beta= 0.10
     Davidson diagonalization with overlap
     ethr =  4.36E-05,  avg # of iterations =  2.0

     total cpu time spent up to now is      642.0 secs

     total energy              =   -5268.15328590 Ry
     Harris-Foulkes estimate   =   -5268.15263460 Ry
     estimated scf accuracy    <       0.09941802 Ry

     total magnetization       =    31.45 Bohr mag/cell
     absolute magnetization    =    32.36 Bohr mag/cell

     iteration #  8     ecut=    71.00 Ry     beta= 0.10
     Davidson diagonalization with overlap
     ethr =  3.88E-05,  avg # of iterations =  1.0

     negative rho (up, down):  0.000E+00 1.759E-03

     total cpu time spent up to now is      700.1 secs

     total energy              =   -5268.17026519 Ry
     Harris-Foulkes estimate   =   -5268.15462909 Ry
     estimated scf accuracy    <       0.07738621 Ry

     total magnetization       =    31.60 Bohr mag/cell
     absolute magnetization    =    32.57 Bohr mag/cell

     iteration #  9     ecut=    71.00 Ry     beta= 0.10
     Davidson diagonalization with overlap
     ethr =  3.02E-05,  avg # of iterations =  2.8

     negative rho (up, down):  0.000E+00 2.146E-03

     total cpu time spent up to now is      792.1 secs

     total energy              =   -5268.18933542 Ry
     Harris-Foulkes estimate   =   -5268.18716829 Ry
     estimated scf accuracy    <       0.03174610 Ry

     total magnetization       =    32.34 Bohr mag/cell
     absolute magnetization    =    33.73 Bohr mag/cell

     iteration # 10     ecut=    71.00 Ry     beta= 0.10
     Davidson diagonalization with overlap
     ethr =  1.24E-05,  avg # of iterations =  1.0

     negative rho (up, down):  0.000E+00 2.510E-03

     total cpu time spent up to now is      847.9 secs

     total energy              =   -5268.18783449 Ry
     Harris-Foulkes estimate   =   -5268.19008673 Ry
     estimated scf accuracy    <       0.01644776 Ry

     total magnetization       =    32.48 Bohr mag/cell
     absolute magnetization    =    33.93 Bohr mag/cell

     iteration # 11     ecut=    71.00 Ry     beta= 0.10
     Davidson diagonalization with overlap
     ethr =  6.42E-06,  avg # of iterations =  2.4

     negative rho (up, down):  0.000E+00 2.557E-03

     total cpu time spent up to now is      923.8 secs

     total energy              =   -5268.18864506 Ry
     Harris-Foulkes estimate   =   -5268.18886595 Ry
     estimated scf accuracy    <       0.00170532 Ry

     total magnetization       =    32.65 Bohr mag/cell
     absolute magnetization    =    34.26 Bohr mag/cell

     iteration # 12     ecut=    71.00 Ry     beta= 0.10
     Davidson diagonalization with overlap
     ethr =  6.66E-07,  avg # of iterations =  2.9

     negative rho (up, down):  0.000E+00 2.579E-03

     total cpu time spent up to now is     1005.3 secs

     total energy              =   -5268.18895457 Ry
     Harris-Foulkes estimate   =   -5268.18879214 Ry
     estimated scf accuracy    <       0.00080330 Ry

     total magnetization       =    32.70 Bohr mag/cell
     absolute magnetization    =    34.34 Bohr mag/cell

     iteration # 13     ecut=    71.00 Ry     beta= 0.10
     Davidson diagonalization with overlap
     ethr =  3.14E-07,  avg # of iterations =  2.0

     negative rho (up, down):  0.000E+00 2.554E-03

     total cpu time spent up to now is     1073.6 secs

     total energy              =   -5268.18889679 Ry
     Harris-Foulkes estimate   =   -5268.18902922 Ry
     estimated scf accuracy    <       0.00113381 Ry

     total magnetization       =    32.74 Bohr mag/cell
     absolute magnetization    =    34.42 Bohr mag/cell

     iteration # 14     ecut=    71.00 Ry     beta= 0.10
     Davidson diagonalization with overlap
     ethr =  3.14E-07,  avg # of iterations =  2.5

     negative rho (up, down):  0.000E+00 2.475E-03

     total cpu time spent up to now is     1154.5 secs

     total energy              =   -5268.18916844 Ry
     Harris-Foulkes estimate   =   -5268.18901666 Ry
     estimated scf accuracy    <       0.00073693 Ry

     total magnetization       =    32.77 Bohr mag/cell
     absolute magnetization    =    34.49 Bohr mag/cell

     iteration # 15     ecut=    71.00 Ry     beta= 0.10
     Davidson diagonalization with overlap
     ethr =  2.88E-07,  avg # of iterations =  1.5

     negative rho (up, down):  0.000E+00 2.482E-03

     total cpu time spent up to now is     1218.0 secs

     total energy              =   -5268.18925701 Ry
     Harris-Foulkes estimate   =   -5268.18921801 Ry
     estimated scf accuracy    <       0.00019941 Ry

     total magnetization       =    32.78 Bohr mag/cell
     absolute magnetization    =    34.50 Bohr mag/cell

     iteration # 16     ecut=    71.00 Ry     beta= 0.10
     Davidson diagonalization with overlap
     ethr =  7.79E-08,  avg # of iterations =  2.5

     negative rho (up, down):  0.000E+00 2.458E-03

     total cpu time spent up to now is     1299.3 secs

     total energy              =   -5268.18932350 Ry
     Harris-Foulkes estimate   =   -5268.18928142 Ry
     estimated scf accuracy    <       0.00010314 Ry

     total magnetization       =    32.82 Bohr mag/cell
     absolute magnetization    =    34.56 Bohr mag/cell

     iteration # 17     ecut=    71.00 Ry     beta= 0.10
     Davidson diagonalization with overlap
     ethr =  4.03E-08,  avg # of iterations =  2.1

     negative rho (up, down):  0.000E+00 2.400E-03

     total cpu time spent up to now is     1370.8 secs

     total energy              =   -5268.18935804 Ry
     Harris-Foulkes estimate   =   -5268.18933211 Ry
     estimated scf accuracy    <       0.00006901 Ry

     total magnetization       =    32.83 Bohr mag/cell
     absolute magnetization    =    34.58 Bohr mag/cell

     iteration # 18     ecut=    71.00 Ry     beta= 0.10
     Davidson diagonalization with overlap
     ethr =  2.70E-08,  avg # of iterations =  2.7

     negative rho (up, down):  0.000E+00 2.415E-03

     total cpu time spent up to now is     1457.5 secs

     total energy              =   -5268.18938605 Ry
     Harris-Foulkes estimate   =   -5268.18937852 Ry
     estimated scf accuracy    <       0.00003811 Ry

     total magnetization       =    32.85 Bohr mag/cell
     absolute magnetization    =    34.60 Bohr mag/cell

     iteration # 19     ecut=    71.00 Ry     beta= 0.10
     Davidson diagonalization with overlap
     ethr =  1.49E-08,  avg # of iterations =  2.0

     negative rho (up, down):  0.000E+00 2.418E-03

     total cpu time spent up to now is     1527.1 secs

     total energy              =   -5268.18938955 Ry
     Harris-Foulkes estimate   =   -5268.18938923 Ry
     estimated scf accuracy    <       0.00002262 Ry

     total magnetization       =    32.87 Bohr mag/cell
     absolute magnetization    =    34.63 Bohr mag/cell

     iteration # 20     ecut=    71.00 Ry     beta= 0.10
     Davidson diagonalization with overlap
     ethr =  8.84E-09,  avg # of iterations =  1.0

     negative rho (up, down):  0.000E+00 2.464E-03

     total cpu time spent up to now is     1583.6 secs

     total energy              =   -5268.18938861 Ry
     Harris-Foulkes estimate   =   -5268.18939023 Ry
     estimated scf accuracy    <       0.00001849 Ry

     total magnetization       =    32.87 Bohr mag/cell
     absolute magnetization    =    34.63 Bohr mag/cell

     iteration # 21     ecut=    71.00 Ry     beta= 0.10
     Davidson diagonalization with overlap
     ethr =  7.22E-09,  avg # of iterations =  3.1

     negative rho (up, down):  0.000E+00 2.468E-03

     total cpu time spent up to now is     1675.1 secs

     total energy              =   -5268.18939407 Ry
     Harris-Foulkes estimate   =   -5268.18939338 Ry
     estimated scf accuracy    <       0.00000607 Ry

     total magnetization       =    32.89 Bohr mag/cell
     absolute magnetization    =    34.66 Bohr mag/cell

     iteration # 22     ecut=    71.00 Ry     beta= 0.10
     Davidson diagonalization with overlap
     ethr =  2.37E-09,  avg # of iterations =  1.0

     negative rho (up, down):  0.000E+00 2.463E-03

     total cpu time spent up to now is     1730.3 secs

     total energy              =   -5268.18939691 Ry
     Harris-Foulkes estimate   =   -5268.18939435 Ry
     estimated scf accuracy    <       0.00000362 Ry

     total magnetization       =    32.89 Bohr mag/cell
     absolute magnetization    =    34.66 Bohr mag/cell

     iteration # 23     ecut=    71.00 Ry     beta= 0.10
     Davidson diagonalization with overlap
     ethr =  1.42E-09,  avg # of iterations =  2.2

     negative rho (up, down):  0.000E+00 2.453E-03

     total cpu time spent up to now is     1801.4 secs

     total energy              =   -5268.18939876 Ry
     Harris-Foulkes estimate   =   -5268.18939728 Ry
     estimated scf accuracy    <       0.00000220 Ry

     total magnetization       =    32.90 Bohr mag/cell
     absolute magnetization    =    34.67 Bohr mag/cell

     iteration # 24     ecut=    71.00 Ry     beta= 0.10
     Davidson diagonalization with overlap
     ethr =  8.61E-10,  avg # of iterations =  3.0

     negative rho (up, down):  0.000E+00 2.451E-03

     total cpu time spent up to now is     1891.5 secs

     total energy              =   -5268.18939979 Ry
     Harris-Foulkes estimate   =   -5268.18939929 Ry
     estimated scf accuracy    <       0.00000127 Ry

     total magnetization       =    32.90 Bohr mag/cell
     absolute magnetization    =    34.66 Bohr mag/cell

     iteration # 25     ecut=    71.00 Ry     beta= 0.10
     Davidson diagonalization with overlap
     ethr =  4.98E-10,  avg # of iterations =  1.8

     negative rho (up, down):  0.000E+00 2.463E-03
 
     Magnetic moment per site:
     atom:    1    charge:   14.3665    magn:    2.0996    constr:    0.0000
     atom:    2    charge:   14.3664    magn:    2.1015    constr:    0.0000
     atom:    3    charge:   14.3665    magn:    2.1002    constr:    0.0000
     atom:    4    charge:   14.3664    magn:    2.1015    constr:    0.0000
     atom:    5    charge:   14.3666    magn:    2.1002    constr:    0.0000
     atom:    6    charge:   14.3664    magn:    2.1015    constr:    0.0000
     atom:    7    charge:   14.3664    magn:    2.1003    constr:    0.0000
     atom:    8    charge:   14.3664    magn:    2.1015    constr:    0.0000
     atom:    9    charge:   14.3665    magn:    2.0985    constr:    0.0000
     atom:   10    charge:   14.3664    magn:    2.1015    constr:    0.0000
     atom:   11    charge:   14.3664    magn:    2.0988    constr:    0.0000
     atom:   12    charge:   14.3664    magn:    2.1015    constr:    0.0000
     atom:   13    charge:   14.3666    magn:    2.0989    constr:    0.0000
     atom:   14    charge:   14.3664    magn:    2.1015    constr:    0.0000
     atom:   15    charge:   14.3665    magn:    2.0994    constr:    0.0000
     atom:   16    charge:   14.3664    magn:    2.1015    constr:    0.0000

     total cpu time spent up to now is     1956.7 secs

     End of self-consistent calculation

     Number of k-points >= 100: set verbosity='high' to print the bands.

     the Fermi energy is    18.9744 ev

!    total energy              =   -5268.18940143 Ry
     Harris-Foulkes estimate   =   -5268.18939986 Ry
     estimated scf accuracy    <       0.00000052 Ry

     total all-electron energy =    -40728.933930 Ry

     The total energy is the sum of the following terms:

     one-electron contribution =   -1707.43356929 Ry
     hartree contribution      =    1022.28008454 Ry
     xc contribution           =    -444.26003268 Ry
     ewald contribution        =   -2814.22888852 Ry
     one-center paw contrib.   =   -1324.67109622 Ry
     smearing contrib. (-TS)   =       0.12410073 Ry

     total magnetization       =    32.90 Bohr mag/cell
     absolute magnetization    =    34.66 Bohr mag/cell

     convergence has been achieved in  25 iterations

     negative rho (up, down):  0.000E+00 2.463E-03

     Forces acting on atoms (cartesian axes, Ry/au):

     atom    1 type  1   force =     0.00000000    0.00000000    0.00000000
     atom    2 type  2   force =    -0.00005668    0.00022402    0.00007825
     atom    3 type  1   force =     0.00000000    0.00000000    0.00000000
     atom    4 type  2   force =    -0.00005668    0.00022402   -0.00007825
     atom    5 type  1   force =     0.00000000    0.00000000    0.00000000
     atom    6 type  2   force =    -0.00005668   -0.00022402    0.00007825
     atom    7 type  1   force =     0.00000000    0.00000000    0.00000000
     atom    8 type  2   force =    -0.00005668   -0.00022402   -0.00007825
     atom    9 type  1   force =     0.00000000    0.00000000    0.00000000
     atom   10 type  2   force =     0.00005668    0.00022402    0.00007825
     atom   11 type  1   force =     0.00000000    0.00000000    0.00000000
     atom   12 type  2   force =     0.00005668    0.00022402   -0.00007825
     atom   13 type  1   force =     0.00000000    0.00000000    0.00000000
     atom   14 type  2   force =     0.00005668   -0.00022402    0.00007825
     atom   15 type  1   force =     0.00000000    0.00000000    0.00000000
     atom   16 type  2   force =     0.00005668   -0.00022402   -0.00007825

     Total force =     0.000690     Total SCF correction =     0.005020
     SCF correction compared to forces is large: reduce conv_thr to get better values


     Computing stress (Cartesian axis) and pressure


     negative rho (up, down):  0.000E+00 2.463E-03
          total   stress  (Ry/bohr**3)                   (kbar)     P=   -2.45
  -0.00004017   0.00000000   0.00000000         -5.91      0.00      0.00
   0.00000000  -0.00001697   0.00000000          0.00     -2.50      0.00
   0.00000000   0.00000000   0.00000718          0.00      0.00      1.06


     Writing output data file UWjyFTORhGYHfBgb.save/
 
     init_run     :     21.08s CPU     22.01s WALL (       1 calls)
     electrons    :   1874.90s CPU   1933.40s WALL (       1 calls)
     forces       :      7.53s CPU      8.23s WALL (       1 calls)
     stress       :     20.25s CPU     20.46s WALL (       1 calls)

     Called by init_run:
     wfcinit      :     20.65s CPU     21.49s WALL (       1 calls)
     potinit      :      0.20s CPU      0.22s WALL (       1 calls)
     hinit0       :      0.13s CPU      0.17s WALL (       1 calls)

     Called by electrons:
     c_bands      :   1689.26s CPU   1738.07s WALL (      26 calls)
     sum_band     :    180.33s CPU    189.46s WALL (      26 calls)
     v_of_rho     :      0.39s CPU      0.40s WALL (      26 calls)
     newd         :      0.82s CPU      1.05s WALL (      26 calls)
     PAW_pot      :      4.02s CPU      4.25s WALL (      26 calls)
     mix_rho      :      0.16s CPU      0.16s WALL (      26 calls)

     Called by c_bands:
     init_us_2    :      9.20s CPU      9.33s WALL (   13750 calls)
     cegterg      :   1643.09s CPU   1691.35s WALL (    6500 calls)

     Called by sum_band:
     sum_band:bec :      2.39s CPU      2.42s WALL (    6500 calls)
     addusdens    :      1.23s CPU      1.43s WALL (      26 calls)

     Called by *egterg:
     h_psi        :    709.47s CPU    739.07s WALL (   20870 calls)
     s_psi        :     36.83s CPU     37.08s WALL (   20870 calls)
     g_psi        :      1.50s CPU      1.53s WALL (   14120 calls)
     cdiaghg      :    729.21s CPU    731.74s WALL (   20370 calls)

     Called by h_psi:
     h_psi:pot    :    705.27s CPU    734.83s WALL (   20870 calls)
     h_psi:calbec :     58.37s CPU     67.48s WALL (   20870 calls)
     vloc_psi     :    609.80s CPU    629.99s WALL (   20870 calls)
     add_vuspsi   :     36.93s CPU     37.23s WALL (   20870 calls)

     General routines
     calbec       :     88.49s CPU    102.65s WALL (   28620 calls)
     fft          :      0.41s CPU      0.45s WALL (     692 calls)
     ffts         :      0.05s CPU      0.25s WALL (     104 calls)
     fftw         :    711.92s CPU    735.34s WALL ( 5393066 calls)
     interpolate  :      0.07s CPU      0.16s WALL (      52 calls)
 
     Parallel routines
     fft_scatt_xy :     45.98s CPU     47.41s WALL ( 5393862 calls)
     fft_scatt_yz :    478.63s CPU    494.79s WALL ( 5393862 calls)
 
     PWSCF        : 32m18.74s CPU    34m 8.28s WALL

 
   This run was terminated on:  21:26: 8   2Nov2020            

=------------------------------------------------------------------------------=
   JOB DONE.
=------------------------------------------------------------------------------=
