--------------------------------------------------------------------------
WARNING: No preset parameters were found for the device that Open MPI
detected:

  Local host:            bear-pg0206u26a
  Device name:           mlx5_0
  Device vendor ID:      0x02c9
  Device vendor part ID: 4123

Default device parameters will be used, which may result in lower
performance.  You can edit any of the files specified by the
btl_openib_device_param_files MCA parameter to set values for your
device.

NOTE: You can turn off this warning by setting the MCA parameter
      btl_openib_warn_no_device_params_found to 0.
--------------------------------------------------------------------------
--------------------------------------------------------------------------
WARNING: There was an error initializing an OpenFabrics device.

  Local host:   bear-pg0206u26a
  Local device: mlx5_0
--------------------------------------------------------------------------

     Program PWSCF v.6.3 starts on  2Nov2020 at 22:30:43 

     This program is part of the open-source Quantum ESPRESSO suite
     for quantum simulation of materials; please cite
         "P. Giannozzi et al., J. Phys.:Condens. Matter 21 395502 (2009);
         "P. Giannozzi et al., J. Phys.:Condens. Matter 29 465901 (2017);
          URL http://www.quantum-espresso.org", 
     in publications or presentations arising from this work. More details at
     http://www.quantum-espresso.org/quote

     Parallel version (MPI & OpenMP), running on      40 processor cores
     Number of MPI processes:                40
     Threads/MPI process:                     1

     MPI processes distributed on     1 nodes
     R & G space division:  proc/nbgrp/npool/nimage =      40
     Reading input from wd/ec/ec_9_003.in
Warning: card &IONS ignored
Warning: card ION_DYNAMICS = 'BFGS', ignored
Warning: card / ignored
Warning: card &CELL ignored
Warning: card CELL_DYNAMICS = 'BFGS', ignored
Warning: card CELL_FACTOR = 2.0, ignored
Warning: card PRESS = 0.0, ignored
Warning: card / ignored

     Current dimensions of program PWSCF are:
     Max number of different atomic species (ntypx) = 10
     Max number of k-points (npk) =  40000
     Max angular momentum in pseudopotentials (lmaxx) =  3
               file Fe.pbe-spn-kjpaw_psl.1.0.0.UPF: wavefunction(s)  3P 3D renormalized
               file Fe.pbe-spn-kjpaw_psl.1.0.0.UPF: wavefunction(s)  3P 3D renormalized

     Subspace diagonalization in iterative solution of the eigenvalue problem:
     a serial algorithm will be used

     Found symmetry operation: I + (  0.0000  0.0000  0.5000)
     This is a supercell, fractional translations are disabled
 
     Parallelization info
     --------------------
     sticks:   dense  smooth     PW     G-vecs:    dense   smooth      PW
     Min          95      63     17                 4471     2401     355
     Max          97      64     18                 4476     2406     360
     Sum        3839    2549    717               178943    96121   14331
 


     bravais-lattice index     =            0
     lattice parameter (alat)  =      10.5935  a.u.
     unit-cell volume          =    1188.8329 (a.u.)^3
     number of atoms/cell      =           16
     number of atomic types    =            2
     number of electrons       =       256.00
     number of Kohn-Sham states=          154
     kinetic-energy cutoff     =      71.0000  Ry
     charge density cutoff     =     430.0000  Ry
     convergence threshold     =      1.0E-06
     mixing beta               =       0.1000
     number of iterations used =           10  plain     mixing
     Exchange-correlation      = SLA PW PBX PBC ( 1  4  3  4 0 0)

     celldm(1)=  10.593520  celldm(2)=   0.000000  celldm(3)=   0.000000
     celldm(4)=   0.000000  celldm(5)=   0.000000  celldm(6)=   0.000000

     crystal axes: (cart. coord. in units of alat)
               a(1) = (   1.000001   0.000000   0.000000 )  
               a(2) = (   0.000000   1.001334   0.000000 )  
               a(3) = (   0.000000   0.000000   0.998667 )  

     reciprocal axes: (cart. coord. in units 2 pi/alat)
               b(1) = (  0.999999  0.000000  0.000000 )  
               b(2) = (  0.000000  0.998668  0.000000 )  
               b(3) = (  0.000000  0.000000  1.001335 )  


     PseudoPot. # 1 for Fe read from file:
     /rds/homes/b/bxp912/pp/Fe.pbe-spn-kjpaw_psl.1.0.0.UPF
     MD5 check sum: 42f43b795421b414b0dc916aa790dbcb
     Pseudo is Projector augmented-wave + core cor, Zval = 16.0
     Generated using "atomic" code by A. Dal Corso v.6.3
     Shape of augmentation charge: PSQ
     Using radial grid of 1191 points,  6 beta functions with: 
                l(1) =   0
                l(2) =   0
                l(3) =   1
                l(4) =   1
                l(5) =   2
                l(6) =   2
     Q(r) pseudized with 0 coefficients 


     PseudoPot. # 2 for Fe read from file:
     /rds/homes/b/bxp912/pp/Fe.pbe-spn-kjpaw_psl.1.0.0.UPF
     MD5 check sum: 42f43b795421b414b0dc916aa790dbcb
     Pseudo is Projector augmented-wave + core cor, Zval = 16.0
     Generated using "atomic" code by A. Dal Corso v.6.3
     Shape of augmentation charge: PSQ
     Using radial grid of 1191 points,  6 beta functions with: 
                l(1) =   0
                l(2) =   0
                l(3) =   1
                l(4) =   1
                l(5) =   2
                l(6) =   2
     Q(r) pseudized with 0 coefficients 


     atomic species   valence    mass     pseudopotential
        Fe1           16.00    55.84500     Fe( 1.00)
        Fe2           16.00    55.84500     Fe( 1.00)

     Starting magnetic structure 
     atomic species   magnetization
        Fe1          0.100
        Fe2          0.100

      8 Sym. Ops., with inversion, found



   Cartesian axes

     site n.     atom                  positions (alat units)
         1           Fe1 tau(   1) = (   0.0000000   0.0000000   0.0000000  )
         2           Fe2 tau(   2) = (   0.2500006   0.2503339   0.2496672  )
         3           Fe1 tau(   3) = (   0.0000000   0.0000000   0.4993336  )
         4           Fe2 tau(   4) = (   0.2500006   0.2503339   0.7490000  )
         5           Fe1 tau(   5) = (   0.0000000   0.5006670   0.0000000  )
         6           Fe2 tau(   6) = (   0.2500006   0.7510000   0.2496672  )
         7           Fe1 tau(   7) = (   0.0000000   0.5006670   0.4993336  )
         8           Fe2 tau(   8) = (   0.2500006   0.7510000   0.7490000  )
         9           Fe1 tau(   9) = (   0.5000003   0.0000000   0.0000000  )
        10           Fe2 tau(  10) = (   0.7500000   0.2503339   0.2496672  )
        11           Fe1 tau(  11) = (   0.5000003   0.0000000   0.4993336  )
        12           Fe2 tau(  12) = (   0.7500000   0.2503339   0.7490000  )
        13           Fe1 tau(  13) = (   0.5000003   0.5006670   0.0000000  )
        14           Fe2 tau(  14) = (   0.7500000   0.7510000   0.2496672  )
        15           Fe1 tau(  15) = (   0.5000003   0.5006670   0.4993336  )
        16           Fe2 tau(  16) = (   0.7500000   0.7510000   0.7490000  )

     number of k points=   125  Marzari-Vanderbilt smearing, width (Ry)=  0.0400

     Number of k-points >= 100: set verbosity='high' to print them.

     Dense  grid:   178943 G-vectors     FFT dimensions: (  72,  72,  72)

     Smooth grid:    96121 G-vectors     FFT dimensions: (  60,  60,  60)

     Estimated max dynamical RAM per process >     215.37 MB

     Estimated total dynamical RAM >       8.41 GB
     Generating pointlists ...
     new r_m :   0.1786 (alat units)  1.8922 (a.u.) for type    1
     new r_m :   0.1786 (alat units)  1.8922 (a.u.) for type    2

     Check: negative/imaginary core charge=   -0.000006    0.000000

     Initial potential from superposition of free atoms

     starting charge  255.99300, renormalised to  256.00000
     Starting wfcs are  160 randomized atomic wfcs
     Checking if some PAW data can be deallocated... 

     total cpu time spent up to now is       23.2 secs

     Self-consistent Calculation

     iteration #  1     ecut=    71.00 Ry     beta= 0.10
     Davidson diagonalization with overlap
     ethr =  1.00E-02,  avg # of iterations =  3.4

     Threshold (ethr) on eigenvalues was too large:
     Diagonalizing with lowered threshold

     Davidson diagonalization with overlap
     ethr =  2.83E-04,  avg # of iterations =  3.4

     total cpu time spent up to now is      209.1 secs

     total energy              =   -5268.17614517 Ry
     Harris-Foulkes estimate   =   -5268.32784429 Ry
     estimated scf accuracy    <       0.82040298 Ry

     total magnetization       =    28.04 Bohr mag/cell
     absolute magnetization    =    28.41 Bohr mag/cell

     iteration #  2     ecut=    71.00 Ry     beta= 0.10
     Davidson diagonalization with overlap
     ethr =  3.20E-04,  avg # of iterations =  1.0

     total cpu time spent up to now is      264.1 secs

     total energy              =   -5268.07019771 Ry
     Harris-Foulkes estimate   =   -5268.19495023 Ry
     estimated scf accuracy    <       0.49794694 Ry

     total magnetization       =    28.67 Bohr mag/cell
     absolute magnetization    =    28.95 Bohr mag/cell

     iteration #  3     ecut=    71.00 Ry     beta= 0.10
     Davidson diagonalization with overlap
     ethr =  1.95E-04,  avg # of iterations =  2.5

     total cpu time spent up to now is      339.3 secs

     total energy              =   -5268.03723299 Ry
     Harris-Foulkes estimate   =   -5268.11695580 Ry
     estimated scf accuracy    <       0.57806800 Ry

     total magnetization       =    29.37 Bohr mag/cell
     absolute magnetization    =    29.70 Bohr mag/cell

     iteration #  4     ecut=    71.00 Ry     beta= 0.10
     Davidson diagonalization with overlap
     ethr =  1.95E-04,  avg # of iterations =  2.1

     total cpu time spent up to now is      409.2 secs

     total energy              =   -5268.06926326 Ry
     Harris-Foulkes estimate   =   -5268.07319071 Ry
     estimated scf accuracy    <       0.18073423 Ry

     total magnetization       =    30.20 Bohr mag/cell
     absolute magnetization    =    30.58 Bohr mag/cell

     iteration #  5     ecut=    71.00 Ry     beta= 0.10
     Davidson diagonalization with overlap
     ethr =  7.06E-05,  avg # of iterations =  1.3

     total cpu time spent up to now is      467.5 secs

     total energy              =   -5268.08817364 Ry
     Harris-Foulkes estimate   =   -5268.07353811 Ry
     estimated scf accuracy    <       0.11153303 Ry

     total magnetization       =    30.30 Bohr mag/cell
     absolute magnetization    =    30.69 Bohr mag/cell

     iteration #  6     ecut=    71.00 Ry     beta= 0.10
     Davidson diagonalization with overlap
     ethr =  4.36E-05,  avg # of iterations =  3.3

     total cpu time spent up to now is      571.2 secs

     total energy              =   -5268.14456698 Ry
     Harris-Foulkes estimate   =   -5268.12694374 Ry
     estimated scf accuracy    <       0.13307925 Ry

     total magnetization       =    30.92 Bohr mag/cell
     absolute magnetization    =    31.62 Bohr mag/cell

     iteration #  7     ecut=    71.00 Ry     beta= 0.10
     Davidson diagonalization with overlap
     ethr =  4.36E-05,  avg # of iterations =  2.0

     total cpu time spent up to now is      641.9 secs

     total energy              =   -5268.15351470 Ry
     Harris-Foulkes estimate   =   -5268.15251330 Ry
     estimated scf accuracy    <       0.09905433 Ry

     total magnetization       =    31.45 Bohr mag/cell
     absolute magnetization    =    32.36 Bohr mag/cell

     iteration #  8     ecut=    71.00 Ry     beta= 0.10
     Davidson diagonalization with overlap
     ethr =  3.87E-05,  avg # of iterations =  1.0

     negative rho (up, down):  0.000E+00 1.957E-03

     total cpu time spent up to now is      697.0 secs

     total energy              =   -5268.17002675 Ry
     Harris-Foulkes estimate   =   -5268.15491359 Ry
     estimated scf accuracy    <       0.07652690 Ry

     total magnetization       =    31.60 Bohr mag/cell
     absolute magnetization    =    32.58 Bohr mag/cell

     iteration #  9     ecut=    71.00 Ry     beta= 0.10
     Davidson diagonalization with overlap
     ethr =  2.99E-05,  avg # of iterations =  2.7

     negative rho (up, down):  0.000E+00 2.216E-03

     total cpu time spent up to now is      789.1 secs

     total energy              =   -5268.18960267 Ry
     Harris-Foulkes estimate   =   -5268.18931905 Ry
     estimated scf accuracy    <       0.02536252 Ry

     total magnetization       =    32.40 Bohr mag/cell
     absolute magnetization    =    33.83 Bohr mag/cell

     iteration # 10     ecut=    71.00 Ry     beta= 0.10
     Davidson diagonalization with overlap
     ethr =  9.91E-06,  avg # of iterations =  1.2

     negative rho (up, down):  0.000E+00 2.512E-03

     total cpu time spent up to now is      846.7 secs

     total energy              =   -5268.18832939 Ry
     Harris-Foulkes estimate   =   -5268.19004144 Ry
     estimated scf accuracy    <       0.01276144 Ry

     total magnetization       =    32.51 Bohr mag/cell
     absolute magnetization    =    34.00 Bohr mag/cell

     iteration # 11     ecut=    71.00 Ry     beta= 0.10
     Davidson diagonalization with overlap
     ethr =  4.98E-06,  avg # of iterations =  2.3

     negative rho (up, down):  0.000E+00 2.563E-03

     total cpu time spent up to now is      920.2 secs

     total energy              =   -5268.18876831 Ry
     Harris-Foulkes estimate   =   -5268.18901376 Ry
     estimated scf accuracy    <       0.00180523 Ry

     total magnetization       =    32.65 Bohr mag/cell
     absolute magnetization    =    34.27 Bohr mag/cell

     iteration # 12     ecut=    71.00 Ry     beta= 0.10
     Davidson diagonalization with overlap
     ethr =  7.05E-07,  avg # of iterations =  2.4

     negative rho (up, down):  0.000E+00 2.570E-03

     total cpu time spent up to now is      992.6 secs

     total energy              =   -5268.18897470 Ry
     Harris-Foulkes estimate   =   -5268.18887383 Ry
     estimated scf accuracy    <       0.00077738 Ry

     total magnetization       =    32.70 Bohr mag/cell
     absolute magnetization    =    34.34 Bohr mag/cell

     iteration # 13     ecut=    71.00 Ry     beta= 0.10
     Davidson diagonalization with overlap
     ethr =  3.04E-07,  avg # of iterations =  2.4

     negative rho (up, down):  0.000E+00 2.545E-03

     total cpu time spent up to now is     1070.3 secs

     total energy              =   -5268.18898311 Ry
     Harris-Foulkes estimate   =   -5268.18907277 Ry
     estimated scf accuracy    <       0.00126462 Ry

     total magnetization       =    32.75 Bohr mag/cell
     absolute magnetization    =    34.43 Bohr mag/cell

     iteration # 14     ecut=    71.00 Ry     beta= 0.10
     Davidson diagonalization with overlap
     ethr =  3.04E-07,  avg # of iterations =  2.6

     negative rho (up, down):  0.000E+00 2.489E-03

     total cpu time spent up to now is     1152.1 secs

     total energy              =   -5268.18924333 Ry
     Harris-Foulkes estimate   =   -5268.18911770 Ry
     estimated scf accuracy    <       0.00062677 Ry

     total magnetization       =    32.78 Bohr mag/cell
     absolute magnetization    =    34.51 Bohr mag/cell

     iteration # 15     ecut=    71.00 Ry     beta= 0.10
     Davidson diagonalization with overlap
     ethr =  2.45E-07,  avg # of iterations =  1.6

     negative rho (up, down):  0.000E+00 2.477E-03

     total cpu time spent up to now is     1214.8 secs

     total energy              =   -5268.18933146 Ry
     Harris-Foulkes estimate   =   -5268.18928057 Ry
     estimated scf accuracy    <       0.00015969 Ry

     total magnetization       =    32.80 Bohr mag/cell
     absolute magnetization    =    34.53 Bohr mag/cell

     iteration # 16     ecut=    71.00 Ry     beta= 0.10
     Davidson diagonalization with overlap
     ethr =  6.24E-08,  avg # of iterations =  2.3

     negative rho (up, down):  0.000E+00 2.454E-03

     total cpu time spent up to now is     1287.1 secs

     total energy              =   -5268.18938562 Ry
     Harris-Foulkes estimate   =   -5268.18934278 Ry
     estimated scf accuracy    <       0.00010570 Ry

     total magnetization       =    32.82 Bohr mag/cell
     absolute magnetization    =    34.56 Bohr mag/cell

     iteration # 17     ecut=    71.00 Ry     beta= 0.10
     Davidson diagonalization with overlap
     ethr =  4.13E-08,  avg # of iterations =  2.3

     negative rho (up, down):  0.000E+00 2.390E-03

     total cpu time spent up to now is     1361.4 secs

     total energy              =   -5268.18941409 Ry
     Harris-Foulkes estimate   =   -5268.18939593 Ry
     estimated scf accuracy    <       0.00007100 Ry

     total magnetization       =    32.84 Bohr mag/cell
     absolute magnetization    =    34.58 Bohr mag/cell

     iteration # 18     ecut=    71.00 Ry     beta= 0.10
     Davidson diagonalization with overlap
     ethr =  2.77E-08,  avg # of iterations =  2.4

     negative rho (up, down):  0.000E+00 2.447E-03

     total cpu time spent up to now is     1442.7 secs

     total energy              =   -5268.18943201 Ry
     Harris-Foulkes estimate   =   -5268.18943095 Ry
     estimated scf accuracy    <       0.00004825 Ry

     total magnetization       =    32.85 Bohr mag/cell
     absolute magnetization    =    34.59 Bohr mag/cell

     iteration # 19     ecut=    71.00 Ry     beta= 0.10
     Davidson diagonalization with overlap
     ethr =  1.88E-08,  avg # of iterations =  2.8

     negative rho (up, down):  0.000E+00 2.449E-03

     total cpu time spent up to now is     1527.6 secs

     total energy              =   -5268.18944420 Ry
     Harris-Foulkes estimate   =   -5268.18944224 Ry
     estimated scf accuracy    <       0.00001907 Ry

     total magnetization       =    32.87 Bohr mag/cell
     absolute magnetization    =    34.64 Bohr mag/cell

     iteration # 20     ecut=    71.00 Ry     beta= 0.10
     Davidson diagonalization with overlap
     ethr =  7.45E-09,  avg # of iterations =  1.8

     negative rho (up, down):  0.000E+00 2.468E-03

     total cpu time spent up to now is     1592.2 secs

     total energy              =   -5268.18944540 Ry
     Harris-Foulkes estimate   =   -5268.18944526 Ry
     estimated scf accuracy    <       0.00001212 Ry

     total magnetization       =    32.88 Bohr mag/cell
     absolute magnetization    =    34.64 Bohr mag/cell

     iteration # 21     ecut=    71.00 Ry     beta= 0.10
     Davidson diagonalization with overlap
     ethr =  4.74E-09,  avg # of iterations =  2.3

     negative rho (up, down):  0.000E+00 2.458E-03

     total cpu time spent up to now is     1664.5 secs

     total energy              =   -5268.18944985 Ry
     Harris-Foulkes estimate   =   -5268.18944628 Ry
     estimated scf accuracy    <       0.00000919 Ry

     total magnetization       =    32.89 Bohr mag/cell
     absolute magnetization    =    34.65 Bohr mag/cell

     iteration # 22     ecut=    71.00 Ry     beta= 0.10
     Davidson diagonalization with overlap
     ethr =  3.59E-09,  avg # of iterations =  2.2

     negative rho (up, down):  0.000E+00 2.456E-03

     total cpu time spent up to now is     1740.8 secs

     total energy              =   -5268.18945291 Ry
     Harris-Foulkes estimate   =   -5268.18945170 Ry
     estimated scf accuracy    <       0.00000634 Ry

     total magnetization       =    32.89 Bohr mag/cell
     absolute magnetization    =    34.66 Bohr mag/cell

     iteration # 23     ecut=    71.00 Ry     beta= 0.10
     Davidson diagonalization with overlap
     ethr =  2.47E-09,  avg # of iterations =  1.9

     negative rho (up, down):  0.000E+00 2.455E-03

     total cpu time spent up to now is     1806.7 secs

     total energy              =   -5268.18945437 Ry
     Harris-Foulkes estimate   =   -5268.18945360 Ry
     estimated scf accuracy    <       0.00000182 Ry

     total magnetization       =    32.90 Bohr mag/cell
     absolute magnetization    =    34.67 Bohr mag/cell

     iteration # 24     ecut=    71.00 Ry     beta= 0.10
     Davidson diagonalization with overlap
     ethr =  7.11E-10,  avg # of iterations =  2.2

     negative rho (up, down):  0.000E+00 2.455E-03

     total cpu time spent up to now is     1876.4 secs

     total energy              =   -5268.18945504 Ry
     Harris-Foulkes estimate   =   -5268.18945448 Ry
     estimated scf accuracy    <       0.00000101 Ry

     total magnetization       =    32.90 Bohr mag/cell
     absolute magnetization    =    34.67 Bohr mag/cell

     iteration # 25     ecut=    71.00 Ry     beta= 0.10
     Davidson diagonalization with overlap
     ethr =  3.95E-10,  avg # of iterations =  1.6

     negative rho (up, down):  0.000E+00 2.466E-03
 
     Magnetic moment per site:
     atom:    1    charge:   14.3665    magn:    2.0995    constr:    0.0000
     atom:    2    charge:   14.3664    magn:    2.1018    constr:    0.0000
     atom:    3    charge:   14.3665    magn:    2.1002    constr:    0.0000
     atom:    4    charge:   14.3664    magn:    2.1018    constr:    0.0000
     atom:    5    charge:   14.3664    magn:    2.1002    constr:    0.0000
     atom:    6    charge:   14.3664    magn:    2.1018    constr:    0.0000
     atom:    7    charge:   14.3665    magn:    2.1005    constr:    0.0000
     atom:    8    charge:   14.3664    magn:    2.1018    constr:    0.0000
     atom:    9    charge:   14.3664    magn:    2.0986    constr:    0.0000
     atom:   10    charge:   14.3664    magn:    2.1018    constr:    0.0000
     atom:   11    charge:   14.3665    magn:    2.0989    constr:    0.0000
     atom:   12    charge:   14.3664    magn:    2.1018    constr:    0.0000
     atom:   13    charge:   14.3665    magn:    2.0991    constr:    0.0000
     atom:   14    charge:   14.3664    magn:    2.1018    constr:    0.0000
     atom:   15    charge:   14.3665    magn:    2.0995    constr:    0.0000
     atom:   16    charge:   14.3664    magn:    2.1018    constr:    0.0000

     total cpu time spent up to now is     1941.4 secs

     End of self-consistent calculation

     Number of k-points >= 100: set verbosity='high' to print the bands.

     the Fermi energy is    18.9742 ev

!    total energy              =   -5268.18945652 Ry
     Harris-Foulkes estimate   =   -5268.18945507 Ry
     estimated scf accuracy    <       0.00000074 Ry

     total all-electron energy =    -40728.933985 Ry

     The total energy is the sum of the following terms:

     one-electron contribution =   -1707.43318746 Ry
     hartree contribution      =    1022.28100351 Ry
     xc contribution           =    -444.26065515 Ry
     ewald contribution        =   -2814.22970922 Ry
     one-center paw contrib.   =   -1324.67107018 Ry
     smearing contrib. (-TS)   =       0.12416198 Ry

     total magnetization       =    32.90 Bohr mag/cell
     absolute magnetization    =    34.67 Bohr mag/cell

     convergence has been achieved in  25 iterations

     negative rho (up, down):  0.000E+00 2.466E-03

     Forces acting on atoms (cartesian axes, Ry/au):

     atom    1 type  1   force =     0.00000000    0.00000000    0.00000000
     atom    2 type  2   force =     0.00002729    0.00020778    0.00001122
     atom    3 type  1   force =     0.00000000    0.00000000    0.00000000
     atom    4 type  2   force =     0.00002729    0.00020778   -0.00001122
     atom    5 type  1   force =     0.00000000    0.00000000    0.00000000
     atom    6 type  2   force =     0.00002729   -0.00020778    0.00001122
     atom    7 type  1   force =     0.00000000    0.00000000    0.00000000
     atom    8 type  2   force =     0.00002729   -0.00020778   -0.00001122
     atom    9 type  1   force =     0.00000000    0.00000000    0.00000000
     atom   10 type  2   force =    -0.00002729    0.00020778    0.00001122
     atom   11 type  1   force =     0.00000000    0.00000000    0.00000000
     atom   12 type  2   force =    -0.00002729    0.00020778   -0.00001122
     atom   13 type  1   force =     0.00000000    0.00000000    0.00000000
     atom   14 type  2   force =    -0.00002729   -0.00020778    0.00001122
     atom   15 type  1   force =     0.00000000    0.00000000    0.00000000
     atom   16 type  2   force =    -0.00002729   -0.00020778   -0.00001122

     Total force =     0.000594     Total SCF correction =     0.005684
     SCF correction compared to forces is large: reduce conv_thr to get better values


     Computing stress (Cartesian axis) and pressure


     negative rho (up, down):  0.000E+00 2.466E-03
          total   stress  (Ry/bohr**3)                   (kbar)     P=   -2.19
  -0.00001500   0.00000000   0.00000000         -2.21      0.00      0.00
   0.00000000  -0.00002680   0.00000000          0.00     -3.94      0.00
   0.00000000   0.00000000  -0.00000290          0.00      0.00     -0.43


     Writing output data file iaXmrAMiQIYhnKNt.save/
 
     init_run     :     20.95s CPU     21.92s WALL (       1 calls)
     electrons    :   1859.89s CPU   1918.23s WALL (       1 calls)
     forces       :      7.55s CPU      8.21s WALL (       1 calls)
     stress       :     20.71s CPU     20.91s WALL (       1 calls)

     Called by init_run:
     wfcinit      :     20.51s CPU     21.39s WALL (       1 calls)
     potinit      :      0.20s CPU      0.22s WALL (       1 calls)
     hinit0       :      0.14s CPU      0.17s WALL (       1 calls)

     Called by electrons:
     c_bands      :   1676.17s CPU   1724.67s WALL (      26 calls)
     sum_band     :    178.61s CPU    187.74s WALL (      26 calls)
     v_of_rho     :      0.41s CPU      0.41s WALL (      26 calls)
     newd         :      0.78s CPU      1.04s WALL (      26 calls)
     PAW_pot      :      3.84s CPU      4.18s WALL (      26 calls)
     mix_rho      :      0.16s CPU      0.17s WALL (      26 calls)

     Called by c_bands:
     init_us_2    :      9.17s CPU      9.31s WALL (   13750 calls)
     cegterg      :   1629.64s CPU   1677.59s WALL (    6500 calls)

     Called by sum_band:
     sum_band:bec :      2.48s CPU      2.52s WALL (    6500 calls)
     addusdens    :      1.26s CPU      1.47s WALL (      26 calls)

     Called by *egterg:
     h_psi        :    700.75s CPU    730.19s WALL (   20953 calls)
     s_psi        :     36.99s CPU     37.24s WALL (   20953 calls)
     g_psi        :      1.49s CPU      1.52s WALL (   14203 calls)
     cdiaghg      :    724.47s CPU    727.32s WALL (   20453 calls)

     Called by h_psi:
     h_psi:pot    :    697.03s CPU    726.42s WALL (   20953 calls)
     h_psi:calbec :     57.86s CPU     66.84s WALL (   20953 calls)
     vloc_psi     :    601.75s CPU    621.92s WALL (   20953 calls)
     add_vuspsi   :     37.24s CPU     37.53s WALL (   20953 calls)

     General routines
     calbec       :     87.65s CPU    101.63s WALL (   28703 calls)
     fft          :      0.44s CPU      0.46s WALL (     692 calls)
     ffts         :      0.08s CPU      0.28s WALL (     104 calls)
     fftw         :    702.30s CPU    725.60s WALL ( 5366802 calls)
     interpolate  :      0.08s CPU      0.16s WALL (      52 calls)
 
     Parallel routines
     fft_scatt_xy :     45.79s CPU     47.34s WALL ( 5367598 calls)
     fft_scatt_yz :    470.94s CPU    487.02s WALL ( 5367598 calls)
 
     PWSCF        : 32m 4.08s CPU    33m51.54s WALL

 
   This run was terminated on:  23: 4:35   2Nov2020            

=------------------------------------------------------------------------------=
   JOB DONE.
=------------------------------------------------------------------------------=
