--------------------------------------------------------------------------
WARNING: No preset parameters were found for the device that Open MPI
detected:

  Local host:            bear-pg0206u26a
  Device name:           mlx5_0
  Device vendor ID:      0x02c9
  Device vendor part ID: 4123

Default device parameters will be used, which may result in lower
performance.  You can edit any of the files specified by the
btl_openib_device_param_files MCA parameter to set values for your
device.

NOTE: You can turn off this warning by setting the MCA parameter
      btl_openib_warn_no_device_params_found to 0.
--------------------------------------------------------------------------
--------------------------------------------------------------------------
WARNING: There was an error initializing an OpenFabrics device.

  Local host:   bear-pg0206u26a
  Local device: mlx5_0
--------------------------------------------------------------------------

     Program PWSCF v.6.3 starts on  2Nov2020 at  7:36:39 

     This program is part of the open-source Quantum ESPRESSO suite
     for quantum simulation of materials; please cite
         "P. Giannozzi et al., J. Phys.:Condens. Matter 21 395502 (2009);
         "P. Giannozzi et al., J. Phys.:Condens. Matter 29 465901 (2017);
          URL http://www.quantum-espresso.org", 
     in publications or presentations arising from this work. More details at
     http://www.quantum-espresso.org/quote

     Parallel version (MPI & OpenMP), running on      40 processor cores
     Number of MPI processes:                40
     Threads/MPI process:                     1

     MPI processes distributed on     1 nodes
     R & G space division:  proc/nbgrp/npool/nimage =      40
     Reading input from wd/ec/ec_3_004.in
Warning: card &IONS ignored
Warning: card ION_DYNAMICS = 'BFGS', ignored
Warning: card / ignored
Warning: card &CELL ignored
Warning: card CELL_DYNAMICS = 'BFGS', ignored
Warning: card CELL_FACTOR = 2.0, ignored
Warning: card PRESS = 0.0, ignored
Warning: card / ignored

     Current dimensions of program PWSCF are:
     Max number of different atomic species (ntypx) = 10
     Max number of k-points (npk) =  40000
     Max angular momentum in pseudopotentials (lmaxx) =  3
               file Fe.pbe-spn-kjpaw_psl.1.0.0.UPF: wavefunction(s)  3P 3D renormalized
               file Fe.pbe-spn-kjpaw_psl.1.0.0.UPF: wavefunction(s)  3P 3D renormalized

     Subspace diagonalization in iterative solution of the eigenvalue problem:
     a serial algorithm will be used

     Found symmetry operation: I + (  0.0000  0.0000 -0.5000)
     This is a supercell, fractional translations are disabled
 
     Parallelization info
     --------------------
     sticks:   dense  smooth     PW     G-vecs:    dense   smooth      PW
     Min          95      63     17                 4481     2405     357
     Max          96      64     18                 4486     2410     362
     Sum        3833    2537    717               179343    96281   14363
 


     bravais-lattice index     =            0
     lattice parameter (alat)  =      10.5935  a.u.
     unit-cell volume          =    1191.2106 (a.u.)^3
     number of atoms/cell      =           16
     number of atomic types    =            2
     number of electrons       =       256.00
     number of Kohn-Sham states=          154
     kinetic-energy cutoff     =      71.0000  Ry
     charge density cutoff     =     430.0000  Ry
     convergence threshold     =      1.0E-06
     mixing beta               =       0.1000
     number of iterations used =           10  plain     mixing
     Exchange-correlation      = SLA PW PBX PBC ( 1  4  3  4 0 0)

     celldm(1)=  10.593520  celldm(2)=   0.000000  celldm(3)=   0.000000
     celldm(4)=   0.000000  celldm(5)=   0.000000  celldm(6)=   0.000000

     crystal axes: (cart. coord. in units of alat)
               a(1) = (   1.000000   0.000000   0.000000 )  
               a(2) = (   0.000000   1.000000   0.000000 )  
               a(3) = (   0.000000   0.000000   1.002000 )  

     reciprocal axes: (cart. coord. in units 2 pi/alat)
               b(1) = (  1.000000  0.000000  0.000000 )  
               b(2) = (  0.000000  1.000000  0.000000 )  
               b(3) = (  0.000000  0.000000  0.998004 )  


     PseudoPot. # 1 for Fe read from file:
     /rds/homes/b/bxp912/pp/Fe.pbe-spn-kjpaw_psl.1.0.0.UPF
     MD5 check sum: 42f43b795421b414b0dc916aa790dbcb
     Pseudo is Projector augmented-wave + core cor, Zval = 16.0
     Generated using "atomic" code by A. Dal Corso v.6.3
     Shape of augmentation charge: PSQ
     Using radial grid of 1191 points,  6 beta functions with: 
                l(1) =   0
                l(2) =   0
                l(3) =   1
                l(4) =   1
                l(5) =   2
                l(6) =   2
     Q(r) pseudized with 0 coefficients 


     PseudoPot. # 2 for Fe read from file:
     /rds/homes/b/bxp912/pp/Fe.pbe-spn-kjpaw_psl.1.0.0.UPF
     MD5 check sum: 42f43b795421b414b0dc916aa790dbcb
     Pseudo is Projector augmented-wave + core cor, Zval = 16.0
     Generated using "atomic" code by A. Dal Corso v.6.3
     Shape of augmentation charge: PSQ
     Using radial grid of 1191 points,  6 beta functions with: 
                l(1) =   0
                l(2) =   0
                l(3) =   1
                l(4) =   1
                l(5) =   2
                l(6) =   2
     Q(r) pseudized with 0 coefficients 


     atomic species   valence    mass     pseudopotential
        Fe1           16.00    55.84500     Fe( 1.00)
        Fe2           16.00    55.84500     Fe( 1.00)

     Starting magnetic structure 
     atomic species   magnetization
        Fe1          0.100
        Fe2          0.100

     16 Sym. Ops., with inversion, found



   Cartesian axes

     site n.     atom                  positions (alat units)
         1           Fe1 tau(   1) = (   0.0000000   0.0000000   0.0000000  )
         2           Fe2 tau(   2) = (   0.2500004   0.2500004   0.2505004  )
         3           Fe1 tau(   3) = (   0.0000000   0.0000000   0.5010000  )
         4           Fe2 tau(   4) = (   0.2500004   0.2500004   0.7514996  )
         5           Fe1 tau(   5) = (   0.0000000   0.5000000   0.0000000  )
         6           Fe2 tau(   6) = (   0.2500004   0.7499996   0.2505004  )
         7           Fe1 tau(   7) = (   0.0000000   0.5000000   0.5010000  )
         8           Fe2 tau(   8) = (   0.2500004   0.7499996   0.7514996  )
         9           Fe1 tau(   9) = (   0.5000000   0.0000000   0.0000000  )
        10           Fe2 tau(  10) = (   0.7499996   0.2500004   0.2505004  )
        11           Fe1 tau(  11) = (   0.5000000   0.0000000   0.5010000  )
        12           Fe2 tau(  12) = (   0.7499996   0.2500004   0.7514996  )
        13           Fe1 tau(  13) = (   0.5000000   0.5000000   0.0000000  )
        14           Fe2 tau(  14) = (   0.7499996   0.7499996   0.2505004  )
        15           Fe1 tau(  15) = (   0.5000000   0.5000000   0.5010000  )
        16           Fe2 tau(  16) = (   0.7499996   0.7499996   0.7514996  )

     number of k points=    75  Marzari-Vanderbilt smearing, width (Ry)=  0.0400
                       cart. coord. in units 2pi/alat
        k(    1) = (   0.0555556   0.0555556   0.0554447), wk =   0.0109739
        k(    2) = (   0.0555556   0.0555556   0.1663340), wk =   0.0109739
        k(    3) = (   0.0555556   0.0555556   0.2772233), wk =   0.0109739
        k(    4) = (   0.0555556   0.0555556   0.3881127), wk =   0.0109739
        k(    5) = (   0.0555556   0.0555556  -0.4990020), wk =   0.0054870
        k(    6) = (   0.0555556   0.1666667   0.0554447), wk =   0.0219479
        k(    7) = (   0.0555556   0.1666667   0.1663340), wk =   0.0219479
        k(    8) = (   0.0555556   0.1666667   0.2772233), wk =   0.0219479
        k(    9) = (   0.0555556   0.1666667   0.3881127), wk =   0.0219479
        k(   10) = (   0.0555556   0.1666667  -0.4990020), wk =   0.0109739
        k(   11) = (   0.0555556   0.2777778   0.0554447), wk =   0.0219479
        k(   12) = (   0.0555556   0.2777778   0.1663340), wk =   0.0219479
        k(   13) = (   0.0555556   0.2777778   0.2772233), wk =   0.0219479
        k(   14) = (   0.0555556   0.2777778   0.3881127), wk =   0.0219479
        k(   15) = (   0.0555556   0.2777778  -0.4990020), wk =   0.0109739
        k(   16) = (   0.0555556   0.3888889   0.0554447), wk =   0.0219479
        k(   17) = (   0.0555556   0.3888889   0.1663340), wk =   0.0219479
        k(   18) = (   0.0555556   0.3888889   0.2772233), wk =   0.0219479
        k(   19) = (   0.0555556   0.3888889   0.3881127), wk =   0.0219479
        k(   20) = (   0.0555556   0.3888889  -0.4990020), wk =   0.0109739
        k(   21) = (   0.0555556  -0.5000000   0.0554447), wk =   0.0109739
        k(   22) = (   0.0555556  -0.5000000   0.1663340), wk =   0.0109739
        k(   23) = (   0.0555556  -0.5000000   0.2772233), wk =   0.0109739
        k(   24) = (   0.0555556  -0.5000000   0.3881127), wk =   0.0109739
        k(   25) = (   0.0555556  -0.5000000  -0.4990020), wk =   0.0054870
        k(   26) = (   0.1666667   0.1666667   0.0554447), wk =   0.0109739
        k(   27) = (   0.1666667   0.1666667   0.1663340), wk =   0.0109739
        k(   28) = (   0.1666667   0.1666667   0.2772233), wk =   0.0109739
        k(   29) = (   0.1666667   0.1666667   0.3881127), wk =   0.0109739
        k(   30) = (   0.1666667   0.1666667  -0.4990020), wk =   0.0054870
        k(   31) = (   0.1666667   0.2777778   0.0554447), wk =   0.0219479
        k(   32) = (   0.1666667   0.2777778   0.1663340), wk =   0.0219479
        k(   33) = (   0.1666667   0.2777778   0.2772233), wk =   0.0219479
        k(   34) = (   0.1666667   0.2777778   0.3881127), wk =   0.0219479
        k(   35) = (   0.1666667   0.2777778  -0.4990020), wk =   0.0109739
        k(   36) = (   0.1666667   0.3888889   0.0554447), wk =   0.0219479
        k(   37) = (   0.1666667   0.3888889   0.1663340), wk =   0.0219479
        k(   38) = (   0.1666667   0.3888889   0.2772233), wk =   0.0219479
        k(   39) = (   0.1666667   0.3888889   0.3881127), wk =   0.0219479
        k(   40) = (   0.1666667   0.3888889  -0.4990020), wk =   0.0109739
        k(   41) = (   0.1666667  -0.5000000   0.0554447), wk =   0.0109739
        k(   42) = (   0.1666667  -0.5000000   0.1663340), wk =   0.0109739
        k(   43) = (   0.1666667  -0.5000000   0.2772233), wk =   0.0109739
        k(   44) = (   0.1666667  -0.5000000   0.3881127), wk =   0.0109739
        k(   45) = (   0.1666667  -0.5000000  -0.4990020), wk =   0.0054870
        k(   46) = (   0.2777778   0.2777778   0.0554447), wk =   0.0109739
        k(   47) = (   0.2777778   0.2777778   0.1663340), wk =   0.0109739
        k(   48) = (   0.2777778   0.2777778   0.2772233), wk =   0.0109739
        k(   49) = (   0.2777778   0.2777778   0.3881127), wk =   0.0109739
        k(   50) = (   0.2777778   0.2777778  -0.4990020), wk =   0.0054870
        k(   51) = (   0.2777778   0.3888889   0.0554447), wk =   0.0219479
        k(   52) = (   0.2777778   0.3888889   0.1663340), wk =   0.0219479
        k(   53) = (   0.2777778   0.3888889   0.2772233), wk =   0.0219479
        k(   54) = (   0.2777778   0.3888889   0.3881127), wk =   0.0219479
        k(   55) = (   0.2777778   0.3888889  -0.4990020), wk =   0.0109739
        k(   56) = (   0.2777778  -0.5000000   0.0554447), wk =   0.0109739
        k(   57) = (   0.2777778  -0.5000000   0.1663340), wk =   0.0109739
        k(   58) = (   0.2777778  -0.5000000   0.2772233), wk =   0.0109739
        k(   59) = (   0.2777778  -0.5000000   0.3881127), wk =   0.0109739
        k(   60) = (   0.2777778  -0.5000000  -0.4990020), wk =   0.0054870
        k(   61) = (   0.3888889   0.3888889   0.0554447), wk =   0.0109739
        k(   62) = (   0.3888889   0.3888889   0.1663340), wk =   0.0109739
        k(   63) = (   0.3888889   0.3888889   0.2772233), wk =   0.0109739
        k(   64) = (   0.3888889   0.3888889   0.3881127), wk =   0.0109739
        k(   65) = (   0.3888889   0.3888889  -0.4990020), wk =   0.0054870
        k(   66) = (   0.3888889  -0.5000000   0.0554447), wk =   0.0109739
        k(   67) = (   0.3888889  -0.5000000   0.1663340), wk =   0.0109739
        k(   68) = (   0.3888889  -0.5000000   0.2772233), wk =   0.0109739
        k(   69) = (   0.3888889  -0.5000000   0.3881127), wk =   0.0109739
        k(   70) = (   0.3888889  -0.5000000  -0.4990020), wk =   0.0054870
        k(   71) = (  -0.5000000  -0.5000000   0.0554447), wk =   0.0027435
        k(   72) = (  -0.5000000  -0.5000000   0.1663340), wk =   0.0027435
        k(   73) = (  -0.5000000  -0.5000000   0.2772233), wk =   0.0027435
        k(   74) = (  -0.5000000  -0.5000000   0.3881127), wk =   0.0027435
        k(   75) = (  -0.5000000  -0.5000000  -0.4990020), wk =   0.0013717

     Dense  grid:   179343 G-vectors     FFT dimensions: (  72,  72,  72)

     Smooth grid:    96281 G-vectors     FFT dimensions: (  60,  60,  60)

     Estimated max dynamical RAM per process >     144.89 MB

     Estimated total dynamical RAM >       5.66 GB
     Generating pointlists ...
     new r_m :   0.1787 (alat units)  1.8934 (a.u.) for type    1
     new r_m :   0.1787 (alat units)  1.8934 (a.u.) for type    2

     Check: negative/imaginary core charge=   -0.000006    0.000000

     Initial potential from superposition of free atoms

     starting charge  255.99300, renormalised to  256.00000
     Starting wfcs are  160 randomized atomic wfcs
     Checking if some PAW data can be deallocated... 

     total cpu time spent up to now is       15.1 secs

     Self-consistent Calculation

     iteration #  1     ecut=    71.00 Ry     beta= 0.10
     Davidson diagonalization with overlap
     ethr =  1.00E-02,  avg # of iterations =  3.3

     Threshold (ethr) on eigenvalues was too large:
     Diagonalizing with lowered threshold

     Davidson diagonalization with overlap
     ethr =  2.09E-04,  avg # of iterations =  3.6

     total cpu time spent up to now is      129.1 secs

     total energy              =   -5268.00832886 Ry
     Harris-Foulkes estimate   =   -5268.06975077 Ry
     estimated scf accuracy    <       0.61748723 Ry

     total magnetization       =    27.97 Bohr mag/cell
     absolute magnetization    =    28.08 Bohr mag/cell

     iteration #  2     ecut=    71.00 Ry     beta= 0.10
     Davidson diagonalization with overlap
     ethr =  2.41E-04,  avg # of iterations =  1.0

     total cpu time spent up to now is      162.0 secs

     total energy              =   -5267.97698395 Ry
     Harris-Foulkes estimate   =   -5268.02064852 Ry
     estimated scf accuracy    <       0.36122687 Ry

     total magnetization       =    28.63 Bohr mag/cell
     absolute magnetization    =    28.77 Bohr mag/cell

     iteration #  3     ecut=    71.00 Ry     beta= 0.10
     Davidson diagonalization with overlap
     ethr =  1.41E-04,  avg # of iterations =  3.0

     total cpu time spent up to now is      215.6 secs

     total energy              =   -5268.02733018 Ry
     Harris-Foulkes estimate   =   -5268.03184743 Ry
     estimated scf accuracy    <       0.40961203 Ry

     total magnetization       =    29.76 Bohr mag/cell
     absolute magnetization    =    30.06 Bohr mag/cell

     iteration #  4     ecut=    71.00 Ry     beta= 0.10
     Davidson diagonalization with overlap
     ethr =  1.41E-04,  avg # of iterations =  1.0

     total cpu time spent up to now is      249.1 secs

     total energy              =   -5268.04490290 Ry
     Harris-Foulkes estimate   =   -5268.04054384 Ry
     estimated scf accuracy    <       0.12197967 Ry

     total magnetization       =    30.17 Bohr mag/cell
     absolute magnetization    =    30.51 Bohr mag/cell

     iteration #  5     ecut=    71.00 Ry     beta= 0.10
     Davidson diagonalization with overlap
     ethr =  4.76E-05,  avg # of iterations =  1.0

     total cpu time spent up to now is      282.7 secs

     total energy              =   -5268.11397833 Ry
     Harris-Foulkes estimate   =   -5268.04661904 Ry
     estimated scf accuracy    <       0.10617468 Ry

     total magnetization       =    30.23 Bohr mag/cell
     absolute magnetization    =    30.60 Bohr mag/cell

     iteration #  6     ecut=    71.00 Ry     beta= 0.10
     Davidson diagonalization with overlap
     ethr =  4.15E-05,  avg # of iterations =  3.5

     negative rho (up, down):  0.000E+00 1.100E-03

     total cpu time spent up to now is      348.4 secs

     total energy              =   -5268.16173482 Ry
     Harris-Foulkes estimate   =   -5268.16194755 Ry
     estimated scf accuracy    <       0.20122520 Ry

     total magnetization       =    31.01 Bohr mag/cell
     absolute magnetization    =    31.77 Bohr mag/cell

     iteration #  7     ecut=    71.00 Ry     beta= 0.10
     Davidson diagonalization with overlap
     ethr =  4.15E-05,  avg # of iterations =  2.6

     negative rho (up, down):  0.000E+00 1.552E-03

     total cpu time spent up to now is      401.3 secs

     total energy              =   -5268.18168928 Ry
     Harris-Foulkes estimate   =   -5268.18363304 Ry
     estimated scf accuracy    <       0.04790084 Ry

     total magnetization       =    31.93 Bohr mag/cell
     absolute magnetization    =    33.16 Bohr mag/cell

     iteration #  8     ecut=    71.00 Ry     beta= 0.10
     Davidson diagonalization with overlap
     ethr =  1.87E-05,  avg # of iterations =  1.2

     negative rho (up, down):  0.000E+00 1.224E-03

     total cpu time spent up to now is      436.2 secs

     total energy              =   -5268.17989961 Ry
     Harris-Foulkes estimate   =   -5268.18372553 Ry
     estimated scf accuracy    <       0.02881477 Ry

     total magnetization       =    32.09 Bohr mag/cell
     absolute magnetization    =    33.36 Bohr mag/cell

     iteration #  9     ecut=    71.00 Ry     beta= 0.10
     Davidson diagonalization with overlap
     ethr =  1.13E-05,  avg # of iterations =  2.3

     negative rho (up, down):  0.000E+00 1.536E-03

     total cpu time spent up to now is      479.6 secs

     total energy              =   -5268.18396986 Ry
     Harris-Foulkes estimate   =   -5268.18121166 Ry
     estimated scf accuracy    <       0.01803463 Ry

     total magnetization       =    32.18 Bohr mag/cell
     absolute magnetization    =    33.49 Bohr mag/cell

     iteration # 10     ecut=    71.00 Ry     beta= 0.10
     Davidson diagonalization with overlap
     ethr =  7.04E-06,  avg # of iterations =  1.9

     negative rho (up, down):  0.000E+00 2.360E-03

     total cpu time spent up to now is      520.5 secs

     total energy              =   -5268.18796250 Ry
     Harris-Foulkes estimate   =   -5268.18501089 Ry
     estimated scf accuracy    <       0.00588612 Ry

     total magnetization       =    32.39 Bohr mag/cell
     absolute magnetization    =    33.80 Bohr mag/cell

     iteration # 11     ecut=    71.00 Ry     beta= 0.10
     Davidson diagonalization with overlap
     ethr =  2.30E-06,  avg # of iterations =  3.6

     negative rho (up, down):  0.000E+00 2.321E-03

     total cpu time spent up to now is      580.9 secs

     total energy              =   -5268.18933792 Ry
     Harris-Foulkes estimate   =   -5268.18928659 Ry
     estimated scf accuracy    <       0.00103733 Ry

     total magnetization       =    32.65 Bohr mag/cell
     absolute magnetization    =    34.28 Bohr mag/cell

     iteration # 12     ecut=    71.00 Ry     beta= 0.10
     Davidson diagonalization with overlap
     ethr =  4.05E-07,  avg # of iterations =  1.2

     negative rho (up, down):  0.000E+00 2.213E-03

     total cpu time spent up to now is      616.5 secs

     total energy              =   -5268.18963496 Ry
     Harris-Foulkes estimate   =   -5268.18935582 Ry
     estimated scf accuracy    <       0.00086844 Ry

     total magnetization       =    32.67 Bohr mag/cell
     absolute magnetization    =    34.29 Bohr mag/cell

     iteration # 13     ecut=    71.00 Ry     beta= 0.10
     Davidson diagonalization with overlap
     ethr =  3.39E-07,  avg # of iterations =  2.3

     negative rho (up, down):  0.000E+00 2.328E-03

     total cpu time spent up to now is      663.0 secs

     total energy              =   -5268.18995550 Ry
     Harris-Foulkes estimate   =   -5268.18975600 Ry
     estimated scf accuracy    <       0.00058906 Ry

     total magnetization       =    32.73 Bohr mag/cell
     absolute magnetization    =    34.40 Bohr mag/cell

     iteration # 14     ecut=    71.00 Ry     beta= 0.10
     Davidson diagonalization with overlap
     ethr =  2.30E-07,  avg # of iterations =  2.4

     negative rho (up, down):  0.000E+00 2.460E-03

     total cpu time spent up to now is      708.3 secs

     total energy              =   -5268.19003411 Ry
     Harris-Foulkes estimate   =   -5268.19002047 Ry
     estimated scf accuracy    <       0.00024558 Ry

     total magnetization       =    32.80 Bohr mag/cell
     absolute magnetization    =    34.52 Bohr mag/cell

     iteration # 15     ecut=    71.00 Ry     beta= 0.10
     Davidson diagonalization with overlap
     ethr =  9.59E-08,  avg # of iterations =  3.1

     negative rho (up, down):  0.000E+00 2.391E-03

     total cpu time spent up to now is      760.9 secs

     total energy              =   -5268.19011089 Ry
     Harris-Foulkes estimate   =   -5268.19006964 Ry
     estimated scf accuracy    <       0.00010044 Ry

     total magnetization       =    32.85 Bohr mag/cell
     absolute magnetization    =    34.59 Bohr mag/cell

     iteration # 16     ecut=    71.00 Ry     beta= 0.10
     Davidson diagonalization with overlap
     ethr =  3.92E-08,  avg # of iterations =  2.1

     negative rho (up, down):  0.000E+00 2.480E-03

     total cpu time spent up to now is      803.6 secs

     total energy              =   -5268.19010767 Ry
     Harris-Foulkes estimate   =   -5268.19012206 Ry
     estimated scf accuracy    <       0.00009664 Ry

     total magnetization       =    32.86 Bohr mag/cell
     absolute magnetization    =    34.61 Bohr mag/cell

     iteration # 17     ecut=    71.00 Ry     beta= 0.10
     Davidson diagonalization with overlap
     ethr =  3.77E-08,  avg # of iterations =  2.9

     negative rho (up, down):  0.000E+00 2.441E-03

     total cpu time spent up to now is      854.6 secs

     total energy              =   -5268.19014806 Ry
     Harris-Foulkes estimate   =   -5268.19012373 Ry
     estimated scf accuracy    <       0.00007397 Ry

     total magnetization       =    32.88 Bohr mag/cell
     absolute magnetization    =    34.65 Bohr mag/cell

     iteration # 18     ecut=    71.00 Ry     beta= 0.10
     Davidson diagonalization with overlap
     ethr =  2.89E-08,  avg # of iterations =  2.4

     negative rho (up, down):  0.000E+00 2.442E-03

     total cpu time spent up to now is      900.9 secs

     total energy              =   -5268.19016332 Ry
     Harris-Foulkes estimate   =   -5268.19015983 Ry
     estimated scf accuracy    <       0.00001698 Ry

     total magnetization       =    32.91 Bohr mag/cell
     absolute magnetization    =    34.68 Bohr mag/cell

     iteration # 19     ecut=    71.00 Ry     beta= 0.10
     Davidson diagonalization with overlap
     ethr =  6.63E-09,  avg # of iterations =  2.0

     negative rho (up, down):  0.000E+00 2.459E-03

     total cpu time spent up to now is      941.1 secs

     total energy              =   -5268.19016520 Ry
     Harris-Foulkes estimate   =   -5268.19016430 Ry
     estimated scf accuracy    <       0.00001116 Ry

     total magnetization       =    32.91 Bohr mag/cell
     absolute magnetization    =    34.69 Bohr mag/cell

     iteration # 20     ecut=    71.00 Ry     beta= 0.10
     Davidson diagonalization with overlap
     ethr =  4.36E-09,  avg # of iterations =  2.8

     negative rho (up, down):  0.000E+00 2.456E-03

     total cpu time spent up to now is      990.4 secs

     total energy              =   -5268.19016811 Ry
     Harris-Foulkes estimate   =   -5268.19016750 Ry
     estimated scf accuracy    <       0.00000294 Ry

     total magnetization       =    32.93 Bohr mag/cell
     absolute magnetization    =    34.70 Bohr mag/cell

     iteration # 21     ecut=    71.00 Ry     beta= 0.10
     Davidson diagonalization with overlap
     ethr =  1.15E-09,  avg # of iterations =  2.8

     negative rho (up, down):  0.000E+00 2.460E-03

     total cpu time spent up to now is     1040.4 secs

     total energy              =   -5268.19016890 Ry
     Harris-Foulkes estimate   =   -5268.19016868 Ry
     estimated scf accuracy    <       0.00000133 Ry

     total magnetization       =    32.93 Bohr mag/cell
     absolute magnetization    =    34.71 Bohr mag/cell

     iteration # 22     ecut=    71.00 Ry     beta= 0.10
     Davidson diagonalization with overlap
     ethr =  5.21E-10,  avg # of iterations =  1.0

     negative rho (up, down):  0.000E+00 2.474E-03
 
     Magnetic moment per site:
     atom:    1    charge:   14.3680    magn:    2.1018    constr:    0.0000
     atom:    2    charge:   14.3680    magn:    2.1036    constr:    0.0000
     atom:    3    charge:   14.3680    magn:    2.1029    constr:    0.0000
     atom:    4    charge:   14.3680    magn:    2.1036    constr:    0.0000
     atom:    5    charge:   14.3680    magn:    2.1020    constr:    0.0000
     atom:    6    charge:   14.3680    magn:    2.1036    constr:    0.0000
     atom:    7    charge:   14.3681    magn:    2.1028    constr:    0.0000
     atom:    8    charge:   14.3680    magn:    2.1036    constr:    0.0000
     atom:    9    charge:   14.3680    magn:    2.1020    constr:    0.0000
     atom:   10    charge:   14.3680    magn:    2.1036    constr:    0.0000
     atom:   11    charge:   14.3681    magn:    2.1028    constr:    0.0000
     atom:   12    charge:   14.3680    magn:    2.1036    constr:    0.0000
     atom:   13    charge:   14.3680    magn:    2.1023    constr:    0.0000
     atom:   14    charge:   14.3680    magn:    2.1036    constr:    0.0000
     atom:   15    charge:   14.3681    magn:    2.1031    constr:    0.0000
     atom:   16    charge:   14.3680    magn:    2.1036    constr:    0.0000

     total cpu time spent up to now is     1073.7 secs

     End of self-consistent calculation

     Number of k-points >= 100: set verbosity='high' to print the bands.

     the Fermi energy is    18.9264 ev

!    total energy              =   -5268.19017022 Ry
     Harris-Foulkes estimate   =   -5268.19016895 Ry
     estimated scf accuracy    <       0.00000071 Ry

     total all-electron energy =    -40728.934699 Ry

     The total energy is the sum of the following terms:

     one-electron contribution =   -1710.39514018 Ry
     hartree contribution      =    1023.34506141 Ry
     xc contribution           =    -444.23831880 Ry
     ewald contribution        =   -2812.35612464 Ry
     one-center paw contrib.   =   -1324.67070678 Ry
     smearing contrib. (-TS)   =       0.12505877 Ry

     total magnetization       =    32.93 Bohr mag/cell
     absolute magnetization    =    34.71 Bohr mag/cell

     convergence has been achieved in  22 iterations

     negative rho (up, down):  0.000E+00 2.474E-03

     Forces acting on atoms (cartesian axes, Ry/au):

     atom    1 type  1   force =     0.00000000    0.00000000    0.00000000
     atom    2 type  2   force =     0.00003532    0.00003532    0.00008365
     atom    3 type  1   force =     0.00000000    0.00000000    0.00000000
     atom    4 type  2   force =     0.00003532    0.00003532   -0.00008365
     atom    5 type  1   force =     0.00000000    0.00000000    0.00000000
     atom    6 type  2   force =     0.00003532   -0.00003532    0.00008365
     atom    7 type  1   force =     0.00000000    0.00000000    0.00000000
     atom    8 type  2   force =     0.00003532   -0.00003532   -0.00008365
     atom    9 type  1   force =     0.00000000    0.00000000    0.00000000
     atom   10 type  2   force =    -0.00003532    0.00003532    0.00008365
     atom   11 type  1   force =     0.00000000    0.00000000    0.00000000
     atom   12 type  2   force =    -0.00003532    0.00003532   -0.00008365
     atom   13 type  1   force =     0.00000000    0.00000000    0.00000000
     atom   14 type  2   force =    -0.00003532   -0.00003532    0.00008365
     atom   15 type  1   force =     0.00000000    0.00000000    0.00000000
     atom   16 type  2   force =    -0.00003532   -0.00003532   -0.00008365

     Total force =     0.000276     Total SCF correction =     0.004547
     SCF correction compared to forces is large: reduce conv_thr to get better values


     Computing stress (Cartesian axis) and pressure


     negative rho (up, down):  0.000E+00 2.474E-03
          total   stress  (Ry/bohr**3)                   (kbar)     P=   -7.09
  -0.00004247   0.00000000   0.00000000         -6.25      0.00      0.00
   0.00000000  -0.00004247   0.00000000          0.00     -6.25      0.00
   0.00000000   0.00000000  -0.00005971          0.00      0.00     -8.78


     Writing output data file xBrgQQBzeNorWujo.save/
 
     init_run     :     13.17s CPU     13.79s WALL (       1 calls)
     electrons    :   1026.52s CPU   1058.60s WALL (       1 calls)
     forces       :      4.62s CPU      5.05s WALL (       1 calls)
     stress       :     12.38s CPU     12.50s WALL (       1 calls)

     Called by init_run:
     wfcinit      :     12.70s CPU     13.21s WALL (       1 calls)
     potinit      :      0.23s CPU      0.25s WALL (       1 calls)
     hinit0       :      0.11s CPU      0.18s WALL (       1 calls)

     Called by electrons:
     c_bands      :    926.28s CPU    952.86s WALL (      23 calls)
     sum_band     :     95.63s CPU    100.57s WALL (      23 calls)
     v_of_rho     :      0.35s CPU      0.35s WALL (      23 calls)
     newd         :      0.71s CPU      0.92s WALL (      23 calls)
     PAW_pot      :      3.47s CPU      3.73s WALL (      23 calls)
     mix_rho      :      0.13s CPU      0.14s WALL (      23 calls)

     Called by c_bands:
     init_us_2    :      4.79s CPU      4.84s WALL (    7350 calls)
     cegterg      :    901.21s CPU    927.51s WALL (    3450 calls)

     Called by sum_band:
     sum_band:bec :      1.31s CPU      1.33s WALL (    3450 calls)
     addusdens    :      1.13s CPU      1.31s WALL (      23 calls)

     Called by *egterg:
     h_psi        :    379.07s CPU    395.23s WALL (   11562 calls)
     s_psi        :     20.07s CPU     20.23s WALL (   11562 calls)
     g_psi        :      0.81s CPU      0.83s WALL (    7962 calls)
     cdiaghg      :    411.82s CPU    413.10s WALL (   11262 calls)

     Called by h_psi:
     h_psi:pot    :    376.80s CPU    392.93s WALL (   11562 calls)
     h_psi:calbec :     31.14s CPU     36.27s WALL (   11562 calls)
     vloc_psi     :    325.46s CPU    336.32s WALL (   11562 calls)
     add_vuspsi   :     20.10s CPU     20.28s WALL (   11562 calls)

     General routines
     calbec       :     47.81s CPU     55.68s WALL (   15762 calls)
     fft          :      0.41s CPU      0.43s WALL (     617 calls)
     ffts         :      0.05s CPU      0.22s WALL (      92 calls)
     fftw         :    378.79s CPU    391.27s WALL ( 2888398 calls)
     interpolate  :      0.08s CPU      0.15s WALL (      46 calls)
 
     Parallel routines
     fft_scatt_xy :     24.84s CPU     25.66s WALL ( 2889107 calls)
     fft_scatt_yz :    254.46s CPU    263.12s WALL ( 2889107 calls)
 
     PWSCF        : 17m46.22s CPU    18m44.49s WALL

 
   This run was terminated on:   7:55:23   2Nov2020            

=------------------------------------------------------------------------------=
   JOB DONE.
=------------------------------------------------------------------------------=
