--------------------------------------------------------------------------
WARNING: No preset parameters were found for the device that Open MPI
detected:

  Local host:            bear-pg0206u26a
  Device name:           mlx5_0
  Device vendor ID:      0x02c9
  Device vendor part ID: 4123

Default device parameters will be used, which may result in lower
performance.  You can edit any of the files specified by the
btl_openib_device_param_files MCA parameter to set values for your
device.

NOTE: You can turn off this warning by setting the MCA parameter
      btl_openib_warn_no_device_params_found to 0.
--------------------------------------------------------------------------
--------------------------------------------------------------------------
WARNING: There was an error initializing an OpenFabrics device.

  Local host:   bear-pg0206u26a
  Local device: mlx5_0
--------------------------------------------------------------------------

     Program PWSCF v.6.3 starts on  2Nov2020 at  9:36:28 

     This program is part of the open-source Quantum ESPRESSO suite
     for quantum simulation of materials; please cite
         "P. Giannozzi et al., J. Phys.:Condens. Matter 21 395502 (2009);
         "P. Giannozzi et al., J. Phys.:Condens. Matter 29 465901 (2017);
          URL http://www.quantum-espresso.org", 
     in publications or presentations arising from this work. More details at
     http://www.quantum-espresso.org/quote

     Parallel version (MPI & OpenMP), running on      40 processor cores
     Number of MPI processes:                40
     Threads/MPI process:                     1

     MPI processes distributed on     1 nodes
     R & G space division:  proc/nbgrp/npool/nimage =      40
     Reading input from wd/ec/ec_4_004.in
Warning: card &IONS ignored
Warning: card ION_DYNAMICS = 'BFGS', ignored
Warning: card / ignored
Warning: card &CELL ignored
Warning: card CELL_DYNAMICS = 'BFGS', ignored
Warning: card CELL_FACTOR = 2.0, ignored
Warning: card PRESS = 0.0, ignored
Warning: card / ignored

     Current dimensions of program PWSCF are:
     Max number of different atomic species (ntypx) = 10
     Max number of k-points (npk) =  40000
     Max angular momentum in pseudopotentials (lmaxx) =  3
               file Fe.pbe-spn-kjpaw_psl.1.0.0.UPF: wavefunction(s)  3P 3D renormalized
               file Fe.pbe-spn-kjpaw_psl.1.0.0.UPF: wavefunction(s)  3P 3D renormalized

     Subspace diagonalization in iterative solution of the eigenvalue problem:
     a serial algorithm will be used

     Found symmetry operation: I + (  0.0000  0.0000 -0.5000)
     This is a supercell, fractional translations are disabled
 
     Parallelization info
     --------------------
     sticks:   dense  smooth     PW     G-vecs:    dense   smooth      PW
     Min          95      63     17                 4472     2400     355
     Max          96      64     18                 4477     2405     359
     Sum        3833    2537    717               178985    96089   14315
 


     bravais-lattice index     =            0
     lattice parameter (alat)  =      10.5935  a.u.
     unit-cell volume          =    1188.8329 (a.u.)^3
     number of atoms/cell      =           16
     number of atomic types    =            2
     number of electrons       =       256.00
     number of Kohn-Sham states=          154
     kinetic-energy cutoff     =      71.0000  Ry
     charge density cutoff     =     430.0000  Ry
     convergence threshold     =      1.0E-06
     mixing beta               =       0.1000
     number of iterations used =           10  plain     mixing
     Exchange-correlation      = SLA PW PBX PBC ( 1  4  3  4 0 0)

     celldm(1)=  10.593520  celldm(2)=   0.000000  celldm(3)=   0.000000
     celldm(4)=   0.000000  celldm(5)=   0.000000  celldm(6)=   0.000000

     crystal axes: (cart. coord. in units of alat)
               a(1) = (   1.000001   0.000000   0.000000 )  
               a(2) = (   0.000000   1.000001   0.002000 )  
               a(3) = (   0.000000   0.002000   1.000001 )  

     reciprocal axes: (cart. coord. in units 2 pi/alat)
               b(1) = (  0.999999  0.000000  0.000000 )  
               b(2) = (  0.000000  1.000003 -0.002000 )  
               b(3) = (  0.000000 -0.002000  1.000003 )  


     PseudoPot. # 1 for Fe read from file:
     /rds/homes/b/bxp912/pp/Fe.pbe-spn-kjpaw_psl.1.0.0.UPF
     MD5 check sum: 42f43b795421b414b0dc916aa790dbcb
     Pseudo is Projector augmented-wave + core cor, Zval = 16.0
     Generated using "atomic" code by A. Dal Corso v.6.3
     Shape of augmentation charge: PSQ
     Using radial grid of 1191 points,  6 beta functions with: 
                l(1) =   0
                l(2) =   0
                l(3) =   1
                l(4) =   1
                l(5) =   2
                l(6) =   2
     Q(r) pseudized with 0 coefficients 


     PseudoPot. # 2 for Fe read from file:
     /rds/homes/b/bxp912/pp/Fe.pbe-spn-kjpaw_psl.1.0.0.UPF
     MD5 check sum: 42f43b795421b414b0dc916aa790dbcb
     Pseudo is Projector augmented-wave + core cor, Zval = 16.0
     Generated using "atomic" code by A. Dal Corso v.6.3
     Shape of augmentation charge: PSQ
     Using radial grid of 1191 points,  6 beta functions with: 
                l(1) =   0
                l(2) =   0
                l(3) =   1
                l(4) =   1
                l(5) =   2
                l(6) =   2
     Q(r) pseudized with 0 coefficients 


     atomic species   valence    mass     pseudopotential
        Fe1           16.00    55.84500     Fe( 1.00)
        Fe2           16.00    55.84500     Fe( 1.00)

     Starting magnetic structure 
     atomic species   magnetization
        Fe1          0.100
        Fe2          0.100

      8 Sym. Ops., with inversion, found



   Cartesian axes

     site n.     atom                  positions (alat units)
         1           Fe1 tau(   1) = (   0.0000000   0.0000000   0.0000000  )
         2           Fe2 tau(   2) = (   0.2500008   0.2505008   0.2505008  )
         3           Fe1 tau(   3) = (   0.0000000   0.0010000   0.5000007  )
         4           Fe2 tau(   4) = (   0.2500008   0.2515008   0.7505006  )
         5           Fe1 tau(   5) = (   0.0000000   0.5000007   0.0010000  )
         6           Fe2 tau(   6) = (   0.2500008   0.7505006   0.2515008  )
         7           Fe1 tau(   7) = (   0.0000000   0.5010007   0.5010007  )
         8           Fe2 tau(   8) = (   0.2500008   0.7515006   0.7515006  )
         9           Fe1 tau(   9) = (   0.5000007   0.0000000   0.0000000  )
        10           Fe2 tau(  10) = (   0.7500006   0.2505008   0.2505008  )
        11           Fe1 tau(  11) = (   0.5000007   0.0010000   0.5000007  )
        12           Fe2 tau(  12) = (   0.7500006   0.2515008   0.7505006  )
        13           Fe1 tau(  13) = (   0.5000007   0.5000007   0.0010000  )
        14           Fe2 tau(  14) = (   0.7500006   0.7505006   0.2515008  )
        15           Fe1 tau(  15) = (   0.5000007   0.5010007   0.5010007  )
        16           Fe2 tau(  16) = (   0.7500006   0.7515006   0.7515006  )

     number of k points=   125  Marzari-Vanderbilt smearing, width (Ry)=  0.0400

     Number of k-points >= 100: set verbosity='high' to print them.

     Dense  grid:   178985 G-vectors     FFT dimensions: (  72,  72,  72)

     Smooth grid:    96089 G-vectors     FFT dimensions: (  60,  60,  60)

     Estimated max dynamical RAM per process >     215.38 MB

     Estimated total dynamical RAM >       8.41 GB
     Generating pointlists ...
     new r_m :   0.1784 (alat units)  1.8897 (a.u.) for type    1
     new r_m :   0.1784 (alat units)  1.8897 (a.u.) for type    2

     Check: negative/imaginary core charge=   -0.000006    0.000000

     Initial potential from superposition of free atoms

     starting charge  255.99300, renormalised to  256.00000
     Starting wfcs are  160 randomized atomic wfcs
     Checking if some PAW data can be deallocated... 

     total cpu time spent up to now is       23.7 secs

     Self-consistent Calculation

     iteration #  1     ecut=    71.00 Ry     beta= 0.10
     Davidson diagonalization with overlap
     ethr =  1.00E-02,  avg # of iterations =  3.4

     Threshold (ethr) on eigenvalues was too large:
     Diagonalizing with lowered threshold

     Davidson diagonalization with overlap
     ethr =  2.83E-04,  avg # of iterations =  3.4

     total cpu time spent up to now is      210.8 secs

     total energy              =   -5268.17195768 Ry
     Harris-Foulkes estimate   =   -5268.32081725 Ry
     estimated scf accuracy    <       0.81987268 Ry

     total magnetization       =    28.03 Bohr mag/cell
     absolute magnetization    =    28.39 Bohr mag/cell

     iteration #  2     ecut=    71.00 Ry     beta= 0.10
     Davidson diagonalization with overlap
     ethr =  3.20E-04,  avg # of iterations =  1.0

     total cpu time spent up to now is      266.3 secs

     total energy              =   -5268.05691183 Ry
     Harris-Foulkes estimate   =   -5268.19001016 Ry
     estimated scf accuracy    <       0.48896455 Ry

     total magnetization       =    28.66 Bohr mag/cell
     absolute magnetization    =    28.95 Bohr mag/cell

     iteration #  3     ecut=    71.00 Ry     beta= 0.10
     Davidson diagonalization with overlap
     ethr =  1.91E-04,  avg # of iterations =  2.7

     total cpu time spent up to now is      345.0 secs

     total energy              =   -5268.04141063 Ry
     Harris-Foulkes estimate   =   -5268.10817642 Ry
     estimated scf accuracy    <       0.55218633 Ry

     total magnetization       =    29.46 Bohr mag/cell
     absolute magnetization    =    29.80 Bohr mag/cell

     iteration #  4     ecut=    71.00 Ry     beta= 0.10
     Davidson diagonalization with overlap
     ethr =  1.91E-04,  avg # of iterations =  1.5

     total cpu time spent up to now is      406.0 secs

     total energy              =   -5268.06928220 Ry
     Harris-Foulkes estimate   =   -5268.07188234 Ry
     estimated scf accuracy    <       0.16080824 Ry

     total magnetization       =    30.22 Bohr mag/cell
     absolute magnetization    =    30.58 Bohr mag/cell

     iteration #  5     ecut=    71.00 Ry     beta= 0.10
     Davidson diagonalization with overlap
     ethr =  6.28E-05,  avg # of iterations =  1.5

     total cpu time spent up to now is      467.1 secs

     total energy              =   -5268.08817558 Ry
     Harris-Foulkes estimate   =   -5268.07304597 Ry
     estimated scf accuracy    <       0.11152363 Ry

     total magnetization       =    30.30 Bohr mag/cell
     absolute magnetization    =    30.69 Bohr mag/cell

     iteration #  6     ecut=    71.00 Ry     beta= 0.10
     Davidson diagonalization with overlap
     ethr =  4.36E-05,  avg # of iterations =  3.2

     total cpu time spent up to now is      570.7 secs

     total energy              =   -5268.14609607 Ry
     Harris-Foulkes estimate   =   -5268.12731137 Ry
     estimated scf accuracy    <       0.13914204 Ry

     total magnetization       =    30.92 Bohr mag/cell
     absolute magnetization    =    31.63 Bohr mag/cell

     iteration #  7     ecut=    71.00 Ry     beta= 0.10
     Davidson diagonalization with overlap
     ethr =  4.36E-05,  avg # of iterations =  2.0

     total cpu time spent up to now is      641.2 secs

     total energy              =   -5268.15168355 Ry
     Harris-Foulkes estimate   =   -5268.15366203 Ry
     estimated scf accuracy    <       0.10582320 Ry

     total magnetization       =    31.43 Bohr mag/cell
     absolute magnetization    =    32.33 Bohr mag/cell

     iteration #  8     ecut=    71.00 Ry     beta= 0.10
     Davidson diagonalization with overlap
     ethr =  4.13E-05,  avg # of iterations =  1.0

     negative rho (up, down):  0.000E+00 2.227E-03

     total cpu time spent up to now is      696.3 secs

     total energy              =   -5268.16728456 Ry
     Harris-Foulkes estimate   =   -5268.15271480 Ry
     estimated scf accuracy    <       0.08245698 Ry

     total magnetization       =    31.54 Bohr mag/cell
     absolute magnetization    =    32.50 Bohr mag/cell

     iteration #  9     ecut=    71.00 Ry     beta= 0.10
     Davidson diagonalization with overlap
     ethr =  3.22E-05,  avg # of iterations =  2.7

     negative rho (up, down):  0.000E+00 2.348E-03

     total cpu time spent up to now is      790.9 secs

     total energy              =   -5268.19021605 Ry
     Harris-Foulkes estimate   =   -5268.19264224 Ry
     estimated scf accuracy    <       0.02629444 Ry

     total magnetization       =    32.46 Bohr mag/cell
     absolute magnetization    =    33.94 Bohr mag/cell

     iteration # 10     ecut=    71.00 Ry     beta= 0.10
     Davidson diagonalization with overlap
     ethr =  1.03E-05,  avg # of iterations =  1.3

     negative rho (up, down):  0.000E+00 2.464E-03

     total cpu time spent up to now is      850.6 secs

     total energy              =   -5268.18821769 Ry
     Harris-Foulkes estimate   =   -5268.19068640 Ry
     estimated scf accuracy    <       0.01065377 Ry

     total magnetization       =    32.55 Bohr mag/cell
     absolute magnetization    =    34.07 Bohr mag/cell

     iteration # 11     ecut=    71.00 Ry     beta= 0.10
     Davidson diagonalization with overlap
     ethr =  4.16E-06,  avg # of iterations =  2.4

     negative rho (up, down):  0.000E+00 2.569E-03

     total cpu time spent up to now is      927.4 secs

     total energy              =   -5268.18856378 Ry
     Harris-Foulkes estimate   =   -5268.18878799 Ry
     estimated scf accuracy    <       0.00130910 Ry

     total magnetization       =    32.65 Bohr mag/cell
     absolute magnetization    =    34.28 Bohr mag/cell

     iteration # 12     ecut=    71.00 Ry     beta= 0.10
     Davidson diagonalization with overlap
     ethr =  5.11E-07,  avg # of iterations =  2.3

     negative rho (up, down):  0.000E+00 2.641E-03

     total cpu time spent up to now is      998.5 secs

     total energy              =   -5268.18862662 Ry
     Harris-Foulkes estimate   =   -5268.18863671 Ry
     estimated scf accuracy    <       0.00061362 Ry

     total magnetization       =    32.70 Bohr mag/cell
     absolute magnetization    =    34.36 Bohr mag/cell

     iteration # 13     ecut=    71.00 Ry     beta= 0.10
     Davidson diagonalization with overlap
     ethr =  2.40E-07,  avg # of iterations =  3.0

     negative rho (up, down):  0.000E+00 2.431E-03

     total cpu time spent up to now is     1084.7 secs

     total energy              =   -5268.18904127 Ry
     Harris-Foulkes estimate   =   -5268.18872241 Ry
     estimated scf accuracy    <       0.00089332 Ry

     total magnetization       =    32.76 Bohr mag/cell
     absolute magnetization    =    34.47 Bohr mag/cell

     iteration # 14     ecut=    71.00 Ry     beta= 0.10
     Davidson diagonalization with overlap
     ethr =  2.40E-07,  avg # of iterations =  3.3

     negative rho (up, down):  0.000E+00 2.464E-03

     total cpu time spent up to now is     1187.7 secs

     total energy              =   -5268.18928032 Ry
     Harris-Foulkes estimate   =   -5268.18928090 Ry
     estimated scf accuracy    <       0.00045220 Ry

     total magnetization       =    32.78 Bohr mag/cell
     absolute magnetization    =    34.49 Bohr mag/cell

     iteration # 15     ecut=    71.00 Ry     beta= 0.10
     Davidson diagonalization with overlap
     ethr =  1.77E-07,  avg # of iterations =  1.8

     negative rho (up, down):  0.000E+00 2.390E-03

     total cpu time spent up to now is     1254.8 secs

     total energy              =   -5268.18935579 Ry
     Harris-Foulkes estimate   =   -5268.18931243 Ry
     estimated scf accuracy    <       0.00010243 Ry

     total magnetization       =    32.81 Bohr mag/cell
     absolute magnetization    =    34.55 Bohr mag/cell

     iteration # 16     ecut=    71.00 Ry     beta= 0.10
     Davidson diagonalization with overlap
     ethr =  4.00E-08,  avg # of iterations =  2.9

     negative rho (up, down):  0.000E+00 2.415E-03

     total cpu time spent up to now is     1348.9 secs

     total energy              =   -5268.18939011 Ry
     Harris-Foulkes estimate   =   -5268.18939305 Ry
     estimated scf accuracy    <       0.00008293 Ry

     total magnetization       =    32.84 Bohr mag/cell
     absolute magnetization    =    34.58 Bohr mag/cell

     iteration # 17     ecut=    71.00 Ry     beta= 0.10
     Davidson diagonalization with overlap
     ethr =  3.24E-08,  avg # of iterations =  2.0

     negative rho (up, down):  0.000E+00 2.449E-03

     total cpu time spent up to now is     1420.1 secs

     total energy              =   -5268.18939938 Ry
     Harris-Foulkes estimate   =   -5268.18939795 Ry
     estimated scf accuracy    <       0.00003093 Ry

     total magnetization       =    32.86 Bohr mag/cell
     absolute magnetization    =    34.61 Bohr mag/cell

     iteration # 18     ecut=    71.00 Ry     beta= 0.10
     Davidson diagonalization with overlap
     ethr =  1.21E-08,  avg # of iterations =  3.0

     negative rho (up, down):  0.000E+00 2.423E-03

     total cpu time spent up to now is     1507.8 secs

     total energy              =   -5268.18940826 Ry
     Harris-Foulkes estimate   =   -5268.18940394 Ry
     estimated scf accuracy    <       0.00001542 Ry

     total magnetization       =    32.88 Bohr mag/cell
     absolute magnetization    =    34.64 Bohr mag/cell

     iteration # 19     ecut=    71.00 Ry     beta= 0.10
     Davidson diagonalization with overlap
     ethr =  6.02E-09,  avg # of iterations =  3.3

     negative rho (up, down):  0.000E+00 2.440E-03

     total cpu time spent up to now is     1604.4 secs

     total energy              =   -5268.18941285 Ry
     Harris-Foulkes estimate   =   -5268.18941303 Ry
     estimated scf accuracy    <       0.00001328 Ry

     total magnetization       =    32.88 Bohr mag/cell
     absolute magnetization    =    34.65 Bohr mag/cell

     iteration # 20     ecut=    71.00 Ry     beta= 0.10
     Davidson diagonalization with overlap
     ethr =  5.19E-09,  avg # of iterations =  2.0

     negative rho (up, down):  0.000E+00 2.447E-03

     total cpu time spent up to now is     1677.0 secs

     total energy              =   -5268.18941556 Ry
     Harris-Foulkes estimate   =   -5268.18941414 Ry
     estimated scf accuracy    <       0.00000492 Ry

     total magnetization       =    32.89 Bohr mag/cell
     absolute magnetization    =    34.66 Bohr mag/cell

     iteration # 21     ecut=    71.00 Ry     beta= 0.10
     Davidson diagonalization with overlap
     ethr =  1.92E-09,  avg # of iterations =  1.7

     negative rho (up, down):  0.000E+00 2.450E-03

     total cpu time spent up to now is     1739.9 secs

     total energy              =   -5268.18941678 Ry
     Harris-Foulkes estimate   =   -5268.18941609 Ry
     estimated scf accuracy    <       0.00000103 Ry

     total magnetization       =    32.90 Bohr mag/cell
     absolute magnetization    =    34.66 Bohr mag/cell

     iteration # 22     ecut=    71.00 Ry     beta= 0.10
     Davidson diagonalization with overlap
     ethr =  4.04E-10,  avg # of iterations =  2.4

     negative rho (up, down):  0.000E+00 2.464E-03
 
     Magnetic moment per site:
     atom:    1    charge:   14.3584    magn:    2.0988    constr:    0.0000
     atom:    2    charge:   14.3583    magn:    2.1015    constr:    0.0000
     atom:    3    charge:   14.3583    magn:    2.0998    constr:    0.0000
     atom:    4    charge:   14.3582    magn:    2.1015    constr:    0.0000
     atom:    5    charge:   14.3583    magn:    2.0998    constr:    0.0000
     atom:    6    charge:   14.3582    magn:    2.1015    constr:    0.0000
     atom:    7    charge:   14.3583    magn:    2.1003    constr:    0.0000
     atom:    8    charge:   14.3583    magn:    2.1015    constr:    0.0000
     atom:    9    charge:   14.3583    magn:    2.0978    constr:    0.0000
     atom:   10    charge:   14.3583    magn:    2.1015    constr:    0.0000
     atom:   11    charge:   14.3582    magn:    2.0985    constr:    0.0000
     atom:   12    charge:   14.3582    magn:    2.1015    constr:    0.0000
     atom:   13    charge:   14.3582    magn:    2.0985    constr:    0.0000
     atom:   14    charge:   14.3582    magn:    2.1015    constr:    0.0000
     atom:   15    charge:   14.3583    magn:    2.0993    constr:    0.0000
     atom:   16    charge:   14.3583    magn:    2.1015    constr:    0.0000

     total cpu time spent up to now is     1813.0 secs

     End of self-consistent calculation

     Number of k-points >= 100: set verbosity='high' to print the bands.

     the Fermi energy is    18.9744 ev

!    total energy              =   -5268.18941971 Ry
     Harris-Foulkes estimate   =   -5268.18941684 Ry
     estimated scf accuracy    <       0.00000086 Ry

     total all-electron energy =    -40728.933949 Ry

     The total energy is the sum of the following terms:

     one-electron contribution =   -1707.43997784 Ry
     hartree contribution      =    1022.28309734 Ry
     xc contribution           =    -444.26024877 Ry
     ewald contribution        =   -2814.22538987 Ry
     one-center paw contrib.   =   -1324.67104989 Ry
     smearing contrib. (-TS)   =       0.12414933 Ry

     total magnetization       =    32.90 Bohr mag/cell
     absolute magnetization    =    34.66 Bohr mag/cell

     convergence has been achieved in  22 iterations

     negative rho (up, down):  0.000E+00 2.464E-03

     Forces acting on atoms (cartesian axes, Ry/au):

     atom    1 type  1   force =     0.00000000    0.00000000    0.00000000
     atom    2 type  2   force =    -0.00013095    0.00009712    0.00009712
     atom    3 type  1   force =     0.00000000    0.00000000    0.00000000
     atom    4 type  2   force =     0.00006702    0.00011743   -0.00011743
     atom    5 type  1   force =     0.00000000    0.00000000    0.00000000
     atom    6 type  2   force =     0.00006702   -0.00011743    0.00011743
     atom    7 type  1   force =     0.00000000    0.00000000    0.00000000
     atom    8 type  2   force =    -0.00013095   -0.00009712   -0.00009712
     atom    9 type  1   force =     0.00000000    0.00000000    0.00000000
     atom   10 type  2   force =     0.00013095    0.00009712    0.00009712
     atom   11 type  1   force =     0.00000000    0.00000000    0.00000000
     atom   12 type  2   force =    -0.00006702    0.00011743   -0.00011743
     atom   13 type  1   force =     0.00000000    0.00000000    0.00000000
     atom   14 type  2   force =    -0.00006702   -0.00011743    0.00011743
     atom   15 type  1   force =     0.00000000    0.00000000    0.00000000
     atom   16 type  2   force =     0.00013095   -0.00009712   -0.00009712

     Total force =     0.000522     Total SCF correction =     0.006014
     SCF correction compared to forces is large: reduce conv_thr to get better values


     Computing stress (Cartesian axis) and pressure


     negative rho (up, down):  0.000E+00 2.464E-03
          total   stress  (Ry/bohr**3)                   (kbar)     P=   -2.66
  -0.00001818   0.00000000   0.00000000         -2.67      0.00      0.00
   0.00000000  -0.00001802  -0.00003701          0.00     -2.65     -5.44
   0.00000000  -0.00003701  -0.00001802          0.00     -5.44     -2.65


     Writing output data file HSmAiLLbEjldsvrh.save/
 
     init_run     :     21.31s CPU     22.30s WALL (       1 calls)
     electrons    :   1735.68s CPU   1789.33s WALL (       1 calls)
     forces       :      7.46s CPU      8.17s WALL (       1 calls)
     stress       :     20.83s CPU     21.11s WALL (       1 calls)

     Called by init_run:
     wfcinit      :     20.80s CPU     21.66s WALL (       1 calls)
     potinit      :      0.28s CPU      0.30s WALL (       1 calls)
     hinit0       :      0.13s CPU      0.14s WALL (       1 calls)

     Called by electrons:
     c_bands      :   1572.28s CPU   1617.19s WALL (      23 calls)
     sum_band     :    158.74s CPU    166.91s WALL (      23 calls)
     v_of_rho     :      0.37s CPU      0.38s WALL (      23 calls)
     newd         :      0.71s CPU      0.93s WALL (      23 calls)
     PAW_pot      :      3.49s CPU      3.74s WALL (      23 calls)
     mix_rho      :      0.14s CPU      0.15s WALL (      23 calls)

     Called by c_bands:
     init_us_2    :      7.93s CPU      8.02s WALL (   12250 calls)
     cegterg      :   1530.94s CPU   1575.36s WALL (    5750 calls)

     Called by sum_band:
     sum_band:bec :      2.12s CPU      2.16s WALL (    5750 calls)
     addusdens    :      1.30s CPU      1.47s WALL (      23 calls)

     Called by *egterg:
     h_psi        :    635.17s CPU    662.27s WALL (   19437 calls)
     s_psi        :     32.99s CPU     33.21s WALL (   19437 calls)
     g_psi        :      1.34s CPU      1.36s WALL (   13437 calls)
     cdiaghg      :    710.71s CPU    713.20s WALL (   18937 calls)

     Called by h_psi:
     h_psi:pot    :    631.44s CPU    658.47s WALL (   19437 calls)
     h_psi:calbec :     52.23s CPU     60.68s WALL (   19437 calls)
     vloc_psi     :    545.78s CPU    564.08s WALL (   19437 calls)
     add_vuspsi   :     33.26s CPU     33.60s WALL (   19437 calls)

     General routines
     calbec       :     80.35s CPU     93.46s WALL (   26437 calls)
     fft          :      0.44s CPU      0.46s WALL (     617 calls)
     ffts         :      0.07s CPU      0.24s WALL (      92 calls)
     fftw         :    635.33s CPU    656.38s WALL ( 4839332 calls)
     interpolate  :      0.12s CPU      0.20s WALL (      46 calls)
 
     Parallel routines
     fft_scatt_xy :     41.16s CPU     42.51s WALL ( 4840041 calls)
     fft_scatt_yz :    429.73s CPU    444.41s WALL ( 4840041 calls)
 
     PWSCF        : 30m 0.29s CPU    31m42.91s WALL

 
   This run was terminated on:  10: 8:11   2Nov2020            

=------------------------------------------------------------------------------=
   JOB DONE.
=------------------------------------------------------------------------------=
