--------------------------------------------------------------------------
WARNING: No preset parameters were found for the device that Open MPI
detected:

  Local host:            bear-pg0206u26a
  Device name:           mlx5_0
  Device vendor ID:      0x02c9
  Device vendor part ID: 4123

Default device parameters will be used, which may result in lower
performance.  You can edit any of the files specified by the
btl_openib_device_param_files MCA parameter to set values for your
device.

NOTE: You can turn off this warning by setting the MCA parameter
      btl_openib_warn_no_device_params_found to 0.
--------------------------------------------------------------------------
--------------------------------------------------------------------------
WARNING: There was an error initializing an OpenFabrics device.

  Local host:   bear-pg0206u26a
  Local device: mlx5_0
--------------------------------------------------------------------------

     Program PWSCF v.6.3 starts on  2Nov2020 at 15:26: 1 

     This program is part of the open-source Quantum ESPRESSO suite
     for quantum simulation of materials; please cite
         "P. Giannozzi et al., J. Phys.:Condens. Matter 21 395502 (2009);
         "P. Giannozzi et al., J. Phys.:Condens. Matter 29 465901 (2017);
          URL http://www.quantum-espresso.org", 
     in publications or presentations arising from this work. More details at
     http://www.quantum-espresso.org/quote

     Parallel version (MPI & OpenMP), running on      40 processor cores
     Number of MPI processes:                40
     Threads/MPI process:                     1

     MPI processes distributed on     1 nodes
     R & G space division:  proc/nbgrp/npool/nimage =      40
     Reading input from wd/ec/ec_6_005.in
Warning: card &IONS ignored
Warning: card ION_DYNAMICS = 'BFGS', ignored
Warning: card / ignored
Warning: card &CELL ignored
Warning: card CELL_DYNAMICS = 'BFGS', ignored
Warning: card CELL_FACTOR = 2.0, ignored
Warning: card PRESS = 0.0, ignored
Warning: card / ignored

     Current dimensions of program PWSCF are:
     Max number of different atomic species (ntypx) = 10
     Max number of k-points (npk) =  40000
     Max angular momentum in pseudopotentials (lmaxx) =  3
               file Fe.pbe-spn-kjpaw_psl.1.0.0.UPF: wavefunction(s)  3P 3D renormalized
               file Fe.pbe-spn-kjpaw_psl.1.0.0.UPF: wavefunction(s)  3P 3D renormalized

     Subspace diagonalization in iterative solution of the eigenvalue problem:
     a serial algorithm will be used

     Found symmetry operation: I + (  0.0000  0.0000  0.5000)
     This is a supercell, fractional translations are disabled
 
     Parallelization info
     --------------------
     sticks:   dense  smooth     PW     G-vecs:    dense   smooth      PW
     Min          95      63     17                 4473     2401     355
     Max          97      64     18                 4478     2406     360
     Sum        3833    2541    717               179001    96109   14299
 


     bravais-lattice index     =            0
     lattice parameter (alat)  =      10.5935  a.u.
     unit-cell volume          =    1188.8329 (a.u.)^3
     number of atoms/cell      =           16
     number of atomic types    =            2
     number of electrons       =       256.00
     number of Kohn-Sham states=          154
     kinetic-energy cutoff     =      71.0000  Ry
     charge density cutoff     =     430.0000  Ry
     convergence threshold     =      1.0E-06
     mixing beta               =       0.1000
     number of iterations used =           10  plain     mixing
     Exchange-correlation      = SLA PW PBX PBC ( 1  4  3  4 0 0)

     celldm(1)=  10.593520  celldm(2)=   0.000000  celldm(3)=   0.000000
     celldm(4)=   0.000000  celldm(5)=   0.000000  celldm(6)=   0.000000

     crystal axes: (cart. coord. in units of alat)
               a(1) = (   1.000002   0.002667   0.000000 )  
               a(2) = (   0.002667   1.000002   0.000000 )  
               a(3) = (   0.000000   0.000000   1.000002 )  

     reciprocal axes: (cart. coord. in units 2 pi/alat)
               b(1) = (  1.000005 -0.002667  0.000000 )  
               b(2) = ( -0.002667  1.000005  0.000000 )  
               b(3) = (  0.000000  0.000000  0.999998 )  


     PseudoPot. # 1 for Fe read from file:
     /rds/homes/b/bxp912/pp/Fe.pbe-spn-kjpaw_psl.1.0.0.UPF
     MD5 check sum: 42f43b795421b414b0dc916aa790dbcb
     Pseudo is Projector augmented-wave + core cor, Zval = 16.0
     Generated using "atomic" code by A. Dal Corso v.6.3
     Shape of augmentation charge: PSQ
     Using radial grid of 1191 points,  6 beta functions with: 
                l(1) =   0
                l(2) =   0
                l(3) =   1
                l(4) =   1
                l(5) =   2
                l(6) =   2
     Q(r) pseudized with 0 coefficients 


     PseudoPot. # 2 for Fe read from file:
     /rds/homes/b/bxp912/pp/Fe.pbe-spn-kjpaw_psl.1.0.0.UPF
     MD5 check sum: 42f43b795421b414b0dc916aa790dbcb
     Pseudo is Projector augmented-wave + core cor, Zval = 16.0
     Generated using "atomic" code by A. Dal Corso v.6.3
     Shape of augmentation charge: PSQ
     Using radial grid of 1191 points,  6 beta functions with: 
                l(1) =   0
                l(2) =   0
                l(3) =   1
                l(4) =   1
                l(5) =   2
                l(6) =   2
     Q(r) pseudized with 0 coefficients 


     atomic species   valence    mass     pseudopotential
        Fe1           16.00    55.84500     Fe( 1.00)
        Fe2           16.00    55.84500     Fe( 1.00)

     Starting magnetic structure 
     atomic species   magnetization
        Fe1          0.100
        Fe2          0.100

      8 Sym. Ops., with inversion, found



   Cartesian axes

     site n.     atom                  positions (alat units)
         1           Fe1 tau(   1) = (   0.0000000   0.0000000   0.0000000  )
         2           Fe2 tau(   2) = (   0.2506677   0.2506677   0.2500010  )
         3           Fe1 tau(   3) = (   0.0000000   0.0000000   0.5000012  )
         4           Fe2 tau(   4) = (   0.2506677   0.2506677   0.7500013  )
         5           Fe1 tau(   5) = (   0.0013333   0.5000012   0.0000000  )
         6           Fe2 tau(   6) = (   0.2520010   0.7506680   0.2500010  )
         7           Fe1 tau(   7) = (   0.0013333   0.5000012   0.5000012  )
         8           Fe2 tau(   8) = (   0.2520010   0.7506680   0.7500013  )
         9           Fe1 tau(   9) = (   0.5000012   0.0013333   0.0000000  )
        10           Fe2 tau(  10) = (   0.7506680   0.2520010   0.2500010  )
        11           Fe1 tau(  11) = (   0.5000012   0.0013333   0.5000012  )
        12           Fe2 tau(  12) = (   0.7506680   0.2520010   0.7500013  )
        13           Fe1 tau(  13) = (   0.5013345   0.5013345   0.0000000  )
        14           Fe2 tau(  14) = (   0.7520014   0.7520014   0.2500010  )
        15           Fe1 tau(  15) = (   0.5013345   0.5013345   0.5000012  )
        16           Fe2 tau(  16) = (   0.7520014   0.7520014   0.7500013  )

     number of k points=   125  Marzari-Vanderbilt smearing, width (Ry)=  0.0400

     Number of k-points >= 100: set verbosity='high' to print them.

     Dense  grid:   179001 G-vectors     FFT dimensions: (  72,  72,  72)

     Smooth grid:    96109 G-vectors     FFT dimensions: (  60,  60,  60)

     Estimated max dynamical RAM per process >     215.38 MB

     Estimated total dynamical RAM >       8.41 GB
     Generating pointlists ...
     new r_m :   0.1783 (alat units)  1.8888 (a.u.) for type    1
     new r_m :   0.1783 (alat units)  1.8888 (a.u.) for type    2

     Check: negative/imaginary core charge=   -0.000006    0.000000

     Initial potential from superposition of free atoms

     starting charge  255.99300, renormalised to  256.00000
     Starting wfcs are  160 randomized atomic wfcs
     Checking if some PAW data can be deallocated... 

     total cpu time spent up to now is       23.3 secs

     Self-consistent Calculation

     iteration #  1     ecut=    71.00 Ry     beta= 0.10
     Davidson diagonalization with overlap
     ethr =  1.00E-02,  avg # of iterations =  3.4

     Threshold (ethr) on eigenvalues was too large:
     Diagonalizing with lowered threshold

     Davidson diagonalization with overlap
     ethr =  2.16E-04,  avg # of iterations =  3.6

     total cpu time spent up to now is      215.0 secs

     total energy              =   -5268.02482825 Ry
     Harris-Foulkes estimate   =   -5268.09749895 Ry
     estimated scf accuracy    <       0.63363805 Ry

     total magnetization       =    27.93 Bohr mag/cell
     absolute magnetization    =    28.05 Bohr mag/cell

     iteration #  2     ecut=    71.00 Ry     beta= 0.10
     Davidson diagonalization with overlap
     ethr =  2.48E-04,  avg # of iterations =  1.0

     total cpu time spent up to now is      269.9 secs

     total energy              =   -5267.99330930 Ry
     Harris-Foulkes estimate   =   -5268.03902045 Ry
     estimated scf accuracy    <       0.38589596 Ry

     total magnetization       =    28.58 Bohr mag/cell
     absolute magnetization    =    28.72 Bohr mag/cell

     iteration #  3     ecut=    71.00 Ry     beta= 0.10
     Davidson diagonalization with overlap
     ethr =  1.51E-04,  avg # of iterations =  2.4

     total cpu time spent up to now is      344.3 secs

     total energy              =   -5268.02032600 Ry
     Harris-Foulkes estimate   =   -5268.03015378 Ry
     estimated scf accuracy    <       0.39961566 Ry

     total magnetization       =    29.35 Bohr mag/cell
     absolute magnetization    =    29.62 Bohr mag/cell

     iteration #  4     ecut=    71.00 Ry     beta= 0.10
     Davidson diagonalization with overlap
     ethr =  1.51E-04,  avg # of iterations =  1.5

     total cpu time spent up to now is      405.2 secs

     total energy              =   -5268.04494921 Ry
     Harris-Foulkes estimate   =   -5268.04186556 Ry
     estimated scf accuracy    <       0.13118392 Ry

     total magnetization       =    30.13 Bohr mag/cell
     absolute magnetization    =    30.45 Bohr mag/cell

     iteration #  5     ecut=    71.00 Ry     beta= 0.10
     Davidson diagonalization with overlap
     ethr =  5.12E-05,  avg # of iterations =  1.5

     total cpu time spent up to now is      466.6 secs

     total energy              =   -5268.10625148 Ry
     Harris-Foulkes estimate   =   -5268.04773789 Ry
     estimated scf accuracy    <       0.10604910 Ry

     total magnetization       =    30.21 Bohr mag/cell
     absolute magnetization    =    30.56 Bohr mag/cell

     iteration #  6     ecut=    71.00 Ry     beta= 0.10
     Davidson diagonalization with overlap
     ethr =  4.14E-05,  avg # of iterations =  3.3

     negative rho (up, down):  0.000E+00 7.397E-04

     total cpu time spent up to now is      567.7 secs

     total energy              =   -5268.16092205 Ry
     Harris-Foulkes estimate   =   -5268.14075110 Ry
     estimated scf accuracy    <       0.13379261 Ry

     total magnetization       =    31.01 Bohr mag/cell
     absolute magnetization    =    31.75 Bohr mag/cell

     iteration #  7     ecut=    71.00 Ry     beta= 0.10
     Davidson diagonalization with overlap
     ethr =  4.14E-05,  avg # of iterations =  2.7

     negative rho (up, down):  0.000E+00 1.205E-03

     total cpu time spent up to now is      652.1 secs

     total energy              =   -5268.17767414 Ry
     Harris-Foulkes estimate   =   -5268.17688024 Ry
     estimated scf accuracy    <       0.04141350 Ry

     total magnetization       =    31.85 Bohr mag/cell
     absolute magnetization    =    33.00 Bohr mag/cell

     iteration #  8     ecut=    71.00 Ry     beta= 0.10
     Davidson diagonalization with overlap
     ethr =  1.62E-05,  avg # of iterations =  1.2

     negative rho (up, down):  0.000E+00 1.293E-03

     total cpu time spent up to now is      709.9 secs

     total energy              =   -5268.17910112 Ry
     Harris-Foulkes estimate   =   -5268.17939081 Ry
     estimated scf accuracy    <       0.02727179 Ry

     total magnetization       =    32.02 Bohr mag/cell
     absolute magnetization    =    33.23 Bohr mag/cell

     iteration #  9     ecut=    71.00 Ry     beta= 0.10
     Davidson diagonalization with overlap
     ethr =  1.07E-05,  avg # of iterations =  2.2

     negative rho (up, down):  0.000E+00 1.812E-03

     total cpu time spent up to now is      782.9 secs

     total energy              =   -5268.18539959 Ry
     Harris-Foulkes estimate   =   -5268.18127276 Ry
     estimated scf accuracy    <       0.01389625 Ry

     total magnetization       =    32.26 Bohr mag/cell
     absolute magnetization    =    33.60 Bohr mag/cell

     iteration # 10     ecut=    71.00 Ry     beta= 0.10
     Davidson diagonalization with overlap
     ethr =  5.43E-06,  avg # of iterations =  1.3

     negative rho (up, down):  0.000E+00 2.418E-03

     total cpu time spent up to now is      842.1 secs

     total energy              =   -5268.18761717 Ry
     Harris-Foulkes estimate   =   -5268.18606063 Ry
     estimated scf accuracy    <       0.00646064 Ry

     total magnetization       =    32.44 Bohr mag/cell
     absolute magnetization    =    33.87 Bohr mag/cell

     iteration # 11     ecut=    71.00 Ry     beta= 0.10
     Davidson diagonalization with overlap
     c_bands:  2 eigenvalues not converged
     ethr =  2.52E-06,  avg # of iterations =  3.5

     negative rho (up, down):  0.000E+00 2.358E-03

     total cpu time spent up to now is      935.8 secs

     total energy              =   -5268.18855979 Ry
     Harris-Foulkes estimate   =   -5268.18854464 Ry
     estimated scf accuracy    <       0.00136419 Ry

     total magnetization       =    32.63 Bohr mag/cell
     absolute magnetization    =    34.25 Bohr mag/cell

     iteration # 12     ecut=    71.00 Ry     beta= 0.10
     Davidson diagonalization with overlap
     ethr =  5.33E-07,  avg # of iterations =  1.3

     negative rho (up, down):  0.000E+00 2.322E-03

     total cpu time spent up to now is      993.9 secs

     total energy              =   -5268.18885601 Ry
     Harris-Foulkes estimate   =   -5268.18859681 Ry
     estimated scf accuracy    <       0.00091353 Ry

     total magnetization       =    32.65 Bohr mag/cell
     absolute magnetization    =    34.27 Bohr mag/cell

     iteration # 13     ecut=    71.00 Ry     beta= 0.10
     Davidson diagonalization with overlap
     ethr =  3.57E-07,  avg # of iterations =  2.5

     negative rho (up, down):  0.000E+00 2.403E-03

     total cpu time spent up to now is     1071.1 secs

     total energy              =   -5268.18913928 Ry
     Harris-Foulkes estimate   =   -5268.18898291 Ry
     estimated scf accuracy    <       0.00119319 Ry

     total magnetization       =    32.72 Bohr mag/cell
     absolute magnetization    =    34.38 Bohr mag/cell

     iteration # 14     ecut=    71.00 Ry     beta= 0.10
     Davidson diagonalization with overlap
     ethr =  3.57E-07,  avg # of iterations =  2.0

     negative rho (up, down):  0.000E+00 2.452E-03

     total cpu time spent up to now is     1142.9 secs

     total energy              =   -5268.18920012 Ry
     Harris-Foulkes estimate   =   -5268.18921741 Ry
     estimated scf accuracy    <       0.00063145 Ry

     total magnetization       =    32.79 Bohr mag/cell
     absolute magnetization    =    34.50 Bohr mag/cell

     iteration # 15     ecut=    71.00 Ry     beta= 0.10
     Davidson diagonalization with overlap
     ethr =  2.47E-07,  avg # of iterations =  1.4

     negative rho (up, down):  0.000E+00 2.348E-03

     total cpu time spent up to now is     1202.2 secs

     total energy              =   -5268.18926252 Ry
     Harris-Foulkes estimate   =   -5268.18923522 Ry
     estimated scf accuracy    <       0.00010397 Ry

     total magnetization       =    32.82 Bohr mag/cell
     absolute magnetization    =    34.55 Bohr mag/cell

     iteration # 16     ecut=    71.00 Ry     beta= 0.10
     Davidson diagonalization with overlap
     ethr =  4.06E-08,  avg # of iterations =  3.1

     negative rho (up, down):  0.000E+00 2.429E-03

     total cpu time spent up to now is     1294.5 secs

     total energy              =   -5268.18929318 Ry
     Harris-Foulkes estimate   =   -5268.18928497 Ry
     estimated scf accuracy    <       0.00016202 Ry

     total magnetization       =    32.82 Bohr mag/cell
     absolute magnetization    =    34.55 Bohr mag/cell

     iteration # 17     ecut=    71.00 Ry     beta= 0.10
     Davidson diagonalization with overlap
     ethr =  4.06E-08,  avg # of iterations =  2.5

     negative rho (up, down):  0.000E+00 2.416E-03

     total cpu time spent up to now is     1379.1 secs

     total energy              =   -5268.18933313 Ry
     Harris-Foulkes estimate   =   -5268.18932718 Ry
     estimated scf accuracy    <       0.00003618 Ry

     total magnetization       =    32.87 Bohr mag/cell
     absolute magnetization    =    34.62 Bohr mag/cell

     iteration # 18     ecut=    71.00 Ry     beta= 0.10
     Davidson diagonalization with overlap
     ethr =  1.41E-08,  avg # of iterations =  2.1

     negative rho (up, down):  0.000E+00 2.412E-03

     total cpu time spent up to now is     1448.0 secs

     total energy              =   -5268.18933789 Ry
     Harris-Foulkes estimate   =   -5268.18933589 Ry
     estimated scf accuracy    <       0.00001759 Ry

     total magnetization       =    32.88 Bohr mag/cell
     absolute magnetization    =    34.63 Bohr mag/cell

     iteration # 19     ecut=    71.00 Ry     beta= 0.10
     Davidson diagonalization with overlap
     ethr =  6.87E-09,  avg # of iterations =  1.2

     negative rho (up, down):  0.000E+00 2.425E-03

     total cpu time spent up to now is     1505.0 secs

     total energy              =   -5268.18933793 Ry
     Harris-Foulkes estimate   =   -5268.18933843 Ry
     estimated scf accuracy    <       0.00001109 Ry

     total magnetization       =    32.88 Bohr mag/cell
     absolute magnetization    =    34.64 Bohr mag/cell

     iteration # 20     ecut=    71.00 Ry     beta= 0.10
     Davidson diagonalization with overlap
     ethr =  4.33E-09,  avg # of iterations =  3.1

     negative rho (up, down):  0.000E+00 2.433E-03

     total cpu time spent up to now is     1600.0 secs

     total energy              =   -5268.18934179 Ry
     Harris-Foulkes estimate   =   -5268.18934150 Ry
     estimated scf accuracy    <       0.00000210 Ry

     total magnetization       =    32.90 Bohr mag/cell
     absolute magnetization    =    34.66 Bohr mag/cell

     iteration # 21     ecut=    71.00 Ry     beta= 0.10
     Davidson diagonalization with overlap
     ethr =  8.22E-10,  avg # of iterations =  1.6

     negative rho (up, down):  0.000E+00 2.435E-03

     total cpu time spent up to now is     1661.8 secs

     total energy              =   -5268.18934207 Ry
     Harris-Foulkes estimate   =   -5268.18934194 Ry
     estimated scf accuracy    <       0.00000125 Ry

     total magnetization       =    32.90 Bohr mag/cell
     absolute magnetization    =    34.66 Bohr mag/cell

     iteration # 22     ecut=    71.00 Ry     beta= 0.10
     Davidson diagonalization with overlap
     ethr =  4.90E-10,  avg # of iterations =  1.0

     negative rho (up, down):  0.000E+00 2.462E-03
 
     Magnetic moment per site:
     atom:    1    charge:   14.3556    magn:    2.0994    constr:    0.0000
     atom:    2    charge:   14.3555    magn:    2.1004    constr:    0.0000
     atom:    3    charge:   14.3556    magn:    2.1002    constr:    0.0000
     atom:    4    charge:   14.3555    magn:    2.1004    constr:    0.0000
     atom:    5    charge:   14.3556    magn:    2.0994    constr:    0.0000
     atom:    6    charge:   14.3555    magn:    2.1008    constr:    0.0000
     atom:    7    charge:   14.3555    magn:    2.0999    constr:    0.0000
     atom:    8    charge:   14.3555    magn:    2.1008    constr:    0.0000
     atom:    9    charge:   14.3556    magn:    2.0994    constr:    0.0000
     atom:   10    charge:   14.3555    magn:    2.1008    constr:    0.0000
     atom:   11    charge:   14.3555    magn:    2.0999    constr:    0.0000
     atom:   12    charge:   14.3555    magn:    2.1008    constr:    0.0000
     atom:   13    charge:   14.3556    magn:    2.0992    constr:    0.0000
     atom:   14    charge:   14.3555    magn:    2.1004    constr:    0.0000
     atom:   15    charge:   14.3554    magn:    2.0999    constr:    0.0000
     atom:   16    charge:   14.3555    magn:    2.1004    constr:    0.0000

     total cpu time spent up to now is     1716.6 secs

     End of self-consistent calculation

     Number of k-points >= 100: set verbosity='high' to print the bands.

     the Fermi energy is    18.9745 ev

!    total energy              =   -5268.18934281 Ry
     Harris-Foulkes estimate   =   -5268.18934210 Ry
     estimated scf accuracy    <       0.00000078 Ry

     total all-electron energy =    -40728.933872 Ry

     The total energy is the sum of the following terms:

     one-electron contribution =   -1707.44523849 Ry
     hartree contribution      =    1022.28456325 Ry
     xc contribution           =    -444.25989558 Ry
     ewald contribution        =   -2814.22181764 Ry
     one-center paw contrib.   =   -1324.67108635 Ry
     smearing contrib. (-TS)   =       0.12413201 Ry

     total magnetization       =    32.90 Bohr mag/cell
     absolute magnetization    =    34.66 Bohr mag/cell

     convergence has been achieved in  22 iterations

     negative rho (up, down):  0.000E+00 2.462E-03

     Forces acting on atoms (cartesian axes, Ry/au):

     atom    1 type  1   force =     0.00000000    0.00000000    0.00000000
     atom    2 type  2   force =     0.00006897    0.00006897   -0.00010161
     atom    3 type  1   force =     0.00000000    0.00000000    0.00000000
     atom    4 type  2   force =     0.00006897    0.00006897    0.00010161
     atom    5 type  1   force =     0.00000000    0.00000000    0.00000000
     atom    6 type  2   force =     0.00041059   -0.00041059    0.00026057
     atom    7 type  1   force =     0.00000000    0.00000000    0.00000000
     atom    8 type  2   force =     0.00041059   -0.00041059   -0.00026057
     atom    9 type  1   force =     0.00000000    0.00000000    0.00000000
     atom   10 type  2   force =    -0.00041059    0.00041059    0.00026057
     atom   11 type  1   force =     0.00000000    0.00000000    0.00000000
     atom   12 type  2   force =    -0.00041059    0.00041059   -0.00026057
     atom   13 type  1   force =     0.00000000    0.00000000    0.00000000
     atom   14 type  2   force =    -0.00006897   -0.00006897   -0.00010161
     atom   15 type  1   force =     0.00000000    0.00000000    0.00000000
     atom   16 type  2   force =    -0.00006897   -0.00006897    0.00010161

     Total force =     0.001304     Total SCF correction =     0.005294
     SCF correction compared to forces is large: reduce conv_thr to get better values


     Computing stress (Cartesian axis) and pressure


     negative rho (up, down):  0.000E+00 2.462E-03
          total   stress  (Ry/bohr**3)                   (kbar)     P=   -2.85
  -0.00001956  -0.00004940   0.00000000         -2.88     -7.27      0.00
  -0.00004940  -0.00001956   0.00000000         -7.27     -2.88      0.00
   0.00000000   0.00000000  -0.00001909          0.00      0.00     -2.81


     Writing output data file lFNDeERGhuomRlqD.save/
 
     init_run     :     21.00s CPU     21.93s WALL (       1 calls)
     electrons    :   1641.72s CPU   1693.31s WALL (       1 calls)
     forces       :      7.55s CPU      8.28s WALL (       1 calls)
     stress       :     20.35s CPU     20.56s WALL (       1 calls)

     Called by init_run:
     wfcinit      :     20.56s CPU     21.40s WALL (       1 calls)
     potinit      :      0.21s CPU      0.23s WALL (       1 calls)
     hinit0       :      0.14s CPU      0.18s WALL (       1 calls)

     Called by electrons:
     c_bands      :   1479.07s CPU   1522.02s WALL (      23 calls)
     sum_band     :    157.87s CPU    166.06s WALL (      23 calls)
     v_of_rho     :      0.35s CPU      0.36s WALL (      23 calls)
     newd         :      0.78s CPU      0.96s WALL (      23 calls)
     PAW_pot      :      3.62s CPU      3.78s WALL (      23 calls)
     mix_rho      :      0.13s CPU      0.14s WALL (      23 calls)

     Called by c_bands:
     init_us_2    :      8.28s CPU      8.40s WALL (   12250 calls)
     cegterg      :   1437.66s CPU   1480.14s WALL (    5750 calls)

     Called by sum_band:
     sum_band:bec :      2.09s CPU      2.13s WALL (    5750 calls)
     addusdens    :      1.30s CPU      1.47s WALL (      23 calls)

     Called by *egterg:
     h_psi        :    619.01s CPU    644.97s WALL (   18357 calls)
     s_psi        :     33.19s CPU     33.41s WALL (   18357 calls)
     g_psi        :      1.34s CPU      1.36s WALL (   12357 calls)
     cdiaghg      :    643.03s CPU    645.36s WALL (   17857 calls)

     Called by h_psi:
     h_psi:pot    :    615.70s CPU    641.62s WALL (   18357 calls)
     h_psi:calbec :     50.86s CPU     59.05s WALL (   18357 calls)
     vloc_psi     :    530.93s CPU    548.43s WALL (   18357 calls)
     add_vuspsi   :     33.76s CPU     34.02s WALL (   18357 calls)

     General routines
     calbec       :     78.10s CPU     90.86s WALL (   25357 calls)
     fft          :      0.39s CPU      0.42s WALL (     617 calls)
     ffts         :      0.04s CPU      0.23s WALL (      92 calls)
     fftw         :    619.70s CPU    640.08s WALL ( 4763162 calls)
     interpolate  :      0.06s CPU      0.15s WALL (      46 calls)
 
     Parallel routines
     fft_scatt_xy :     40.53s CPU     41.80s WALL ( 4763871 calls)
     fft_scatt_yz :    415.85s CPU    429.94s WALL ( 4763871 calls)
 
     PWSCF        : 28m25.86s CPU    30m 7.51s WALL

 
   This run was terminated on:  15:56: 8   2Nov2020            

=------------------------------------------------------------------------------=
   JOB DONE.
=------------------------------------------------------------------------------=
