--------------------------------------------------------------------------
WARNING: No preset parameters were found for the device that Open MPI
detected:

  Local host:            bear-pg0206u26a
  Device name:           mlx5_0
  Device vendor ID:      0x02c9
  Device vendor part ID: 4123

Default device parameters will be used, which may result in lower
performance.  You can edit any of the files specified by the
btl_openib_device_param_files MCA parameter to set values for your
device.

NOTE: You can turn off this warning by setting the MCA parameter
      btl_openib_warn_no_device_params_found to 0.
--------------------------------------------------------------------------
--------------------------------------------------------------------------
WARNING: There was an error initializing an OpenFabrics device.

  Local host:   bear-pg0206u26a
  Local device: mlx5_0
--------------------------------------------------------------------------

     Program PWSCF v.6.3 starts on  2Nov2020 at 19:44:58 

     This program is part of the open-source Quantum ESPRESSO suite
     for quantum simulation of materials; please cite
         "P. Giannozzi et al., J. Phys.:Condens. Matter 21 395502 (2009);
         "P. Giannozzi et al., J. Phys.:Condens. Matter 29 465901 (2017);
          URL http://www.quantum-espresso.org", 
     in publications or presentations arising from this work. More details at
     http://www.quantum-espresso.org/quote

     Parallel version (MPI & OpenMP), running on      40 processor cores
     Number of MPI processes:                40
     Threads/MPI process:                     1

     MPI processes distributed on     1 nodes
     R & G space division:  proc/nbgrp/npool/nimage =      40
     Reading input from wd/ec/ec_8_003.in
Warning: card &IONS ignored
Warning: card ION_DYNAMICS = 'BFGS', ignored
Warning: card / ignored
Warning: card &CELL ignored
Warning: card CELL_DYNAMICS = 'BFGS', ignored
Warning: card CELL_FACTOR = 2.0, ignored
Warning: card PRESS = 0.0, ignored
Warning: card / ignored

     Current dimensions of program PWSCF are:
     Max number of different atomic species (ntypx) = 10
     Max number of k-points (npk) =  40000
     Max angular momentum in pseudopotentials (lmaxx) =  3
               file Fe.pbe-spn-kjpaw_psl.1.0.0.UPF: wavefunction(s)  3P 3D renormalized
               file Fe.pbe-spn-kjpaw_psl.1.0.0.UPF: wavefunction(s)  3P 3D renormalized

     Subspace diagonalization in iterative solution of the eigenvalue problem:
     a serial algorithm will be used

     Found symmetry operation: I + (  0.0000  0.0000  0.5000)
     This is a supercell, fractional translations are disabled
 
     Parallelization info
     --------------------
     sticks:   dense  smooth     PW     G-vecs:    dense   smooth      PW
     Min          95      63     17                 4471     2401     355
     Max          97      64     18                 4476     2406     360
     Sum        3839    2549    717               178943    96121   14331
 


     bravais-lattice index     =            0
     lattice parameter (alat)  =      10.5935  a.u.
     unit-cell volume          =    1188.8329 (a.u.)^3
     number of atoms/cell      =           16
     number of atomic types    =            2
     number of electrons       =       256.00
     number of Kohn-Sham states=          154
     kinetic-energy cutoff     =      71.0000  Ry
     charge density cutoff     =     430.0000  Ry
     convergence threshold     =      1.0E-06
     mixing beta               =       0.1000
     number of iterations used =           10  plain     mixing
     Exchange-correlation      = SLA PW PBX PBC ( 1  4  3  4 0 0)

     celldm(1)=  10.593520  celldm(2)=   0.000000  celldm(3)=   0.000000
     celldm(4)=   0.000000  celldm(5)=   0.000000  celldm(6)=   0.000000

     crystal axes: (cart. coord. in units of alat)
               a(1) = (   1.001334   0.000000   0.000000 )  
               a(2) = (   0.000000   1.000001   0.000000 )  
               a(3) = (   0.000000   0.000000   0.998667 )  

     reciprocal axes: (cart. coord. in units 2 pi/alat)
               b(1) = (  0.998668  0.000000  0.000000 )  
               b(2) = (  0.000000  0.999999  0.000000 )  
               b(3) = (  0.000000  0.000000  1.001335 )  


     PseudoPot. # 1 for Fe read from file:
     /rds/homes/b/bxp912/pp/Fe.pbe-spn-kjpaw_psl.1.0.0.UPF
     MD5 check sum: 42f43b795421b414b0dc916aa790dbcb
     Pseudo is Projector augmented-wave + core cor, Zval = 16.0
     Generated using "atomic" code by A. Dal Corso v.6.3
     Shape of augmentation charge: PSQ
     Using radial grid of 1191 points,  6 beta functions with: 
                l(1) =   0
                l(2) =   0
                l(3) =   1
                l(4) =   1
                l(5) =   2
                l(6) =   2
     Q(r) pseudized with 0 coefficients 


     PseudoPot. # 2 for Fe read from file:
     /rds/homes/b/bxp912/pp/Fe.pbe-spn-kjpaw_psl.1.0.0.UPF
     MD5 check sum: 42f43b795421b414b0dc916aa790dbcb
     Pseudo is Projector augmented-wave + core cor, Zval = 16.0
     Generated using "atomic" code by A. Dal Corso v.6.3
     Shape of augmentation charge: PSQ
     Using radial grid of 1191 points,  6 beta functions with: 
                l(1) =   0
                l(2) =   0
                l(3) =   1
                l(4) =   1
                l(5) =   2
                l(6) =   2
     Q(r) pseudized with 0 coefficients 


     atomic species   valence    mass     pseudopotential
        Fe1           16.00    55.84500     Fe( 1.00)
        Fe2           16.00    55.84500     Fe( 1.00)

     Starting magnetic structure 
     atomic species   magnetization
        Fe1          0.100
        Fe2          0.100

      8 Sym. Ops., with inversion, found



   Cartesian axes

     site n.     atom                  positions (alat units)
         1           Fe1 tau(   1) = (   0.0000000   0.0000000   0.0000000  )
         2           Fe2 tau(   2) = (   0.2503339   0.2500006   0.2496672  )
         3           Fe1 tau(   3) = (   0.0000000   0.0000000   0.4993336  )
         4           Fe2 tau(   4) = (   0.2503339   0.2500006   0.7490000  )
         5           Fe1 tau(   5) = (   0.0000000   0.5000003   0.0000000  )
         6           Fe2 tau(   6) = (   0.2503339   0.7500000   0.2496672  )
         7           Fe1 tau(   7) = (   0.0000000   0.5000003   0.4993336  )
         8           Fe2 tau(   8) = (   0.2503339   0.7500000   0.7490000  )
         9           Fe1 tau(   9) = (   0.5006670   0.0000000   0.0000000  )
        10           Fe2 tau(  10) = (   0.7510000   0.2500006   0.2496672  )
        11           Fe1 tau(  11) = (   0.5006670   0.0000000   0.4993336  )
        12           Fe2 tau(  12) = (   0.7510000   0.2500006   0.7490000  )
        13           Fe1 tau(  13) = (   0.5006670   0.5000003   0.0000000  )
        14           Fe2 tau(  14) = (   0.7510000   0.7500000   0.2496672  )
        15           Fe1 tau(  15) = (   0.5006670   0.5000003   0.4993336  )
        16           Fe2 tau(  16) = (   0.7510000   0.7500000   0.7490000  )

     number of k points=   125  Marzari-Vanderbilt smearing, width (Ry)=  0.0400

     Number of k-points >= 100: set verbosity='high' to print them.

     Dense  grid:   178943 G-vectors     FFT dimensions: (  72,  72,  72)

     Smooth grid:    96121 G-vectors     FFT dimensions: (  60,  60,  60)

     Estimated max dynamical RAM per process >     215.37 MB

     Estimated total dynamical RAM >       8.41 GB
     Generating pointlists ...
     new r_m :   0.1786 (alat units)  1.8922 (a.u.) for type    1
     new r_m :   0.1786 (alat units)  1.8922 (a.u.) for type    2

     Check: negative/imaginary core charge=   -0.000006    0.000000

     Initial potential from superposition of free atoms

     starting charge  255.99300, renormalised to  256.00000
     Starting wfcs are  160 randomized atomic wfcs
     Checking if some PAW data can be deallocated... 

     total cpu time spent up to now is       23.3 secs

     Self-consistent Calculation

     iteration #  1     ecut=    71.00 Ry     beta= 0.10
     Davidson diagonalization with overlap
     ethr =  1.00E-02,  avg # of iterations =  3.4

     Threshold (ethr) on eigenvalues was too large:
     Diagonalizing with lowered threshold

     Davidson diagonalization with overlap
     ethr =  2.83E-04,  avg # of iterations =  3.4

     total cpu time spent up to now is      209.6 secs

     total energy              =   -5268.17614877 Ry
     Harris-Foulkes estimate   =   -5268.32783563 Ry
     estimated scf accuracy    <       0.82050708 Ry

     total magnetization       =    28.04 Bohr mag/cell
     absolute magnetization    =    28.41 Bohr mag/cell

     iteration #  2     ecut=    71.00 Ry     beta= 0.10
     Davidson diagonalization with overlap
     ethr =  3.21E-04,  avg # of iterations =  1.0

     total cpu time spent up to now is      264.7 secs

     total energy              =   -5268.07009511 Ry
     Harris-Foulkes estimate   =   -5268.19494810 Ry
     estimated scf accuracy    <       0.49785274 Ry

     total magnetization       =    28.67 Bohr mag/cell
     absolute magnetization    =    28.96 Bohr mag/cell

     iteration #  3     ecut=    71.00 Ry     beta= 0.10
     Davidson diagonalization with overlap
     ethr =  1.94E-04,  avg # of iterations =  2.5

     total cpu time spent up to now is      340.7 secs

     total energy              =   -5268.03734340 Ry
     Harris-Foulkes estimate   =   -5268.11684156 Ry
     estimated scf accuracy    <       0.57559013 Ry

     total magnetization       =    29.37 Bohr mag/cell
     absolute magnetization    =    29.71 Bohr mag/cell

     iteration #  4     ecut=    71.00 Ry     beta= 0.10
     Davidson diagonalization with overlap
     ethr =  1.94E-04,  avg # of iterations =  2.1

     total cpu time spent up to now is      409.4 secs

     total energy              =   -5268.06933233 Ry
     Harris-Foulkes estimate   =   -5268.07315952 Ry
     estimated scf accuracy    <       0.17923958 Ry

     total magnetization       =    30.20 Bohr mag/cell
     absolute magnetization    =    30.58 Bohr mag/cell

     iteration #  5     ecut=    71.00 Ry     beta= 0.10
     Davidson diagonalization with overlap
     ethr =  7.00E-05,  avg # of iterations =  1.4

     total cpu time spent up to now is      468.8 secs

     total energy              =   -5268.08820915 Ry
     Harris-Foulkes estimate   =   -5268.07356341 Ry
     estimated scf accuracy    <       0.11152768 Ry

     total magnetization       =    30.30 Bohr mag/cell
     absolute magnetization    =    30.69 Bohr mag/cell

     iteration #  6     ecut=    71.00 Ry     beta= 0.10
     Davidson diagonalization with overlap
     ethr =  4.36E-05,  avg # of iterations =  3.3

     total cpu time spent up to now is      572.5 secs

     total energy              =   -5268.14468355 Ry
     Harris-Foulkes estimate   =   -5268.12704200 Ry
     estimated scf accuracy    <       0.13326068 Ry

     total magnetization       =    30.92 Bohr mag/cell
     absolute magnetization    =    31.63 Bohr mag/cell

     iteration #  7     ecut=    71.00 Ry     beta= 0.10
     Davidson diagonalization with overlap
     ethr =  4.36E-05,  avg # of iterations =  2.0

     total cpu time spent up to now is      643.4 secs

     total energy              =   -5268.15341722 Ry
     Harris-Foulkes estimate   =   -5268.15262567 Ry
     estimated scf accuracy    <       0.09925313 Ry

     total magnetization       =    31.45 Bohr mag/cell
     absolute magnetization    =    32.36 Bohr mag/cell

     iteration #  8     ecut=    71.00 Ry     beta= 0.10
     Davidson diagonalization with overlap
     ethr =  3.88E-05,  avg # of iterations =  1.0

     negative rho (up, down):  0.000E+00 1.859E-03

     total cpu time spent up to now is      698.6 secs

     total energy              =   -5268.17029084 Ry
     Harris-Foulkes estimate   =   -5268.15479029 Ry
     estimated scf accuracy    <       0.07688093 Ry

     total magnetization       =    31.60 Bohr mag/cell
     absolute magnetization    =    32.58 Bohr mag/cell

     iteration #  9     ecut=    71.00 Ry     beta= 0.10
     Davidson diagonalization with overlap
     ethr =  3.00E-05,  avg # of iterations =  2.7

     negative rho (up, down):  0.000E+00 2.154E-03

     total cpu time spent up to now is      790.0 secs

     total energy              =   -5268.18961323 Ry
     Harris-Foulkes estimate   =   -5268.18830469 Ry
     estimated scf accuracy    <       0.02869287 Ry

     total magnetization       =    32.37 Bohr mag/cell
     absolute magnetization    =    33.78 Bohr mag/cell

     iteration # 10     ecut=    71.00 Ry     beta= 0.10
     Davidson diagonalization with overlap
     ethr =  1.12E-05,  avg # of iterations =  1.0

     negative rho (up, down):  0.000E+00 2.512E-03

     total cpu time spent up to now is      846.0 secs

     total energy              =   -5268.18798827 Ry
     Harris-Foulkes estimate   =   -5268.19013187 Ry
     estimated scf accuracy    <       0.01599925 Ry

     total magnetization       =    32.48 Bohr mag/cell
     absolute magnetization    =    33.94 Bohr mag/cell

     iteration # 11     ecut=    71.00 Ry     beta= 0.10
     Davidson diagonalization with overlap
     ethr =  6.25E-06,  avg # of iterations =  2.2

     negative rho (up, down):  0.000E+00 2.559E-03

     total cpu time spent up to now is      920.0 secs

     total energy              =   -5268.18872807 Ry
     Harris-Foulkes estimate   =   -5268.18894632 Ry
     estimated scf accuracy    <       0.00173324 Ry

     total magnetization       =    32.65 Bohr mag/cell
     absolute magnetization    =    34.26 Bohr mag/cell

     iteration # 12     ecut=    71.00 Ry     beta= 0.10
     Davidson diagonalization with overlap
     ethr =  6.77E-07,  avg # of iterations =  2.8

     negative rho (up, down):  0.000E+00 2.578E-03

     total cpu time spent up to now is     1000.4 secs

     total energy              =   -5268.18901414 Ry
     Harris-Foulkes estimate   =   -5268.18886763 Ry
     estimated scf accuracy    <       0.00080094 Ry

     total magnetization       =    32.70 Bohr mag/cell
     absolute magnetization    =    34.35 Bohr mag/cell

     iteration # 13     ecut=    71.00 Ry     beta= 0.10
     Davidson diagonalization with overlap
     ethr =  3.13E-07,  avg # of iterations =  2.1

     negative rho (up, down):  0.000E+00 2.546E-03

     total cpu time spent up to now is     1070.5 secs

     total energy              =   -5268.18897077 Ry
     Harris-Foulkes estimate   =   -5268.18909535 Ry
     estimated scf accuracy    <       0.00122331 Ry

     total magnetization       =    32.75 Bohr mag/cell
     absolute magnetization    =    34.43 Bohr mag/cell

     iteration # 14     ecut=    71.00 Ry     beta= 0.10
     Davidson diagonalization with overlap
     ethr =  3.13E-07,  avg # of iterations =  2.6

     negative rho (up, down):  0.000E+00 2.485E-03

     total cpu time spent up to now is     1152.6 secs

     total energy              =   -5268.18923593 Ry
     Harris-Foulkes estimate   =   -5268.18911174 Ry
     estimated scf accuracy    <       0.00064567 Ry

     total magnetization       =    32.78 Bohr mag/cell
     absolute magnetization    =    34.50 Bohr mag/cell

     iteration # 15     ecut=    71.00 Ry     beta= 0.10
     Davidson diagonalization with overlap
     ethr =  2.52E-07,  avg # of iterations =  1.3

     negative rho (up, down):  0.000E+00 2.481E-03

     total cpu time spent up to now is     1212.9 secs

     total energy              =   -5268.18931415 Ry
     Harris-Foulkes estimate   =   -5268.18927279 Ry
     estimated scf accuracy    <       0.00019822 Ry

     total magnetization       =    32.78 Bohr mag/cell
     absolute magnetization    =    34.51 Bohr mag/cell

     iteration # 16     ecut=    71.00 Ry     beta= 0.10
     Davidson diagonalization with overlap
     ethr =  7.74E-08,  avg # of iterations =  2.5

     negative rho (up, down):  0.000E+00 2.458E-03

     total cpu time spent up to now is     1296.5 secs

     total energy              =   -5268.18938140 Ry
     Harris-Foulkes estimate   =   -5268.18933765 Ry
     estimated scf accuracy    <       0.00010350 Ry

     total magnetization       =    32.82 Bohr mag/cell
     absolute magnetization    =    34.55 Bohr mag/cell

     iteration # 17     ecut=    71.00 Ry     beta= 0.10
     Davidson diagonalization with overlap
     ethr =  4.04E-08,  avg # of iterations =  2.1

     negative rho (up, down):  0.000E+00 2.394E-03

     total cpu time spent up to now is     1368.9 secs

     total energy              =   -5268.18941331 Ry
     Harris-Foulkes estimate   =   -5268.18939052 Ry
     estimated scf accuracy    <       0.00006864 Ry

     total magnetization       =    32.83 Bohr mag/cell
     absolute magnetization    =    34.58 Bohr mag/cell

     iteration # 18     ecut=    71.00 Ry     beta= 0.10
     Davidson diagonalization with overlap
     ethr =  2.68E-08,  avg # of iterations =  2.5

     negative rho (up, down):  0.000E+00 2.434E-03

     total cpu time spent up to now is     1453.7 secs

     total energy              =   -5268.18943731 Ry
     Harris-Foulkes estimate   =   -5268.18943305 Ry
     estimated scf accuracy    <       0.00004080 Ry

     total magnetization       =    32.85 Bohr mag/cell
     absolute magnetization    =    34.60 Bohr mag/cell

     iteration # 19     ecut=    71.00 Ry     beta= 0.10
     Davidson diagonalization with overlap
     ethr =  1.59E-08,  avg # of iterations =  2.5

     negative rho (up, down):  0.000E+00 2.447E-03

     total cpu time spent up to now is     1534.3 secs

     total energy              =   -5268.18944385 Ry
     Harris-Foulkes estimate   =   -5268.18944388 Ry
     estimated scf accuracy    <       0.00001794 Ry

     total magnetization       =    32.87 Bohr mag/cell
     absolute magnetization    =    34.63 Bohr mag/cell

     iteration # 20     ecut=    71.00 Ry     beta= 0.10
     Davidson diagonalization with overlap
     ethr =  7.01E-09,  avg # of iterations =  1.8

     negative rho (up, down):  0.000E+00 2.463E-03

     total cpu time spent up to now is     1599.9 secs

     total energy              =   -5268.18944541 Ry
     Harris-Foulkes estimate   =   -5268.18944489 Ry
     estimated scf accuracy    <       0.00001628 Ry

     total magnetization       =    32.88 Bohr mag/cell
     absolute magnetization    =    34.64 Bohr mag/cell

     iteration # 21     ecut=    71.00 Ry     beta= 0.10
     Davidson diagonalization with overlap
     ethr =  6.36E-09,  avg # of iterations =  1.5

     negative rho (up, down):  0.000E+00 2.461E-03

     total cpu time spent up to now is     1661.3 secs

     total energy              =   -5268.18944968 Ry
     Harris-Foulkes estimate   =   -5268.18944652 Ry
     estimated scf accuracy    <       0.00000844 Ry

     total magnetization       =    32.89 Bohr mag/cell
     absolute magnetization    =    34.65 Bohr mag/cell

     iteration # 22     ecut=    71.00 Ry     beta= 0.10
     Davidson diagonalization with overlap
     ethr =  3.30E-09,  avg # of iterations =  2.4

     negative rho (up, down):  0.000E+00 2.456E-03

     total cpu time spent up to now is     1735.2 secs

     total energy              =   -5268.18945252 Ry
     Harris-Foulkes estimate   =   -5268.18945069 Ry
     estimated scf accuracy    <       0.00000687 Ry

     total magnetization       =    32.89 Bohr mag/cell
     absolute magnetization    =    34.66 Bohr mag/cell

     iteration # 23     ecut=    71.00 Ry     beta= 0.10
     Davidson diagonalization with overlap
     ethr =  2.68E-09,  avg # of iterations =  2.3

     negative rho (up, down):  0.000E+00 2.452E-03

     total cpu time spent up to now is     1810.3 secs

     total energy              =   -5268.18945442 Ry
     Harris-Foulkes estimate   =   -5268.18945370 Ry
     estimated scf accuracy    <       0.00000141 Ry

     total magnetization       =    32.90 Bohr mag/cell
     absolute magnetization    =    34.67 Bohr mag/cell

     iteration # 24     ecut=    71.00 Ry     beta= 0.10
     Davidson diagonalization with overlap
     ethr =  5.50E-10,  avg # of iterations =  2.8

     negative rho (up, down):  0.000E+00 2.465E-03
 
     Magnetic moment per site:
     atom:    1    charge:   14.3662    magn:    2.0996    constr:    0.0000
     atom:    2    charge:   14.3663    magn:    2.1017    constr:    0.0000
     atom:    3    charge:   14.3667    magn:    2.1002    constr:    0.0000
     atom:    4    charge:   14.3663    magn:    2.1017    constr:    0.0000
     atom:    5    charge:   14.3663    magn:    2.1002    constr:    0.0000
     atom:    6    charge:   14.3663    magn:    2.1017    constr:    0.0000
     atom:    7    charge:   14.3666    magn:    2.1004    constr:    0.0000
     atom:    8    charge:   14.3663    magn:    2.1017    constr:    0.0000
     atom:    9    charge:   14.3666    magn:    2.0983    constr:    0.0000
     atom:   10    charge:   14.3663    magn:    2.1017    constr:    0.0000
     atom:   11    charge:   14.3665    magn:    2.0987    constr:    0.0000
     atom:   12    charge:   14.3663    magn:    2.1017    constr:    0.0000
     atom:   13    charge:   14.3664    magn:    2.0988    constr:    0.0000
     atom:   14    charge:   14.3663    magn:    2.1017    constr:    0.0000
     atom:   15    charge:   14.3665    magn:    2.0993    constr:    0.0000
     atom:   16    charge:   14.3663    magn:    2.1017    constr:    0.0000

     total cpu time spent up to now is     1890.9 secs

     End of self-consistent calculation

     Number of k-points >= 100: set verbosity='high' to print the bands.

     the Fermi energy is    18.9743 ev

!    total energy              =   -5268.18945639 Ry
     Harris-Foulkes estimate   =   -5268.18945457 Ry
     estimated scf accuracy    <       0.00000085 Ry

     total all-electron energy =    -40728.933985 Ry

     The total energy is the sum of the following terms:

     one-electron contribution =   -1707.42873799 Ry
     hartree contribution      =    1022.27560756 Ry
     xc contribution           =    -444.25971974 Ry
     ewald contribution        =   -2814.22970922 Ry
     one-center paw contrib.   =   -1324.67105124 Ry
     smearing contrib. (-TS)   =       0.12415423 Ry

     total magnetization       =    32.90 Bohr mag/cell
     absolute magnetization    =    34.67 Bohr mag/cell

     convergence has been achieved in  24 iterations

     negative rho (up, down):  0.000E+00 2.465E-03

     Forces acting on atoms (cartesian axes, Ry/au):

     atom    1 type  1   force =     0.00000000    0.00000000    0.00000000
     atom    2 type  2   force =    -0.00005313    0.00023653    0.00003506
     atom    3 type  1   force =     0.00000000    0.00000000    0.00000000
     atom    4 type  2   force =    -0.00005313    0.00023653   -0.00003506
     atom    5 type  1   force =     0.00000000    0.00000000    0.00000000
     atom    6 type  2   force =    -0.00005313   -0.00023653    0.00003506
     atom    7 type  1   force =     0.00000000    0.00000000    0.00000000
     atom    8 type  2   force =    -0.00005313   -0.00023653   -0.00003506
     atom    9 type  1   force =     0.00000000    0.00000000    0.00000000
     atom   10 type  2   force =     0.00005313    0.00023653    0.00003506
     atom   11 type  1   force =     0.00000000    0.00000000    0.00000000
     atom   12 type  2   force =     0.00005313    0.00023653   -0.00003506
     atom   13 type  1   force =     0.00000000    0.00000000    0.00000000
     atom   14 type  2   force =     0.00005313   -0.00023653    0.00003506
     atom   15 type  1   force =     0.00000000    0.00000000    0.00000000
     atom   16 type  2   force =     0.00005313   -0.00023653   -0.00003506

     Total force =     0.000693     Total SCF correction =     0.005432
     SCF correction compared to forces is large: reduce conv_thr to get better values


     Computing stress (Cartesian axis) and pressure


     negative rho (up, down):  0.000E+00 2.465E-03
          total   stress  (Ry/bohr**3)                   (kbar)     P=   -3.06
  -0.00003266   0.00000000   0.00000000         -4.80      0.00      0.00
   0.00000000  -0.00002097   0.00000000          0.00     -3.09      0.00
   0.00000000   0.00000000  -0.00000883          0.00      0.00     -1.30


     Writing output data file MYOQXchFuOsVIvzd.save/
 
     init_run     :     21.06s CPU     21.94s WALL (       1 calls)
     electrons    :   1810.55s CPU   1867.58s WALL (       1 calls)
     forces       :      7.68s CPU      8.38s WALL (       1 calls)
     stress       :     20.82s CPU     21.04s WALL (       1 calls)

     Called by init_run:
     wfcinit      :     20.61s CPU     21.42s WALL (       1 calls)
     potinit      :      0.20s CPU      0.23s WALL (       1 calls)
     hinit0       :      0.16s CPU      0.17s WALL (       1 calls)

     Called by electrons:
     c_bands      :   1631.80s CPU   1679.27s WALL (      25 calls)
     sum_band     :    173.53s CPU    182.47s WALL (      25 calls)
     v_of_rho     :      0.37s CPU      0.38s WALL (      25 calls)
     newd         :      0.83s CPU      1.07s WALL (      25 calls)
     PAW_pot      :      3.81s CPU      4.09s WALL (      25 calls)
     mix_rho      :      0.15s CPU      0.15s WALL (      25 calls)

     Called by c_bands:
     init_us_2    :      9.28s CPU      9.42s WALL (   13250 calls)
     cegterg      :   1587.18s CPU   1634.16s WALL (    6250 calls)

     Called by sum_band:
     sum_band:bec :      2.39s CPU      2.42s WALL (    6250 calls)
     addusdens    :      1.22s CPU      1.43s WALL (      25 calls)

     Called by *egterg:
     h_psi        :    681.78s CPU    710.66s WALL (   20382 calls)
     s_psi        :     36.25s CPU     36.51s WALL (   20382 calls)
     g_psi        :      1.45s CPU      1.47s WALL (   13882 calls)
     cdiaghg      :    709.21s CPU    712.03s WALL (   19882 calls)

     Called by h_psi:
     h_psi:pot    :    678.08s CPU    706.91s WALL (   20382 calls)
     h_psi:calbec :     56.16s CPU     65.00s WALL (   20382 calls)
     vloc_psi     :    584.49s CPU    604.23s WALL (   20382 calls)
     add_vuspsi   :     37.25s CPU     37.55s WALL (   20382 calls)

     General routines
     calbec       :     85.42s CPU     99.08s WALL (   27882 calls)
     fft          :      0.51s CPU      0.53s WALL (     667 calls)
     ffts         :      0.06s CPU      0.27s WALL (     100 calls)
     fftw         :    682.65s CPU    705.57s WALL ( 5185002 calls)
     interpolate  :      0.16s CPU      0.25s WALL (      50 calls)
 
     Parallel routines
     fft_scatt_xy :     44.34s CPU     45.74s WALL ( 5185769 calls)
     fft_scatt_yz :    460.12s CPU    475.93s WALL ( 5185769 calls)
 
     PWSCF        : 31m15.12s CPU    33m 3.10s WALL

 
   This run was terminated on:  20:18: 1   2Nov2020            

=------------------------------------------------------------------------------=
   JOB DONE.
=------------------------------------------------------------------------------=
