--------------------------------------------------------------------------
WARNING: No preset parameters were found for the device that Open MPI
detected:

  Local host:            bear-pg0206u26a
  Device name:           mlx5_0
  Device vendor ID:      0x02c9
  Device vendor part ID: 4123

Default device parameters will be used, which may result in lower
performance.  You can edit any of the files specified by the
btl_openib_device_param_files MCA parameter to set values for your
device.

NOTE: You can turn off this warning by setting the MCA parameter
      btl_openib_warn_no_device_params_found to 0.
--------------------------------------------------------------------------
--------------------------------------------------------------------------
WARNING: There was an error initializing an OpenFabrics device.

  Local host:   bear-pg0206u26a
  Local device: mlx5_0
--------------------------------------------------------------------------

     Program PWSCF v.6.3 starts on  2Nov2020 at 21:59:12 

     This program is part of the open-source Quantum ESPRESSO suite
     for quantum simulation of materials; please cite
         "P. Giannozzi et al., J. Phys.:Condens. Matter 21 395502 (2009);
         "P. Giannozzi et al., J. Phys.:Condens. Matter 29 465901 (2017);
          URL http://www.quantum-espresso.org", 
     in publications or presentations arising from this work. More details at
     http://www.quantum-espresso.org/quote

     Parallel version (MPI & OpenMP), running on      40 processor cores
     Number of MPI processes:                40
     Threads/MPI process:                     1

     MPI processes distributed on     1 nodes
     R & G space division:  proc/nbgrp/npool/nimage =      40
     Reading input from wd/ec/ec_9_002.in
Warning: card &IONS ignored
Warning: card ION_DYNAMICS = 'BFGS', ignored
Warning: card / ignored
Warning: card &CELL ignored
Warning: card CELL_DYNAMICS = 'BFGS', ignored
Warning: card CELL_FACTOR = 2.0, ignored
Warning: card PRESS = 0.0, ignored
Warning: card / ignored

     Current dimensions of program PWSCF are:
     Max number of different atomic species (ntypx) = 10
     Max number of k-points (npk) =  40000
     Max angular momentum in pseudopotentials (lmaxx) =  3
               file Fe.pbe-spn-kjpaw_psl.1.0.0.UPF: wavefunction(s)  3P 3D renormalized
               file Fe.pbe-spn-kjpaw_psl.1.0.0.UPF: wavefunction(s)  3P 3D renormalized

     Subspace diagonalization in iterative solution of the eigenvalue problem:
     a serial algorithm will be used

     Found symmetry operation: I + (  0.0000  0.0000  0.5000)
     This is a supercell, fractional translations are disabled
 
     Parallelization info
     --------------------
     sticks:   dense  smooth     PW     G-vecs:    dense   smooth      PW
     Min          95      63     17                 4471     2401     355
     Max          96      64     18                 4478     2406     360
     Sum        3833    2537    717               178981    96113   14347
 


     bravais-lattice index     =            0
     lattice parameter (alat)  =      10.5935  a.u.
     unit-cell volume          =    1188.8329 (a.u.)^3
     number of atoms/cell      =           16
     number of atomic types    =            2
     number of electrons       =       256.00
     number of Kohn-Sham states=          154
     kinetic-energy cutoff     =      71.0000  Ry
     charge density cutoff     =     430.0000  Ry
     convergence threshold     =      1.0E-06
     mixing beta               =       0.1000
     number of iterations used =           10  plain     mixing
     Exchange-correlation      = SLA PW PBX PBC ( 1  4  3  4 0 0)

     celldm(1)=  10.593520  celldm(2)=   0.000000  celldm(3)=   0.000000
     celldm(4)=   0.000000  celldm(5)=   0.000000  celldm(6)=   0.000000

     crystal axes: (cart. coord. in units of alat)
               a(1) = (   1.000000   0.000000   0.000000 )  
               a(2) = (   0.000000   1.000667   0.000000 )  
               a(3) = (   0.000000   0.000000   0.999333 )  

     reciprocal axes: (cart. coord. in units 2 pi/alat)
               b(1) = (  1.000000  0.000000  0.000000 )  
               b(2) = (  0.000000  0.999334  0.000000 )  
               b(3) = (  0.000000  0.000000  1.000667 )  


     PseudoPot. # 1 for Fe read from file:
     /rds/homes/b/bxp912/pp/Fe.pbe-spn-kjpaw_psl.1.0.0.UPF
     MD5 check sum: 42f43b795421b414b0dc916aa790dbcb
     Pseudo is Projector augmented-wave + core cor, Zval = 16.0
     Generated using "atomic" code by A. Dal Corso v.6.3
     Shape of augmentation charge: PSQ
     Using radial grid of 1191 points,  6 beta functions with: 
                l(1) =   0
                l(2) =   0
                l(3) =   1
                l(4) =   1
                l(5) =   2
                l(6) =   2
     Q(r) pseudized with 0 coefficients 


     PseudoPot. # 2 for Fe read from file:
     /rds/homes/b/bxp912/pp/Fe.pbe-spn-kjpaw_psl.1.0.0.UPF
     MD5 check sum: 42f43b795421b414b0dc916aa790dbcb
     Pseudo is Projector augmented-wave + core cor, Zval = 16.0
     Generated using "atomic" code by A. Dal Corso v.6.3
     Shape of augmentation charge: PSQ
     Using radial grid of 1191 points,  6 beta functions with: 
                l(1) =   0
                l(2) =   0
                l(3) =   1
                l(4) =   1
                l(5) =   2
                l(6) =   2
     Q(r) pseudized with 0 coefficients 


     atomic species   valence    mass     pseudopotential
        Fe1           16.00    55.84500     Fe( 1.00)
        Fe2           16.00    55.84500     Fe( 1.00)

     Starting magnetic structure 
     atomic species   magnetization
        Fe1          0.100
        Fe2          0.100

      8 Sym. Ops., with inversion, found



   Cartesian axes

     site n.     atom                  positions (alat units)
         1           Fe1 tau(   1) = (   0.0000000   0.0000000   0.0000000  )
         2           Fe2 tau(   2) = (   0.2500005   0.2501671   0.2498338  )
         3           Fe1 tau(   3) = (   0.0000000   0.0000000   0.4996667  )
         4           Fe2 tau(   4) = (   0.2500005   0.2501671   0.7494997  )
         5           Fe1 tau(   5) = (   0.0000000   0.5003334   0.0000000  )
         6           Fe2 tau(   6) = (   0.2500005   0.7504997   0.2498338  )
         7           Fe1 tau(   7) = (   0.0000000   0.5003334   0.4996667  )
         8           Fe2 tau(   8) = (   0.2500005   0.7504997   0.7494997  )
         9           Fe1 tau(   9) = (   0.5000001   0.0000000   0.0000000  )
        10           Fe2 tau(  10) = (   0.7499997   0.2501671   0.2498338  )
        11           Fe1 tau(  11) = (   0.5000001   0.0000000   0.4996667  )
        12           Fe2 tau(  12) = (   0.7499997   0.2501671   0.7494997  )
        13           Fe1 tau(  13) = (   0.5000001   0.5003334   0.0000000  )
        14           Fe2 tau(  14) = (   0.7499997   0.7504997   0.2498338  )
        15           Fe1 tau(  15) = (   0.5000001   0.5003334   0.4996667  )
        16           Fe2 tau(  16) = (   0.7499997   0.7504997   0.7494997  )

     number of k points=   125  Marzari-Vanderbilt smearing, width (Ry)=  0.0400

     Number of k-points >= 100: set verbosity='high' to print them.

     Dense  grid:   178981 G-vectors     FFT dimensions: (  72,  72,  72)

     Smooth grid:    96113 G-vectors     FFT dimensions: (  60,  60,  60)

     Estimated max dynamical RAM per process >     215.38 MB

     Estimated total dynamical RAM >       8.41 GB
     Generating pointlists ...
     new r_m :   0.1786 (alat units)  1.8922 (a.u.) for type    1
     new r_m :   0.1786 (alat units)  1.8922 (a.u.) for type    2

     Check: negative/imaginary core charge=   -0.000006    0.000000

     Initial potential from superposition of free atoms

     starting charge  255.99300, renormalised to  256.00000
     Starting wfcs are  160 randomized atomic wfcs
     Checking if some PAW data can be deallocated... 

     total cpu time spent up to now is       23.7 secs

     Self-consistent Calculation

     iteration #  1     ecut=    71.00 Ry     beta= 0.10
     Davidson diagonalization with overlap
     ethr =  1.00E-02,  avg # of iterations =  3.4

     Threshold (ethr) on eigenvalues was too large:
     Diagonalizing with lowered threshold

     Davidson diagonalization with overlap
     ethr =  2.83E-04,  avg # of iterations =  3.4

     total cpu time spent up to now is      210.1 secs

     total energy              =   -5268.17616758 Ry
     Harris-Foulkes estimate   =   -5268.32788050 Ry
     estimated scf accuracy    <       0.82065183 Ry

     total magnetization       =    28.04 Bohr mag/cell
     absolute magnetization    =    28.41 Bohr mag/cell

     iteration #  2     ecut=    71.00 Ry     beta= 0.10
     Davidson diagonalization with overlap
     ethr =  3.21E-04,  avg # of iterations =  1.0

     total cpu time spent up to now is      266.3 secs

     total energy              =   -5268.07015668 Ry
     Harris-Foulkes estimate   =   -5268.19496206 Ry
     estimated scf accuracy    <       0.49798620 Ry

     total magnetization       =    28.67 Bohr mag/cell
     absolute magnetization    =    28.96 Bohr mag/cell

     iteration #  3     ecut=    71.00 Ry     beta= 0.10
     Davidson diagonalization with overlap
     ethr =  1.95E-04,  avg # of iterations =  2.5

     total cpu time spent up to now is      341.6 secs

     total energy              =   -5268.03732989 Ry
     Harris-Foulkes estimate   =   -5268.11694070 Ry
     estimated scf accuracy    <       0.57717933 Ry

     total magnetization       =    29.37 Bohr mag/cell
     absolute magnetization    =    29.71 Bohr mag/cell

     iteration #  4     ecut=    71.00 Ry     beta= 0.10
     Davidson diagonalization with overlap
     ethr =  1.95E-04,  avg # of iterations =  2.1

     total cpu time spent up to now is      410.0 secs

     total energy              =   -5268.06930277 Ry
     Harris-Foulkes estimate   =   -5268.07318356 Ry
     estimated scf accuracy    <       0.17985118 Ry

     total magnetization       =    30.20 Bohr mag/cell
     absolute magnetization    =    30.58 Bohr mag/cell

     iteration #  5     ecut=    71.00 Ry     beta= 0.10
     Davidson diagonalization with overlap
     ethr =  7.03E-05,  avg # of iterations =  1.3

     total cpu time spent up to now is      468.9 secs

     total energy              =   -5268.08820500 Ry
     Harris-Foulkes estimate   =   -5268.07357604 Ry
     estimated scf accuracy    <       0.11152186 Ry

     total magnetization       =    30.30 Bohr mag/cell
     absolute magnetization    =    30.69 Bohr mag/cell

     iteration #  6     ecut=    71.00 Ry     beta= 0.10
     Davidson diagonalization with overlap
     ethr =  4.36E-05,  avg # of iterations =  3.3

     total cpu time spent up to now is      572.1 secs

     total energy              =   -5268.14460241 Ry
     Harris-Foulkes estimate   =   -5268.12703057 Ry
     estimated scf accuracy    <       0.13296165 Ry

     total magnetization       =    30.92 Bohr mag/cell
     absolute magnetization    =    31.63 Bohr mag/cell

     iteration #  7     ecut=    71.00 Ry     beta= 0.10
     Davidson diagonalization with overlap
     ethr =  4.36E-05,  avg # of iterations =  2.0

     total cpu time spent up to now is      643.3 secs

     total energy              =   -5268.15353062 Ry
     Harris-Foulkes estimate   =   -5268.15252578 Ry
     estimated scf accuracy    <       0.09888036 Ry

     total magnetization       =    31.45 Bohr mag/cell
     absolute magnetization    =    32.36 Bohr mag/cell

     iteration #  8     ecut=    71.00 Ry     beta= 0.10
     Davidson diagonalization with overlap
     ethr =  3.86E-05,  avg # of iterations =  1.0

     negative rho (up, down):  0.000E+00 1.938E-03

     total cpu time spent up to now is      698.8 secs

     total energy              =   -5268.17025724 Ry
     Harris-Foulkes estimate   =   -5268.15494251 Ry
     estimated scf accuracy    <       0.07630749 Ry

     total magnetization       =    31.61 Bohr mag/cell
     absolute magnetization    =    32.58 Bohr mag/cell

     iteration #  9     ecut=    71.00 Ry     beta= 0.10
     Davidson diagonalization with overlap
     ethr =  2.98E-05,  avg # of iterations =  2.7

     negative rho (up, down):  0.000E+00 2.181E-03

     total cpu time spent up to now is      789.7 secs

     total energy              =   -5268.18971432 Ry
     Harris-Foulkes estimate   =   -5268.18911796 Ry
     estimated scf accuracy    <       0.02606226 Ry

     total magnetization       =    32.39 Bohr mag/cell
     absolute magnetization    =    33.82 Bohr mag/cell

     iteration # 10     ecut=    71.00 Ry     beta= 0.10
     Davidson diagonalization with overlap
     ethr =  1.02E-05,  avg # of iterations =  1.2

     negative rho (up, down):  0.000E+00 2.515E-03

     total cpu time spent up to now is      847.5 secs

     total energy              =   -5268.18819321 Ry
     Harris-Foulkes estimate   =   -5268.19011704 Ry
     estimated scf accuracy    <       0.01457846 Ry

     total magnetization       =    32.49 Bohr mag/cell
     absolute magnetization    =    33.97 Bohr mag/cell

     iteration # 11     ecut=    71.00 Ry     beta= 0.10
     Davidson diagonalization with overlap
     ethr =  5.69E-06,  avg # of iterations =  2.2

     negative rho (up, down):  0.000E+00 2.563E-03

     total cpu time spent up to now is      920.6 secs

     total energy              =   -5268.18878152 Ry
     Harris-Foulkes estimate   =   -5268.18901418 Ry
     estimated scf accuracy    <       0.00178127 Ry

     total magnetization       =    32.65 Bohr mag/cell
     absolute magnetization    =    34.26 Bohr mag/cell

     iteration # 12     ecut=    71.00 Ry     beta= 0.10
     Davidson diagonalization with overlap
     ethr =  6.96E-07,  avg # of iterations =  2.7

     negative rho (up, down):  0.000E+00 2.573E-03

     total cpu time spent up to now is      999.8 secs

     total energy              =   -5268.18902137 Ry
     Harris-Foulkes estimate   =   -5268.18890136 Ry
     estimated scf accuracy    <       0.00078958 Ry

     total magnetization       =    32.70 Bohr mag/cell
     absolute magnetization    =    34.34 Bohr mag/cell

     iteration # 13     ecut=    71.00 Ry     beta= 0.10
     Davidson diagonalization with overlap
     ethr =  3.08E-07,  avg # of iterations =  2.3

     negative rho (up, down):  0.000E+00 2.546E-03

     total cpu time spent up to now is     1073.9 secs

     total energy              =   -5268.18900951 Ry
     Harris-Foulkes estimate   =   -5268.18911365 Ry
     estimated scf accuracy    <       0.00126101 Ry

     total magnetization       =    32.75 Bohr mag/cell
     absolute magnetization    =    34.43 Bohr mag/cell

     iteration # 14     ecut=    71.00 Ry     beta= 0.10
     Davidson diagonalization with overlap
     ethr =  3.08E-07,  avg # of iterations =  2.6

     negative rho (up, down):  0.000E+00 2.492E-03

     total cpu time spent up to now is     1155.6 secs

     total energy              =   -5268.18926958 Ry
     Harris-Foulkes estimate   =   -5268.18915263 Ry
     estimated scf accuracy    <       0.00060155 Ry

     total magnetization       =    32.78 Bohr mag/cell
     absolute magnetization    =    34.51 Bohr mag/cell

     iteration # 15     ecut=    71.00 Ry     beta= 0.10
     Davidson diagonalization with overlap
     ethr =  2.35E-07,  avg # of iterations =  1.4

     negative rho (up, down):  0.000E+00 2.481E-03

     total cpu time spent up to now is     1216.4 secs

     total energy              =   -5268.18935461 Ry
     Harris-Foulkes estimate   =   -5268.18930347 Ry
     estimated scf accuracy    <       0.00016763 Ry

     total magnetization       =    32.80 Bohr mag/cell
     absolute magnetization    =    34.52 Bohr mag/cell

     iteration # 16     ecut=    71.00 Ry     beta= 0.10
     Davidson diagonalization with overlap
     ethr =  6.55E-08,  avg # of iterations =  2.4

     negative rho (up, down):  0.000E+00 2.458E-03

     total cpu time spent up to now is     1290.9 secs

     total energy              =   -5268.18941117 Ry
     Harris-Foulkes estimate   =   -5268.18936782 Ry
     estimated scf accuracy    <       0.00010567 Ry

     total magnetization       =    32.82 Bohr mag/cell
     absolute magnetization    =    34.55 Bohr mag/cell

     iteration # 17     ecut=    71.00 Ry     beta= 0.10
     Davidson diagonalization with overlap
     ethr =  4.13E-08,  avg # of iterations =  2.2

     negative rho (up, down):  0.000E+00 2.393E-03

     total cpu time spent up to now is     1364.3 secs

     total energy              =   -5268.18944088 Ry
     Harris-Foulkes estimate   =   -5268.18942089 Ry
     estimated scf accuracy    <       0.00006961 Ry

     total magnetization       =    32.84 Bohr mag/cell
     absolute magnetization    =    34.58 Bohr mag/cell

     iteration # 18     ecut=    71.00 Ry     beta= 0.10
     Davidson diagonalization with overlap
     ethr =  2.72E-08,  avg # of iterations =  2.4

     negative rho (up, down):  0.000E+00 2.451E-03

     total cpu time spent up to now is     1446.0 secs

     total energy              =   -5268.18945960 Ry
     Harris-Foulkes estimate   =   -5268.18945919 Ry
     estimated scf accuracy    <       0.00004579 Ry

     total magnetization       =    32.85 Bohr mag/cell
     absolute magnetization    =    34.59 Bohr mag/cell

     iteration # 19     ecut=    71.00 Ry     beta= 0.10
     Davidson diagonalization with overlap
     ethr =  1.79E-08,  avg # of iterations =  2.8

     negative rho (up, down):  0.000E+00 2.459E-03

     total cpu time spent up to now is     1531.8 secs

     total energy              =   -5268.18947105 Ry
     Harris-Foulkes estimate   =   -5268.18946966 Ry
     estimated scf accuracy    <       0.00001687 Ry

     total magnetization       =    32.87 Bohr mag/cell
     absolute magnetization    =    34.64 Bohr mag/cell

     iteration # 20     ecut=    71.00 Ry     beta= 0.10
     Davidson diagonalization with overlap
     ethr =  6.59E-09,  avg # of iterations =  1.8

     negative rho (up, down):  0.000E+00 2.468E-03

     total cpu time spent up to now is     1597.4 secs

     total energy              =   -5268.18947508 Ry
     Harris-Foulkes estimate   =   -5268.18947185 Ry
     estimated scf accuracy    <       0.00001113 Ry

     total magnetization       =    32.88 Bohr mag/cell
     absolute magnetization    =    34.65 Bohr mag/cell

     iteration # 21     ecut=    71.00 Ry     beta= 0.10
     Davidson diagonalization with overlap
     ethr =  4.35E-09,  avg # of iterations =  1.3

     negative rho (up, down):  0.000E+00 2.454E-03

     total cpu time spent up to now is     1656.4 secs

     total energy              =   -5268.18947820 Ry
     Harris-Foulkes estimate   =   -5268.18947580 Ry
     estimated scf accuracy    <       0.00000802 Ry

     total magnetization       =    32.89 Bohr mag/cell
     absolute magnetization    =    34.66 Bohr mag/cell

     iteration # 22     ecut=    71.00 Ry     beta= 0.10
     Davidson diagonalization with overlap
     ethr =  3.13E-09,  avg # of iterations =  2.8

     negative rho (up, down):  0.000E+00 2.454E-03

     total cpu time spent up to now is     1743.0 secs

     total energy              =   -5268.18948131 Ry
     Harris-Foulkes estimate   =   -5268.18948064 Ry
     estimated scf accuracy    <       0.00000309 Ry

     total magnetization       =    32.90 Bohr mag/cell
     absolute magnetization    =    34.66 Bohr mag/cell

     iteration # 23     ecut=    71.00 Ry     beta= 0.10
     Davidson diagonalization with overlap
     ethr =  1.21E-09,  avg # of iterations =  1.1

     negative rho (up, down):  0.000E+00 2.467E-03
 
     Magnetic moment per site:
     atom:    1    charge:   14.3666    magn:    2.0993    constr:    0.0000
     atom:    2    charge:   14.3663    magn:    2.1017    constr:    0.0000
     atom:    3    charge:   14.3665    magn:    2.1000    constr:    0.0000
     atom:    4    charge:   14.3663    magn:    2.1017    constr:    0.0000
     atom:    5    charge:   14.3664    magn:    2.1001    constr:    0.0000
     atom:    6    charge:   14.3663    magn:    2.1017    constr:    0.0000
     atom:    7    charge:   14.3665    magn:    2.1003    constr:    0.0000
     atom:    8    charge:   14.3663    magn:    2.1017    constr:    0.0000
     atom:    9    charge:   14.3662    magn:    2.0983    constr:    0.0000
     atom:   10    charge:   14.3663    magn:    2.1017    constr:    0.0000
     atom:   11    charge:   14.3665    magn:    2.0986    constr:    0.0000
     atom:   12    charge:   14.3663    magn:    2.1017    constr:    0.0000
     atom:   13    charge:   14.3664    magn:    2.0988    constr:    0.0000
     atom:   14    charge:   14.3663    magn:    2.1017    constr:    0.0000
     atom:   15    charge:   14.3664    magn:    2.0993    constr:    0.0000
     atom:   16    charge:   14.3663    magn:    2.1017    constr:    0.0000

     total cpu time spent up to now is     1798.6 secs

     End of self-consistent calculation

     Number of k-points >= 100: set verbosity='high' to print the bands.

     the Fermi energy is    18.9743 ev

!    total energy              =   -5268.18948380 Ry
     Harris-Foulkes estimate   =   -5268.18948150 Ry
     estimated scf accuracy    <       0.00000097 Ry

     total all-electron energy =    -40728.934013 Ry

     The total energy is the sum of the following terms:

     one-electron contribution =   -1707.42700810 Ry
     hartree contribution      =    1022.27379690 Ry
     xc contribution           =    -444.25947311 Ry
     ewald contribution        =   -2814.22991436 Ry
     one-center paw contrib.   =   -1324.67104494 Ry
     smearing contrib. (-TS)   =       0.12415981 Ry

     total magnetization       =    32.90 Bohr mag/cell
     absolute magnetization    =    34.66 Bohr mag/cell

     convergence has been achieved in  23 iterations

     negative rho (up, down):  0.000E+00 2.467E-03

     Forces acting on atoms (cartesian axes, Ry/au):

     atom    1 type  1   force =     0.00000000    0.00000000    0.00000000
     atom    2 type  2   force =    -0.00000495    0.00018877    0.00002602
     atom    3 type  1   force =     0.00000000    0.00000000    0.00000000
     atom    4 type  2   force =    -0.00000495    0.00018877   -0.00002602
     atom    5 type  1   force =     0.00000000    0.00000000    0.00000000
     atom    6 type  2   force =    -0.00000495   -0.00018877    0.00002602
     atom    7 type  1   force =     0.00000000    0.00000000    0.00000000
     atom    8 type  2   force =    -0.00000495   -0.00018877   -0.00002602
     atom    9 type  1   force =     0.00000000    0.00000000    0.00000000
     atom   10 type  2   force =     0.00000495    0.00018877    0.00002602
     atom   11 type  1   force =     0.00000000    0.00000000    0.00000000
     atom   12 type  2   force =     0.00000495    0.00018877   -0.00002602
     atom   13 type  1   force =     0.00000000    0.00000000    0.00000000
     atom   14 type  2   force =     0.00000495   -0.00018877    0.00002602
     atom   15 type  1   force =     0.00000000    0.00000000    0.00000000
     atom   16 type  2   force =     0.00000495   -0.00018877   -0.00002602

     Total force =     0.000539     Total SCF correction =     0.006163
     SCF correction compared to forces is large: reduce conv_thr to get better values


     Computing stress (Cartesian axis) and pressure


     negative rho (up, down):  0.000E+00 2.467E-03
          total   stress  (Ry/bohr**3)                   (kbar)     P=   -3.31
  -0.00002256   0.00000000   0.00000000         -3.32      0.00      0.00
   0.00000000  -0.00002854   0.00000000          0.00     -4.20      0.00
   0.00000000   0.00000000  -0.00001633          0.00      0.00     -2.40


     Writing output data file BFaEVrWqGssUNTbO.save/
 
     init_run     :     21.42s CPU     22.38s WALL (       1 calls)
     electrons    :   1721.34s CPU   1774.92s WALL (       1 calls)
     forces       :      7.45s CPU      8.16s WALL (       1 calls)
     stress       :     20.96s CPU     21.18s WALL (       1 calls)

     Called by init_run:
     wfcinit      :     21.00s CPU     21.83s WALL (       1 calls)
     potinit      :      0.21s CPU      0.23s WALL (       1 calls)
     hinit0       :      0.12s CPU      0.13s WALL (       1 calls)

     Called by electrons:
     c_bands      :   1548.88s CPU   1593.62s WALL (      24 calls)
     sum_band     :    167.64s CPU    175.91s WALL (      24 calls)
     v_of_rho     :      0.36s CPU      0.36s WALL (      24 calls)
     newd         :      0.74s CPU      0.96s WALL (      24 calls)
     PAW_pot      :      3.62s CPU      3.88s WALL (      24 calls)
     mix_rho      :      0.14s CPU      0.15s WALL (      24 calls)

     Called by c_bands:
     init_us_2    :      8.62s CPU      8.74s WALL (   12750 calls)
     cegterg      :   1505.64s CPU   1549.86s WALL (    6000 calls)

     Called by sum_band:
     sum_band:bec :      2.33s CPU      2.36s WALL (    6000 calls)
     addusdens    :      1.26s CPU      1.45s WALL (      24 calls)

     Called by *egterg:
     h_psi        :    654.39s CPU    681.53s WALL (   19192 calls)
     s_psi        :     34.56s CPU     34.78s WALL (   19192 calls)
     g_psi        :      1.41s CPU      1.43s WALL (   12942 calls)
     cdiaghg      :    664.98s CPU    667.06s WALL (   18692 calls)

     Called by h_psi:
     h_psi:pot    :    650.46s CPU    677.55s WALL (   19192 calls)
     h_psi:calbec :     53.63s CPU     62.06s WALL (   19192 calls)
     vloc_psi     :    561.46s CPU    579.91s WALL (   19192 calls)
     add_vuspsi   :     35.21s CPU     35.46s WALL (   19192 calls)

     General routines
     calbec       :     82.70s CPU     95.87s WALL (   26442 calls)
     fft          :      0.39s CPU      0.42s WALL (     642 calls)
     ffts         :      0.07s CPU      0.25s WALL (      96 calls)
     fftw         :    656.76s CPU    677.98s WALL ( 4982182 calls)
     interpolate  :      0.08s CPU      0.16s WALL (      48 calls)
 
     Parallel routines
     fft_scatt_xy :     42.51s CPU     43.86s WALL ( 4982920 calls)
     fft_scatt_yz :    444.47s CPU    459.20s WALL ( 4982920 calls)
 
     PWSCF        : 29m45.98s CPU    31m30.00s WALL

 
   This run was terminated on:  22:30:42   2Nov2020            

=------------------------------------------------------------------------------=
   JOB DONE.
=------------------------------------------------------------------------------=
