--------------------------------------------------------------------------
WARNING: There was an error initializing an OpenFabrics device.

  Local host:   bear-pg0211u03b
  Local device: mlx5_0
--------------------------------------------------------------------------

     Program PWSCF v.6.3 starts on  2Aug2020 at  2:23: 8 

     This program is part of the open-source Quantum ESPRESSO suite
     for quantum simulation of materials; please cite
         "P. Giannozzi et al., J. Phys.:Condens. Matter 21 395502 (2009);
         "P. Giannozzi et al., J. Phys.:Condens. Matter 29 465901 (2017);
          URL http://www.quantum-espresso.org", 
     in publications or presentations arising from this work. More details at
     http://www.quantum-espresso.org/quote

     Parallel version (MPI & OpenMP), running on      40 processor cores
     Number of MPI processes:                40
     Threads/MPI process:                     1

     MPI processes distributed on     1 nodes
     R & G space division:  proc/nbgrp/npool/nimage =      40
     Reading input from wd/configs/1/config_0001.in
Warning: card &IONS ignored
Warning: card ION_DYNAMICS = 'BFGS', ignored
Warning: card / ignored
Warning: card &CELL ignored
Warning: card CELL_DYNAMICS = 'BFGS', ignored
Warning: card CELL_FACTOR = 2.0, ignored
Warning: card PRESS = 0.0, ignored
Warning: card / ignored

     Current dimensions of program PWSCF are:
     Max number of different atomic species (ntypx) = 10
     Max number of k-points (npk) =  40000
     Max angular momentum in pseudopotentials (lmaxx) =  3
               file Pd.pbe-spn-kjpaw_psl.1.0.0.UPF: wavefunction(s)  4S 5S 4D renormalized
               file Fe.pbe-spn-kjpaw_psl.1.0.0.UPF: wavefunction(s)  3P 3D renormalized
               file Fe.pbe-spn-kjpaw_psl.1.0.0.UPF: wavefunction(s)  3P 3D renormalized
               file Fe.pbe-spn-kjpaw_psl.1.0.0.UPF: wavefunction(s)  3P 3D renormalized
               file Fe.pbe-spn-kjpaw_psl.1.0.0.UPF: wavefunction(s)  3P 3D renormalized

     Subspace diagonalization in iterative solution of the eigenvalue problem:
     a serial algorithm will be used

 
     Parallelization info
     --------------------
     sticks:   dense  smooth     PW     G-vecs:    dense   smooth      PW
     Min         152     100     27                 8738     4696     677
     Max         153     101     28                 8743     4701     682
     Sum        6111    4021   1119               349643   187905   27183
 


     bravais-lattice index     =            0
     lattice parameter (alat)  =      13.0142  a.u.
     unit-cell volume          =    2323.5072 (a.u.)^3
     number of atoms/cell      =           32
     number of atomic types    =            5
     number of electrons       =       514.00
     number of Kohn-Sham states=          308
     kinetic-energy cutoff     =      71.0000  Ry
     charge density cutoff     =     430.0000  Ry
     convergence threshold     =      1.0E-06
     mixing beta               =       0.1000
     number of iterations used =           10  plain     mixing
     Exchange-correlation      = SLA PW PBX PBC ( 1  4  3  4 0 0)

     celldm(1)=  13.014207  celldm(2)=   0.000000  celldm(3)=   0.000000
     celldm(4)=   0.000000  celldm(5)=   0.000000  celldm(6)=   0.000000

     crystal axes: (cart. coord. in units of alat)
               a(1) = (   1.000000   0.000000   0.000000 )  
               a(2) = (   0.000000   1.054129   0.000000 )  
               a(3) = (   0.000000   0.000000   0.999993 )  

     reciprocal axes: (cart. coord. in units 2 pi/alat)
               b(1) = (  1.000000  0.000000  0.000000 )  
               b(2) = (  0.000000  0.948650  0.000000 )  
               b(3) = (  0.000000  0.000000  1.000007 )  


     PseudoPot. # 1 for Pd read from file:
     /rds/homes/b/bxp912/pp/Pd.pbe-spn-kjpaw_psl.1.0.0.UPF
     MD5 check sum: 790f2ebce206edfd9790dcb9844eca51
     Pseudo is Projector augmented-wave + core cor, Zval = 18.0
     Generated using "atomic" code by A. Dal Corso v.6.3
     Shape of augmentation charge: PSQ
     Using radial grid of 1235 points,  6 beta functions with: 
                l(1) =   0
                l(2) =   0
                l(3) =   1
                l(4) =   1
                l(5) =   2
                l(6) =   2
     Q(r) pseudized with 0 coefficients 


     PseudoPot. # 2 for Fe read from file:
     /rds/homes/b/bxp912/pp/Fe.pbe-spn-kjpaw_psl.1.0.0.UPF
     MD5 check sum: 42f43b795421b414b0dc916aa790dbcb
     Pseudo is Projector augmented-wave + core cor, Zval = 16.0
     Generated using "atomic" code by A. Dal Corso v.6.3
     Shape of augmentation charge: PSQ
     Using radial grid of 1191 points,  6 beta functions with: 
                l(1) =   0
                l(2) =   0
                l(3) =   1
                l(4) =   1
                l(5) =   2
                l(6) =   2
     Q(r) pseudized with 0 coefficients 


     PseudoPot. # 3 for Fe read from file:
     /rds/homes/b/bxp912/pp/Fe.pbe-spn-kjpaw_psl.1.0.0.UPF
     MD5 check sum: 42f43b795421b414b0dc916aa790dbcb
     Pseudo is Projector augmented-wave + core cor, Zval = 16.0
     Generated using "atomic" code by A. Dal Corso v.6.3
     Shape of augmentation charge: PSQ
     Using radial grid of 1191 points,  6 beta functions with: 
                l(1) =   0
                l(2) =   0
                l(3) =   1
                l(4) =   1
                l(5) =   2
                l(6) =   2
     Q(r) pseudized with 0 coefficients 


     PseudoPot. # 4 for Fe read from file:
     /rds/homes/b/bxp912/pp/Fe.pbe-spn-kjpaw_psl.1.0.0.UPF
     MD5 check sum: 42f43b795421b414b0dc916aa790dbcb
     Pseudo is Projector augmented-wave + core cor, Zval = 16.0
     Generated using "atomic" code by A. Dal Corso v.6.3
     Shape of augmentation charge: PSQ
     Using radial grid of 1191 points,  6 beta functions with: 
                l(1) =   0
                l(2) =   0
                l(3) =   1
                l(4) =   1
                l(5) =   2
                l(6) =   2
     Q(r) pseudized with 0 coefficients 


     PseudoPot. # 5 for Fe read from file:
     /rds/homes/b/bxp912/pp/Fe.pbe-spn-kjpaw_psl.1.0.0.UPF
     MD5 check sum: 42f43b795421b414b0dc916aa790dbcb
     Pseudo is Projector augmented-wave + core cor, Zval = 16.0
     Generated using "atomic" code by A. Dal Corso v.6.3
     Shape of augmentation charge: PSQ
     Using radial grid of 1191 points,  6 beta functions with: 
                l(1) =   0
                l(2) =   0
                l(3) =   1
                l(4) =   1
                l(5) =   2
                l(6) =   2
     Q(r) pseudized with 0 coefficients 


     atomic species   valence    mass     pseudopotential
        Pd            18.00   106.42000     Pd( 1.00)
        Fe1           16.00    55.84500     Fe( 1.00)
        Fe2           16.00    55.84500     Fe( 1.00)
        Fe3           16.00    55.84500     Fe( 1.00)
        Fe4           16.00    55.84500     Fe( 1.00)

     Starting magnetic structure 
     atomic species   magnetization
        Pd          -0.080
        Fe1          1.000
        Fe2         -1.000
        Fe3          1.000
        Fe4         -1.000

     No symmetry found



   Cartesian axes

     site n.     atom                  positions (alat units)
         1           Pd  tau(   1) = (  -0.0008451  -0.0007461  -0.0006087  )
         2           Fe  tau(   2) = (   0.2546027   0.2676859  -0.0006034  )
         3           Fe  tau(   3) = (   0.2560732  -0.0006968   0.2569751  )
         4           Fe  tau(   4) = (  -0.0008153   0.2686352   0.2548389  )
         5           Fe  tau(   5) = (  -0.0001681  -0.0001767   0.4989488  )
         6           Fe  tau(   6) = (   0.2499880   0.2631770   0.4992365  )
         7           Fe  tau(   7) = (   0.2563563  -0.0004073   0.7419108  )
         8           Fe  tau(   8) = (  -0.0006395   0.2683886   0.7445404  )
         9           Fe  tau(   9) = (  -0.0002111   0.5265494  -0.0008046  )
        10           Fe  tau(  10) = (   0.2547435   0.7848747   0.0001829  )
        11           Fe  tau(  11) = (   0.2504750   0.5265519   0.2506185  )
        12           Fe  tau(  12) = (  -0.0006784   0.7845779   0.2544673  )
        13           Fe  tau(  13) = (  -0.0005099   0.5266629   0.4994604  )
        14           Fe  tau(  14) = (   0.2496233   0.7891714   0.4989245  )
        15           Fe  tau(  15) = (   0.2508211   0.5258021   0.7477134  )
        16           Fe  tau(  16) = (  -0.0015382   0.7837800   0.7440313  )
        17           Fe  tau(  17) = (   0.4997094  -0.0010040  -0.0008593  )
        18           Fe  tau(  18) = (   0.7438411   0.2683526  -0.0013156  )
        19           Fe  tau(  19) = (   0.7413160  -0.0009934   0.2564626  )
        20           Fe  tau(  20) = (   0.4991731   0.2634866   0.2493026  )
        21           Fe  tau(  21) = (   0.4990463  -0.0000809   0.4991637  )
        22           Fe  tau(  22) = (   0.7489154   0.2628561   0.4991161  )
        23           Fe  tau(  23) = (   0.7422556  -0.0009295   0.7422338  )
        24           Fe  tau(  24) = (   0.4992581   0.2633107   0.7487455  )
        25           Fe  tau(  25) = (   0.4988854   0.5265677  -0.0012829  )
        26           Fe  tau(  26) = (   0.7435125   0.7846908  -0.0001262  )
        27           Fe  tau(  27) = (   0.7486679   0.5258313   0.2499030  )
        28           Fe  tau(  28) = (   0.4994374   0.7885247   0.2501886  )
        29           Fe  tau(  29) = (   0.4984713   0.5265374   0.4993229  )
        30           Fe  tau(  30) = (   0.7491440   0.7889930   0.4988870  )
        31           Fe  tau(  31) = (   0.7483076   0.5263186   0.7487538  )
        32           Fe  tau(  32) = (   0.4992647   0.7888951   0.7485645  )

     number of k points=   365  Marzari-Vanderbilt smearing, width (Ry)=  0.0400

     Number of k-points >= 100: set verbosity='high' to print them.

     Dense  grid:   349643 G-vectors     FFT dimensions: (  90,  96,  90)

     Smooth grid:   187905 G-vectors     FFT dimensions: (  72,  75,  72)

     Estimated max dynamical RAM per process >       2.10 GB

     Estimated total dynamical RAM >      84.06 GB
     Generating pointlists ...
     new r_m :   0.1499 (alat units)  1.9513 (a.u.) for type    1
     new r_m :   0.1415 (alat units)  1.8410 (a.u.) for type    2
     new r_m :   0.1442 (alat units)  1.8770 (a.u.) for type    3
     new r_m :   0.1415 (alat units)  1.8410 (a.u.) for type    4
     new r_m :   0.1442 (alat units)  1.8770 (a.u.) for type    5

     Check: negative/imaginary core charge=   -0.000006    0.000000

     Initial potential from superposition of free atoms

     starting charge  513.98605, renormalised to  514.00000
     Starting wfcs are  320 randomized atomic wfcs
     Checking if some PAW data can be deallocated... 

     total cpu time spent up to now is      248.3 secs

     Self-consistent Calculation

     iteration #  1     ecut=    71.00 Ry     beta= 0.10
     Davidson diagonalization with overlap
     ethr =  1.00E-02,  avg # of iterations =  5.0

     negative rho (up, down):  1.054E+01 9.373E+00

     total cpu time spent up to now is     3306.3 secs

     total energy              =  -10338.01043907 Ry
     Harris-Foulkes estimate   =  -10664.63216609 Ry
     estimated scf accuracy    <   12580.08854470 Ry

     total magnetization       =    -2.52 Bohr mag/cell
     absolute magnetization    =   553.70 Bohr mag/cell

     iteration #  2     ecut=    71.00 Ry     beta= 0.10
     Davidson diagonalization with overlap
     ethr =  1.00E-02,  avg # of iterations =  4.6

     negative rho (up, down):  9.306E+00 1.216E+01

     total cpu time spent up to now is     5442.1 secs

     total energy              =  -10541.44982711 Ry
     Harris-Foulkes estimate   =  -10660.49950524 Ry
     estimated scf accuracy    <    4087.12753570 Ry

     total magnetization       =   -13.32 Bohr mag/cell
     absolute magnetization    =   265.79 Bohr mag/cell

     iteration #  3     ecut=    71.00 Ry     beta= 0.10
     Davidson diagonalization with overlap
     ethr =  1.00E-02,  avg # of iterations =  4.4

     negative rho (up, down):  7.982E+00 1.024E+01

     total cpu time spent up to now is     6936.6 secs

     total energy              =  -10660.31628704 Ry
     Harris-Foulkes estimate   =  -10652.38343749 Ry
     estimated scf accuracy    <     215.74277444 Ry

     total magnetization       =    -3.52 Bohr mag/cell
     absolute magnetization    =   142.42 Bohr mag/cell

     iteration #  4     ecut=    71.00 Ry     beta= 0.10
     Davidson diagonalization with overlap
     ethr =  1.00E-02,  avg # of iterations =  1.0

     negative rho (up, down):  4.957E+00 5.808E+00

     total cpu time spent up to now is     7618.1 secs

     total energy              =  -10679.89920546 Ry
     Harris-Foulkes estimate   =  -10660.78688399 Ry
     estimated scf accuracy    <     176.04301714 Ry

     total magnetization       =    -3.99 Bohr mag/cell
     absolute magnetization    =   139.72 Bohr mag/cell

     iteration #  5     ecut=    71.00 Ry     beta= 0.10
     Davidson diagonalization with overlap
     ethr =  1.00E-02,  avg # of iterations =  2.1

     negative rho (up, down):  2.063E+00 1.936E+00

     total cpu time spent up to now is     8546.3 secs

     total energy              =  -10700.62739300 Ry
     Harris-Foulkes estimate   =  -10681.38823247 Ry
     estimated scf accuracy    <     101.65221581 Ry

     total magnetization       =    -4.67 Bohr mag/cell
     absolute magnetization    =   129.28 Bohr mag/cell

     iteration #  6     ecut=    71.00 Ry     beta= 0.10
     Davidson diagonalization with overlap
     ethr =  1.00E-02,  avg # of iterations =  3.2

     negative rho (up, down):  1.251E+00 1.413E+00

     total cpu time spent up to now is     9774.9 secs

     total energy              =  -10707.39109539 Ry
     Harris-Foulkes estimate   =  -10703.10327765 Ry
     estimated scf accuracy    <      45.36520101 Ry

     total magnetization       =    -6.80 Bohr mag/cell
     absolute magnetization    =   111.53 Bohr mag/cell

     iteration #  7     ecut=    71.00 Ry     beta= 0.10
     Davidson diagonalization with overlap
     ethr =  8.83E-03,  avg # of iterations =  1.5

     negative rho (up, down):  8.046E-02 1.054E+00

     total cpu time spent up to now is    10578.7 secs

     total energy              =  -10714.95873417 Ry
     Harris-Foulkes estimate   =  -10708.37935660 Ry
     estimated scf accuracy    <      25.89375399 Ry

     total magnetization       =    -3.87 Bohr mag/cell
     absolute magnetization    =   106.98 Bohr mag/cell

     iteration #  8     ecut=    71.00 Ry     beta= 0.10
     Davidson diagonalization with overlap
     ethr =  5.04E-03,  avg # of iterations =  2.6

     negative rho (up, down):  3.849E-02 1.209E+00

     total cpu time spent up to now is    11628.6 secs

     total energy              =  -10717.19617533 Ry
     Harris-Foulkes estimate   =  -10716.28814953 Ry
     estimated scf accuracy    <      16.26665619 Ry

     total magnetization       =    -2.91 Bohr mag/cell
     absolute magnetization    =    91.94 Bohr mag/cell

     iteration #  9     ecut=    71.00 Ry     beta= 0.10
     Davidson diagonalization with overlap
     ethr =  3.16E-03,  avg # of iterations =  4.3

     negative rho (up, down):  1.195E-01 1.335E+00

     total cpu time spent up to now is    13054.1 secs

     total energy              =  -10718.02060702 Ry
     Harris-Foulkes estimate   =  -10717.82746235 Ry
     estimated scf accuracy    <      12.87360982 Ry

     total magnetization       =    -2.79 Bohr mag/cell
     absolute magnetization    =    84.40 Bohr mag/cell

     iteration # 10     ecut=    71.00 Ry     beta= 0.10
     Davidson diagonalization with overlap
     ethr =  2.50E-03,  avg # of iterations =  3.2

     negative rho (up, down):  2.071E-01 1.330E+00

     total cpu time spent up to now is    14227.9 secs

     total energy              =  -10718.34966037 Ry
     Harris-Foulkes estimate   =  -10718.39055608 Ry
     estimated scf accuracy    <      12.15630346 Ry

     total magnetization       =    -3.18 Bohr mag/cell
     absolute magnetization    =    76.60 Bohr mag/cell

     iteration # 11     ecut=    71.00 Ry     beta= 0.10
     Davidson diagonalization with overlap
     ethr =  2.37E-03,  avg # of iterations =  2.0

     negative rho (up, down):  2.117E-01 1.256E+00

     total cpu time spent up to now is    15147.3 secs

     total energy              =  -10718.64443787 Ry
     Harris-Foulkes estimate   =  -10718.64220192 Ry
     estimated scf accuracy    <      10.99420774 Ry

     total magnetization       =    -2.15 Bohr mag/cell
     absolute magnetization    =    67.40 Bohr mag/cell

     iteration # 12     ecut=    71.00 Ry     beta= 0.10
     Davidson diagonalization with overlap
     ethr =  2.14E-03,  avg # of iterations =  1.6

     negative rho (up, down):  4.039E-02 7.748E-01

     total cpu time spent up to now is    15970.8 secs

     total energy              =  -10718.30278264 Ry
     Harris-Foulkes estimate   =  -10718.70286372 Ry
     estimated scf accuracy    <       9.73164635 Ry

     total magnetization       =    -2.19 Bohr mag/cell
     absolute magnetization    =    64.65 Bohr mag/cell

     iteration # 13     ecut=    71.00 Ry     beta= 0.10
     Davidson diagonalization with overlap
     ethr =  1.89E-03,  avg # of iterations =  1.3

     negative rho (up, down):  7.954E-04 2.771E-02

     total cpu time spent up to now is    16718.0 secs

     total energy              =  -10718.58449734 Ry
     Harris-Foulkes estimate   =  -10718.43902882 Ry
     estimated scf accuracy    <       5.47679291 Ry

     total magnetization       =    -2.72 Bohr mag/cell
     absolute magnetization    =    72.85 Bohr mag/cell

     iteration # 14     ecut=    71.00 Ry     beta= 0.10
     Davidson diagonalization with overlap
     ethr =  1.07E-03,  avg # of iterations =  2.9

     negative rho (up, down):  4.233E-04 5.919E-03

     total cpu time spent up to now is    17839.2 secs

     total energy              =  -10718.73938377 Ry
     Harris-Foulkes estimate   =  -10718.79083953 Ry
     estimated scf accuracy    <       1.89980372 Ry

     total magnetization       =    -3.17 Bohr mag/cell
     absolute magnetization    =    64.97 Bohr mag/cell

     iteration # 15     ecut=    71.00 Ry     beta= 0.10
     Davidson diagonalization with overlap
     ethr =  3.70E-04,  avg # of iterations =  3.7

     negative rho (up, down):  1.092E-04 1.832E-03

     total cpu time spent up to now is    19140.3 secs

     total energy              =  -10718.83457521 Ry
     Harris-Foulkes estimate   =  -10718.84235639 Ry
     estimated scf accuracy    <       0.88741292 Ry

     total magnetization       =    -2.62 Bohr mag/cell
     absolute magnetization    =    62.52 Bohr mag/cell

     iteration # 16     ecut=    71.00 Ry     beta= 0.10
     Davidson diagonalization with overlap
     ethr =  1.73E-04,  avg # of iterations =  2.0

     negative rho (up, down):  3.000E-05 1.668E-03

     total cpu time spent up to now is    20061.7 secs

     total energy              =  -10718.87246609 Ry
     Harris-Foulkes estimate   =  -10718.87744428 Ry
     estimated scf accuracy    <       0.34734818 Ry

     total magnetization       =    -2.40 Bohr mag/cell
     absolute magnetization    =    60.22 Bohr mag/cell

     iteration # 17     ecut=    71.00 Ry     beta= 0.10
     Davidson diagonalization with overlap
     ethr =  6.76E-05,  avg # of iterations =  1.9

     negative rho (up, down):  2.983E-05 1.140E-03

     total cpu time spent up to now is    20944.8 secs

     total energy              =  -10718.89694142 Ry
     Harris-Foulkes estimate   =  -10718.88284618 Ry
     estimated scf accuracy    <       0.16511613 Ry

     total magnetization       =    -2.41 Bohr mag/cell
     absolute magnetization    =    59.45 Bohr mag/cell

     iteration # 18     ecut=    71.00 Ry     beta= 0.10
     Davidson diagonalization with overlap
     ethr =  3.21E-05,  avg # of iterations =  3.0

     negative rho (up, down):  6.840E-05 7.795E-04

     total cpu time spent up to now is    22085.1 secs

     total energy              =  -10718.91782216 Ry
     Harris-Foulkes estimate   =  -10718.90787845 Ry
     estimated scf accuracy    <       0.11734505 Ry

     total magnetization       =    -2.50 Bohr mag/cell
     absolute magnetization    =    57.55 Bohr mag/cell

     iteration # 19     ecut=    71.00 Ry     beta= 0.10
     Davidson diagonalization with overlap
     ethr =  2.28E-05,  avg # of iterations =  2.5

     negative rho (up, down):  6.205E-05 6.500E-04

     total cpu time spent up to now is    23117.8 secs

     total energy              =  -10718.93174678 Ry
     Harris-Foulkes estimate   =  -10718.92639136 Ry
     estimated scf accuracy    <       0.07410328 Ry

     total magnetization       =    -2.47 Bohr mag/cell
     absolute magnetization    =    55.93 Bohr mag/cell

     iteration # 20     ecut=    71.00 Ry     beta= 0.10
     Davidson diagonalization with overlap
     ethr =  1.44E-05,  avg # of iterations =  1.2

     negative rho (up, down):  4.541E-05 4.435E-04

     total cpu time spent up to now is    23853.0 secs

     total energy              =  -10718.93996486 Ry
     Harris-Foulkes estimate   =  -10718.93365816 Ry
     estimated scf accuracy    <       0.04242809 Ry

     total magnetization       =    -2.39 Bohr mag/cell
     absolute magnetization    =    55.42 Bohr mag/cell

     iteration # 21     ecut=    71.00 Ry     beta= 0.10
     Davidson diagonalization with overlap
     ethr =  8.25E-06,  avg # of iterations =  1.4

     negative rho (up, down):  0.000E+00 8.976E-05

     total cpu time spent up to now is    24633.6 secs

     total energy              =  -10718.94867700 Ry
     Harris-Foulkes estimate   =  -10718.94135744 Ry
     estimated scf accuracy    <       0.03460525 Ry

     total magnetization       =    -2.38 Bohr mag/cell
     absolute magnetization    =    54.71 Bohr mag/cell

     iteration # 22     ecut=    71.00 Ry     beta= 0.10
     Davidson diagonalization with overlap
     ethr =  6.73E-06,  avg # of iterations =  2.7

     negative rho (up, down):  0.000E+00 1.855E-05

     total cpu time spent up to now is    25686.5 secs

     total energy              =  -10718.95661318 Ry
     Harris-Foulkes estimate   =  -10718.95201778 Ry
     estimated scf accuracy    <       0.02943791 Ry

     total magnetization       =    -2.44 Bohr mag/cell
     absolute magnetization    =    53.45 Bohr mag/cell

     iteration # 23     ecut=    71.00 Ry     beta= 0.10
     Davidson diagonalization with overlap
     ethr =  5.73E-06,  avg # of iterations =  1.7

     negative rho (up, down):  0.000E+00 8.141E-06

     total cpu time spent up to now is    26529.6 secs

     total energy              =  -10718.96138015 Ry
     Harris-Foulkes estimate   =  -10718.95845712 Ry
     estimated scf accuracy    <       0.01805561 Ry

     total magnetization       =    -2.40 Bohr mag/cell
     absolute magnetization    =    52.90 Bohr mag/cell

     iteration # 24     ecut=    71.00 Ry     beta= 0.10
     Davidson diagonalization with overlap
     ethr =  3.51E-06,  avg # of iterations =  3.3

     total cpu time spent up to now is    27715.0 secs

     total energy              =  -10718.96490733 Ry
     Harris-Foulkes estimate   =  -10718.96290949 Ry
     estimated scf accuracy    <       0.01283103 Ry

     total magnetization       =    -2.39 Bohr mag/cell
     absolute magnetization    =    52.11 Bohr mag/cell

     iteration # 25     ecut=    71.00 Ry     beta= 0.10
     Davidson diagonalization with overlap
     c_bands:  1 eigenvalues not converged
     c_bands:  1 eigenvalues not converged
     ethr =  2.50E-06,  avg # of iterations =  1.5

     total cpu time spent up to now is    28520.9 secs

     total energy              =  -10718.96659254 Ry
     Harris-Foulkes estimate   =  -10718.96537084 Ry
     estimated scf accuracy    <       0.00794452 Ry

     total magnetization       =    -2.41 Bohr mag/cell
     absolute magnetization    =    51.95 Bohr mag/cell

     iteration # 26     ecut=    71.00 Ry     beta= 0.10
     Davidson diagonalization with overlap
     ethr =  1.55E-06,  avg # of iterations =  1.0

     total cpu time spent up to now is    29221.6 secs

     total energy              =  -10718.96809519 Ry
     Harris-Foulkes estimate   =  -10718.96690423 Ry
     estimated scf accuracy    <       0.00694541 Ry

     total magnetization       =    -2.41 Bohr mag/cell
     absolute magnetization    =    51.93 Bohr mag/cell

     iteration # 27     ecut=    71.00 Ry     beta= 0.10
     Davidson diagonalization with overlap
     ethr =  1.35E-06,  avg # of iterations =  1.0

     total cpu time spent up to now is    29921.3 secs

     total energy              =  -10718.96921700 Ry
     Harris-Foulkes estimate   =  -10718.96836451 Ry
     estimated scf accuracy    <       0.00419950 Ry

     total magnetization       =    -2.42 Bohr mag/cell
     absolute magnetization    =    51.79 Bohr mag/cell

     iteration # 28     ecut=    71.00 Ry     beta= 0.10
     Davidson diagonalization with overlap
     ethr =  8.17E-07,  avg # of iterations =  1.0

     total cpu time spent up to now is    30616.0 secs

     total energy              =  -10718.97021983 Ry
     Harris-Foulkes estimate   =  -10718.96934504 Ry
     estimated scf accuracy    <       0.00290514 Ry

     total magnetization       =    -2.43 Bohr mag/cell
     absolute magnetization    =    51.72 Bohr mag/cell

     iteration # 29     ecut=    71.00 Ry     beta= 0.10
     Davidson diagonalization with overlap
     ethr =  5.65E-07,  avg # of iterations =  1.1

     total cpu time spent up to now is    31333.2 secs

     total energy              =  -10718.97082080 Ry
     Harris-Foulkes estimate   =  -10718.97032544 Ry
     estimated scf accuracy    <       0.00264444 Ry

     total magnetization       =    -2.43 Bohr mag/cell
     absolute magnetization    =    51.55 Bohr mag/cell

     iteration # 30     ecut=    71.00 Ry     beta= 0.10
     Davidson diagonalization with overlap
     ethr =  5.14E-07,  avg # of iterations =  1.0

     total cpu time spent up to now is    32032.6 secs

     total energy              =  -10718.97140254 Ry
     Harris-Foulkes estimate   =  -10718.97089939 Ry
     estimated scf accuracy    <       0.00224561 Ry

     total magnetization       =    -2.43 Bohr mag/cell
     absolute magnetization    =    51.48 Bohr mag/cell

     iteration # 31     ecut=    71.00 Ry     beta= 0.10
     Davidson diagonalization with overlap
     ethr =  4.37E-07,  avg # of iterations =  1.0

     total cpu time spent up to now is    32725.6 secs

     total energy              =  -10718.97206523 Ry
     Harris-Foulkes estimate   =  -10718.97148575 Ry
     estimated scf accuracy    <       0.00246308 Ry

     total magnetization       =    -2.43 Bohr mag/cell
     absolute magnetization    =    51.38 Bohr mag/cell

     iteration # 32     ecut=    71.00 Ry     beta= 0.10
     Davidson diagonalization with overlap
     ethr =  4.37E-07,  avg # of iterations =  1.0

     total cpu time spent up to now is    33428.0 secs

     total energy              =  -10718.97272649 Ry
     Harris-Foulkes estimate   =  -10718.97218870 Ry
     estimated scf accuracy    <       0.00190649 Ry

     total magnetization       =    -2.45 Bohr mag/cell
     absolute magnetization    =    51.17 Bohr mag/cell

     iteration # 33     ecut=    71.00 Ry     beta= 0.10
     Davidson diagonalization with overlap
     ethr =  3.71E-07,  avg # of iterations =  1.2

     total cpu time spent up to now is    34164.3 secs

     total energy              =  -10718.97321709 Ry
     Harris-Foulkes estimate   =  -10718.97283853 Ry
     estimated scf accuracy    <       0.00117810 Ry

     total magnetization       =    -2.45 Bohr mag/cell
     absolute magnetization    =    50.94 Bohr mag/cell

     iteration # 34     ecut=    71.00 Ry     beta= 0.10
     Davidson diagonalization with overlap
     ethr =  2.29E-07,  avg # of iterations =  2.2

     total cpu time spent up to now is    35107.8 secs

     total energy              =  -10718.97353547 Ry
     Harris-Foulkes estimate   =  -10718.97329145 Ry
     estimated scf accuracy    <       0.00117729 Ry

     total magnetization       =    -2.44 Bohr mag/cell
     absolute magnetization    =    50.77 Bohr mag/cell

     iteration # 35     ecut=    71.00 Ry     beta= 0.10
     Davidson diagonalization with overlap
     ethr =  2.29E-07,  avg # of iterations =  1.1

     total cpu time spent up to now is    35819.7 secs

     total energy              =  -10718.97389808 Ry
     Harris-Foulkes estimate   =  -10718.97361013 Ry
     estimated scf accuracy    <       0.00133320 Ry

     total magnetization       =    -2.44 Bohr mag/cell
     absolute magnetization    =    50.65 Bohr mag/cell

     iteration # 36     ecut=    71.00 Ry     beta= 0.10
     Davidson diagonalization with overlap
     ethr =  2.29E-07,  avg # of iterations =  2.2

     total cpu time spent up to now is    36771.7 secs

     total energy              =  -10718.97417448 Ry
     Harris-Foulkes estimate   =  -10718.97402158 Ry
     estimated scf accuracy    <       0.00067815 Ry

     total magnetization       =    -2.45 Bohr mag/cell
     absolute magnetization    =    50.39 Bohr mag/cell

     iteration # 37     ecut=    71.00 Ry     beta= 0.10
     Davidson diagonalization with overlap
     ethr =  1.32E-07,  avg # of iterations =  1.6

     total cpu time spent up to now is    37584.6 secs

     total energy              =  -10718.97435382 Ry
     Harris-Foulkes estimate   =  -10718.97422038 Ry
     estimated scf accuracy    <       0.00052667 Ry

     total magnetization       =    -2.45 Bohr mag/cell
     absolute magnetization    =    50.27 Bohr mag/cell

     iteration # 38     ecut=    71.00 Ry     beta= 0.10
     Davidson diagonalization with overlap
     ethr =  1.02E-07,  avg # of iterations =  2.1

     total cpu time spent up to now is    38522.7 secs

     total energy              =  -10718.97449778 Ry
     Harris-Foulkes estimate   =  -10718.97439969 Ry
     estimated scf accuracy    <       0.00037485 Ry

     total magnetization       =    -2.45 Bohr mag/cell
     absolute magnetization    =    50.13 Bohr mag/cell

     iteration # 39     ecut=    71.00 Ry     beta= 0.10
     Davidson diagonalization with overlap
     ethr =  7.29E-08,  avg # of iterations =  1.1

     total cpu time spent up to now is    39239.8 secs

     total energy              =  -10718.97458918 Ry
     Harris-Foulkes estimate   =  -10718.97451453 Ry
     estimated scf accuracy    <       0.00022729 Ry

     total magnetization       =    -2.45 Bohr mag/cell
     absolute magnetization    =    50.06 Bohr mag/cell

     iteration # 40     ecut=    71.00 Ry     beta= 0.10
     Davidson diagonalization with overlap
     ethr =  4.42E-08,  avg # of iterations =  1.2

     total cpu time spent up to now is    39963.1 secs

     total energy              =  -10718.97466939 Ry
     Harris-Foulkes estimate   =  -10718.97459713 Ry
     estimated scf accuracy    <       0.00020391 Ry

     total magnetization       =    -2.45 Bohr mag/cell
     absolute magnetization    =    50.01 Bohr mag/cell

     iteration # 41     ecut=    71.00 Ry     beta= 0.10
     Davidson diagonalization with overlap
     ethr =  3.97E-08,  avg # of iterations =  1.0

     total cpu time spent up to now is    40663.0 secs

     total energy              =  -10718.97473217 Ry
     Harris-Foulkes estimate   =  -10718.97467910 Ry
     estimated scf accuracy    <       0.00023287 Ry

     total magnetization       =    -2.46 Bohr mag/cell
     absolute magnetization    =    49.97 Bohr mag/cell

     iteration # 42     ecut=    71.00 Ry     beta= 0.10
     Davidson diagonalization with overlap
     ethr =  3.97E-08,  avg # of iterations =  1.0

     total cpu time spent up to now is    41359.4 secs

     total energy              =  -10718.97478663 Ry
     Harris-Foulkes estimate   =  -10718.97474230 Ry
     estimated scf accuracy    <       0.00016642 Ry

     total magnetization       =    -2.46 Bohr mag/cell
     absolute magnetization    =    49.93 Bohr mag/cell

     iteration # 43     ecut=    71.00 Ry     beta= 0.10
     Davidson diagonalization with overlap
     ethr =  3.24E-08,  avg # of iterations =  1.0

     total cpu time spent up to now is    42051.4 secs

     total energy              =  -10718.97483973 Ry
     Harris-Foulkes estimate   =  -10718.97479311 Ry
     estimated scf accuracy    <       0.00016119 Ry

     total magnetization       =    -2.47 Bohr mag/cell
     absolute magnetization    =    49.91 Bohr mag/cell

     iteration # 44     ecut=    71.00 Ry     beta= 0.10
     Davidson diagonalization with overlap
     ethr =  3.14E-08,  avg # of iterations =  1.0

     total cpu time spent up to now is    42747.0 secs

     total energy              =  -10718.97488657 Ry
     Harris-Foulkes estimate   =  -10718.97484614 Ry
     estimated scf accuracy    <       0.00010505 Ry

     total magnetization       =    -2.47 Bohr mag/cell
     absolute magnetization    =    49.88 Bohr mag/cell

     iteration # 45     ecut=    71.00 Ry     beta= 0.10
     Davidson diagonalization with overlap
     ethr =  2.04E-08,  avg # of iterations =  1.0

     total cpu time spent up to now is    43445.4 secs

     total energy              =  -10718.97492525 Ry
     Harris-Foulkes estimate   =  -10718.97489044 Ry
     estimated scf accuracy    <       0.00008609 Ry

     total magnetization       =    -2.47 Bohr mag/cell
     absolute magnetization    =    49.86 Bohr mag/cell

     iteration # 46     ecut=    71.00 Ry     beta= 0.10
     Davidson diagonalization with overlap
     ethr =  1.67E-08,  avg # of iterations =  1.1

     total cpu time spent up to now is    44157.6 secs

     total energy              =  -10718.97496413 Ry
     Harris-Foulkes estimate   =  -10718.97492918 Ry
     estimated scf accuracy    <       0.00009139 Ry

     total magnetization       =    -2.48 Bohr mag/cell
     absolute magnetization    =    49.84 Bohr mag/cell

     iteration # 47     ecut=    71.00 Ry     beta= 0.10
     Davidson diagonalization with overlap
     ethr =  1.67E-08,  avg # of iterations =  1.2

     total cpu time spent up to now is    44892.7 secs

     total energy              =  -10718.97499868 Ry
     Harris-Foulkes estimate   =  -10718.97497151 Ry
     estimated scf accuracy    <       0.00010474 Ry

     total magnetization       =    -2.48 Bohr mag/cell
     absolute magnetization    =    49.81 Bohr mag/cell

     iteration # 48     ecut=    71.00 Ry     beta= 0.10
     Davidson diagonalization with overlap
     ethr =  1.67E-08,  avg # of iterations =  1.1

     total cpu time spent up to now is    45599.1 secs

     total energy              =  -10718.97501685 Ry
     Harris-Foulkes estimate   =  -10718.97500470 Ry
     estimated scf accuracy    <       0.00006645 Ry

     total magnetization       =    -2.49 Bohr mag/cell
     absolute magnetization    =    49.80 Bohr mag/cell

     iteration # 49     ecut=    71.00 Ry     beta= 0.10
     Davidson diagonalization with overlap
     ethr =  1.29E-08,  avg # of iterations =  1.0

     total cpu time spent up to now is    46295.6 secs

     total energy              =  -10718.97504340 Ry
     Harris-Foulkes estimate   =  -10718.97501842 Ry
     estimated scf accuracy    <       0.00006295 Ry

     total magnetization       =    -2.49 Bohr mag/cell
     absolute magnetization    =    49.80 Bohr mag/cell

     iteration # 50     ecut=    71.00 Ry     beta= 0.10
     Davidson diagonalization with overlap
     ethr =  1.22E-08,  avg # of iterations =  1.1

     total cpu time spent up to now is    47009.6 secs

     total energy              =  -10718.97505885 Ry
     Harris-Foulkes estimate   =  -10718.97504883 Ry
     estimated scf accuracy    <       0.00005380 Ry

     total magnetization       =    -2.50 Bohr mag/cell
     absolute magnetization    =    49.78 Bohr mag/cell

     iteration # 51     ecut=    71.00 Ry     beta= 0.10
     Davidson diagonalization with overlap
     ethr =  1.05E-08,  avg # of iterations =  1.0

     total cpu time spent up to now is    47702.7 secs

     total energy              =  -10718.97507812 Ry
     Harris-Foulkes estimate   =  -10718.97506007 Ry
     estimated scf accuracy    <       0.00005014 Ry

     total magnetization       =    -2.50 Bohr mag/cell
     absolute magnetization    =    49.78 Bohr mag/cell

     iteration # 52     ecut=    71.00 Ry     beta= 0.10
     Davidson diagonalization with overlap
     ethr =  9.76E-09,  avg # of iterations =  1.0

     total cpu time spent up to now is    48398.5 secs

     total energy              =  -10718.97510269 Ry
     Harris-Foulkes estimate   =  -10718.97508166 Ry
     estimated scf accuracy    <       0.00004917 Ry

     total magnetization       =    -2.50 Bohr mag/cell
     absolute magnetization    =    49.77 Bohr mag/cell

     iteration # 53     ecut=    71.00 Ry     beta= 0.10
     Davidson diagonalization with overlap
     ethr =  9.57E-09,  avg # of iterations =  2.2

     total cpu time spent up to now is    49365.4 secs

     total energy              =  -10718.97511937 Ry
     Harris-Foulkes estimate   =  -10718.97511137 Ry
     estimated scf accuracy    <       0.00004819 Ry

     total magnetization       =    -2.51 Bohr mag/cell
     absolute magnetization    =    49.76 Bohr mag/cell

     iteration # 54     ecut=    71.00 Ry     beta= 0.10
     Davidson diagonalization with overlap
     ethr =  9.38E-09,  avg # of iterations =  1.0

     total cpu time spent up to now is    50055.6 secs

     total energy              =  -10718.97513424 Ry
     Harris-Foulkes estimate   =  -10718.97512072 Ry
     estimated scf accuracy    <       0.00003783 Ry

     total magnetization       =    -2.52 Bohr mag/cell
     absolute magnetization    =    49.75 Bohr mag/cell

     iteration # 55     ecut=    71.00 Ry     beta= 0.10
     Davidson diagonalization with overlap
     ethr =  7.36E-09,  avg # of iterations =  1.0

     total cpu time spent up to now is    50751.6 secs

     total energy              =  -10718.97514660 Ry
     Harris-Foulkes estimate   =  -10718.97513723 Ry
     estimated scf accuracy    <       0.00003736 Ry

     total magnetization       =    -2.52 Bohr mag/cell
     absolute magnetization    =    49.74 Bohr mag/cell

     iteration # 56     ecut=    71.00 Ry     beta= 0.10
     Davidson diagonalization with overlap
     ethr =  7.27E-09,  avg # of iterations =  1.0

     total cpu time spent up to now is    51444.2 secs

     total energy              =  -10718.97515872 Ry
     Harris-Foulkes estimate   =  -10718.97514826 Ry
     estimated scf accuracy    <       0.00003397 Ry

     total magnetization       =    -2.52 Bohr mag/cell
     absolute magnetization    =    49.74 Bohr mag/cell

     iteration # 57     ecut=    71.00 Ry     beta= 0.10
     Davidson diagonalization with overlap
     ethr =  6.61E-09,  avg # of iterations =  1.0

     total cpu time spent up to now is    52146.2 secs

     total energy              =  -10718.97517591 Ry
     Harris-Foulkes estimate   =  -10718.97516092 Ry
     estimated scf accuracy    <       0.00003038 Ry

     total magnetization       =    -2.53 Bohr mag/cell
     absolute magnetization    =    49.74 Bohr mag/cell

     iteration # 58     ecut=    71.00 Ry     beta= 0.10
     Davidson diagonalization with overlap
     ethr =  5.91E-09,  avg # of iterations =  2.6

     total cpu time spent up to now is    53243.6 secs

     total energy              =  -10718.97519795 Ry
     Harris-Foulkes estimate   =  -10718.97518548 Ry
     estimated scf accuracy    <       0.00002953 Ry

     total magnetization       =    -2.54 Bohr mag/cell
     absolute magnetization    =    49.73 Bohr mag/cell

     iteration # 59     ecut=    71.00 Ry     beta= 0.10
     Davidson diagonalization with overlap
     ethr =  5.74E-09,  avg # of iterations =  2.2

     total cpu time spent up to now is    54223.4 secs

     total energy              =  -10718.97521787 Ry
     Harris-Foulkes estimate   =  -10718.97520954 Ry
     estimated scf accuracy    <       0.00003106 Ry

     total magnetization       =    -2.55 Bohr mag/cell
     absolute magnetization    =    49.71 Bohr mag/cell

     iteration # 60     ecut=    71.00 Ry     beta= 0.10
     Davidson diagonalization with overlap
     ethr =  5.74E-09,  avg # of iterations =  1.1

     total cpu time spent up to now is    54928.8 secs

     total energy              =  -10718.97522728 Ry
     Harris-Foulkes estimate   =  -10718.97522162 Ry
     estimated scf accuracy    <       0.00002108 Ry

     total magnetization       =    -2.55 Bohr mag/cell
     absolute magnetization    =    49.71 Bohr mag/cell

     iteration # 61     ecut=    71.00 Ry     beta= 0.10
     Davidson diagonalization with overlap
     ethr =  4.10E-09,  avg # of iterations =  1.8

     total cpu time spent up to now is    55779.7 secs

     total energy              =  -10718.97523654 Ry
     Harris-Foulkes estimate   =  -10718.97522925 Ry
     estimated scf accuracy    <       0.00002313 Ry

     total magnetization       =    -2.56 Bohr mag/cell
     absolute magnetization    =    49.70 Bohr mag/cell

     iteration # 62     ecut=    71.00 Ry     beta= 0.10
     Davidson diagonalization with overlap
     ethr =  4.10E-09,  avg # of iterations =  2.8

     total cpu time spent up to now is    56927.9 secs

     total energy              =  -10718.97524774 Ry
     Harris-Foulkes estimate   =  -10718.97524470 Ry
     estimated scf accuracy    <       0.00001793 Ry

     total magnetization       =    -2.56 Bohr mag/cell
     absolute magnetization    =    49.69 Bohr mag/cell

     iteration # 63     ecut=    71.00 Ry     beta= 0.10
     Davidson diagonalization with overlap
     ethr =  3.49E-09,  avg # of iterations =  1.0

     total cpu time spent up to now is    57620.3 secs

     total energy              =  -10718.97525417 Ry
     Harris-Foulkes estimate   =  -10718.97524862 Ry
     estimated scf accuracy    <       0.00001805 Ry

     total magnetization       =    -2.57 Bohr mag/cell
     absolute magnetization    =    49.69 Bohr mag/cell

     iteration # 64     ecut=    71.00 Ry     beta= 0.10
     Davidson diagonalization with overlap
     ethr =  3.49E-09,  avg # of iterations =  2.0

     total cpu time spent up to now is    58525.0 secs

     total energy              =  -10718.97526239 Ry
     Harris-Foulkes estimate   =  -10718.97525816 Ry
     estimated scf accuracy    <       0.00001535 Ry

     total magnetization       =    -2.57 Bohr mag/cell
     absolute magnetization    =    49.68 Bohr mag/cell

     iteration # 65     ecut=    71.00 Ry     beta= 0.10
     Davidson diagonalization with overlap
     ethr =  2.99E-09,  avg # of iterations =  3.0

     total cpu time spent up to now is    59801.7 secs

     total energy              =  -10718.97527221 Ry
     Harris-Foulkes estimate   =  -10718.97527175 Ry
     estimated scf accuracy    <       0.00001204 Ry

     total magnetization       =    -2.58 Bohr mag/cell
     absolute magnetization    =    49.67 Bohr mag/cell

     iteration # 66     ecut=    71.00 Ry     beta= 0.10
     Davidson diagonalization with overlap
     ethr =  2.34E-09,  avg # of iterations =  1.0

     total cpu time spent up to now is    60495.3 secs

     total energy              =  -10718.97527627 Ry
     Harris-Foulkes estimate   =  -10718.97527245 Ry
     estimated scf accuracy    <       0.00001228 Ry

     total magnetization       =    -2.58 Bohr mag/cell
     absolute magnetization    =    49.67 Bohr mag/cell

     iteration # 67     ecut=    71.00 Ry     beta= 0.10
     Davidson diagonalization with overlap
     ethr =  2.34E-09,  avg # of iterations =  1.4

     total cpu time spent up to now is    61271.9 secs

     total energy              =  -10718.97528107 Ry
     Harris-Foulkes estimate   =  -10718.97527807 Ry
     estimated scf accuracy    <       0.00001086 Ry

     total magnetization       =    -2.58 Bohr mag/cell
     absolute magnetization    =    49.66 Bohr mag/cell

     iteration # 68     ecut=    71.00 Ry     beta= 0.10
     Davidson diagonalization with overlap
     ethr =  2.11E-09,  avg # of iterations =  1.4

     total cpu time spent up to now is    62055.4 secs

     total energy              =  -10718.97528521 Ry
     Harris-Foulkes estimate   =  -10718.97528226 Ry
     estimated scf accuracy    <       0.00001046 Ry

     total magnetization       =    -2.58 Bohr mag/cell
     absolute magnetization    =    49.66 Bohr mag/cell

     iteration # 69     ecut=    71.00 Ry     beta= 0.10
     Davidson diagonalization with overlap
     ethr =  2.03E-09,  avg # of iterations =  1.5

     total cpu time spent up to now is    62849.9 secs

     total energy              =  -10718.97528947 Ry
     Harris-Foulkes estimate   =  -10718.97528632 Ry
     estimated scf accuracy    <       0.00000897 Ry

     total magnetization       =    -2.59 Bohr mag/cell
     absolute magnetization    =    49.66 Bohr mag/cell

     iteration # 70     ecut=    71.00 Ry     beta= 0.10
     Davidson diagonalization with overlap
     ethr =  1.75E-09,  avg # of iterations =  2.0

     total cpu time spent up to now is    63771.0 secs

     total energy              =  -10718.97529347 Ry
     Harris-Foulkes estimate   =  -10718.97529069 Ry
     estimated scf accuracy    <       0.00000806 Ry

     total magnetization       =    -2.59 Bohr mag/cell
     absolute magnetization    =    49.65 Bohr mag/cell

     iteration # 71     ecut=    71.00 Ry     beta= 0.10
     Davidson diagonalization with overlap
     ethr =  1.57E-09,  avg # of iterations =  1.5

     total cpu time spent up to now is    64573.8 secs

     total energy              =  -10718.97529579 Ry
     Harris-Foulkes estimate   =  -10718.97529448 Ry
     estimated scf accuracy    <       0.00000746 Ry

     total magnetization       =    -2.59 Bohr mag/cell
     absolute magnetization    =    49.65 Bohr mag/cell

     iteration # 72     ecut=    71.00 Ry     beta= 0.10
     Davidson diagonalization with overlap
     ethr =  1.45E-09,  avg # of iterations =  1.0

     total cpu time spent up to now is    65268.4 secs

     total energy              =  -10718.97529848 Ry
     Harris-Foulkes estimate   =  -10718.97529605 Ry
     estimated scf accuracy    <       0.00000672 Ry

     total magnetization       =    -2.59 Bohr mag/cell
     absolute magnetization    =    49.65 Bohr mag/cell

     iteration # 73     ecut=    71.00 Ry     beta= 0.10
     Davidson diagonalization with overlap
     ethr =  1.31E-09,  avg # of iterations =  1.6

     total cpu time spent up to now is    66092.3 secs

     total energy              =  -10718.97530231 Ry
     Harris-Foulkes estimate   =  -10718.97529939 Ry
     estimated scf accuracy    <       0.00000725 Ry

     total magnetization       =    -2.59 Bohr mag/cell
     absolute magnetization    =    49.65 Bohr mag/cell

     iteration # 74     ecut=    71.00 Ry     beta= 0.10
     Davidson diagonalization with overlap
     ethr =  1.31E-09,  avg # of iterations =  2.5

     total cpu time spent up to now is    67165.4 secs

     total energy              =  -10718.97530596 Ry
     Harris-Foulkes estimate   =  -10718.97530432 Ry
     estimated scf accuracy    <       0.00000638 Ry

     total magnetization       =    -2.59 Bohr mag/cell
     absolute magnetization    =    49.65 Bohr mag/cell

     iteration # 75     ecut=    71.00 Ry     beta= 0.10
     Davidson diagonalization with overlap
     ethr =  1.24E-09,  avg # of iterations =  1.0

     total cpu time spent up to now is    67857.4 secs

     total energy              =  -10718.97530898 Ry
     Harris-Foulkes estimate   =  -10718.97530648 Ry
     estimated scf accuracy    <       0.00000652 Ry

     total magnetization       =    -2.59 Bohr mag/cell
     absolute magnetization    =    49.64 Bohr mag/cell

     iteration # 76     ecut=    71.00 Ry     beta= 0.10
     Davidson diagonalization with overlap
     ethr =  1.24E-09,  avg # of iterations =  2.3

     total cpu time spent up to now is    68887.7 secs

     total energy              =  -10718.97531373 Ry
     Harris-Foulkes estimate   =  -10718.97531155 Ry
     estimated scf accuracy    <       0.00000588 Ry

     total magnetization       =    -2.60 Bohr mag/cell
     absolute magnetization    =    49.64 Bohr mag/cell

     iteration # 77     ecut=    71.00 Ry     beta= 0.10
     Davidson diagonalization with overlap
     ethr =  1.14E-09,  avg # of iterations =  1.8

     total cpu time spent up to now is    69758.7 secs

     total energy              =  -10718.97531651 Ry
     Harris-Foulkes estimate   =  -10718.97531526 Ry
     estimated scf accuracy    <       0.00000454 Ry

     total magnetization       =    -2.60 Bohr mag/cell
     absolute magnetization    =    49.64 Bohr mag/cell

     iteration # 78     ecut=    71.00 Ry     beta= 0.10
     Davidson diagonalization with overlap
     ethr =  8.83E-10,  avg # of iterations =  1.5

     total cpu time spent up to now is    70557.6 secs

     total energy              =  -10718.97531836 Ry
     Harris-Foulkes estimate   =  -10718.97531693 Ry
     estimated scf accuracy    <       0.00000560 Ry

     total magnetization       =    -2.60 Bohr mag/cell
     absolute magnetization    =    49.64 Bohr mag/cell

     iteration # 79     ecut=    71.00 Ry     beta= 0.10
     Davidson diagonalization with overlap
     ethr =  8.83E-10,  avg # of iterations =  3.1

     total cpu time spent up to now is    71867.9 secs

     total energy              =  -10718.97532369 Ry
     Harris-Foulkes estimate   =  -10718.97532230 Ry
     estimated scf accuracy    <       0.00000495 Ry

     total magnetization       =    -2.60 Bohr mag/cell
     absolute magnetization    =    49.63 Bohr mag/cell

     iteration # 80     ecut=    71.00 Ry     beta= 0.10
     Davidson diagonalization with overlap
     ethr =  8.83E-10,  avg # of iterations =  2.8

     total cpu time spent up to now is    73040.7 secs

     total energy              =  -10718.97532739 Ry
     Harris-Foulkes estimate   =  -10718.97532642 Ry
     estimated scf accuracy    <       0.00000502 Ry

     total magnetization       =    -2.60 Bohr mag/cell
     absolute magnetization    =    49.63 Bohr mag/cell

     iteration # 81     ecut=    71.00 Ry     beta= 0.10
     Davidson diagonalization with overlap
     ethr =  8.83E-10,  avg # of iterations =  1.1

     total cpu time spent up to now is    73745.0 secs

     total energy              =  -10718.97532783 Ry
     Harris-Foulkes estimate   =  -10718.97532786 Ry
     estimated scf accuracy    <       0.00000322 Ry

     total magnetization       =    -2.60 Bohr mag/cell
     absolute magnetization    =    49.63 Bohr mag/cell

     iteration # 82     ecut=    71.00 Ry     beta= 0.10
     Davidson diagonalization with overlap
     ethr =  6.27E-10,  avg # of iterations =  3.1

     total cpu time spent up to now is    75124.7 secs

     total energy              =  -10718.97533330 Ry
     Harris-Foulkes estimate   =  -10718.97533250 Ry
     estimated scf accuracy    <       0.00000251 Ry

     total magnetization       =    -2.61 Bohr mag/cell
     absolute magnetization    =    49.63 Bohr mag/cell

     iteration # 83     ecut=    71.00 Ry     beta= 0.10
     Davidson diagonalization with overlap
     ethr =  4.88E-10,  avg # of iterations =  2.8

     total cpu time spent up to now is    76314.5 secs

     total energy              =  -10718.97533570 Ry
     Harris-Foulkes estimate   =  -10718.97533497 Ry
     estimated scf accuracy    <       0.00000230 Ry

     total magnetization       =    -2.61 Bohr mag/cell
     absolute magnetization    =    49.62 Bohr mag/cell

     iteration # 84     ecut=    71.00 Ry     beta= 0.10
     Davidson diagonalization with overlap
     ethr =  4.48E-10,  avg # of iterations =  2.2

     total cpu time spent up to now is    77270.3 secs

     total energy              =  -10718.97533362 Ry
     Harris-Foulkes estimate   =  -10718.97533641 Ry
     estimated scf accuracy    <       0.00000251 Ry

     total magnetization       =    -2.61 Bohr mag/cell
     absolute magnetization    =    49.62 Bohr mag/cell

     iteration # 85     ecut=    71.00 Ry     beta= 0.10
     Davidson diagonalization with overlap
     ethr =  4.48E-10,  avg # of iterations =  3.4

     total cpu time spent up to now is    78921.7 secs

     total energy              =  -10718.97534020 Ry
     Harris-Foulkes estimate   =  -10718.97534030 Ry
     estimated scf accuracy    <       0.00000288 Ry

     total magnetization       =    -2.61 Bohr mag/cell
     absolute magnetization    =    49.62 Bohr mag/cell

     iteration # 86     ecut=    71.00 Ry     beta= 0.10
     Davidson diagonalization with overlap
     ethr =  4.48E-10,  avg # of iterations =  2.8

     total cpu time spent up to now is    80134.4 secs

     total energy              =  -10718.97534214 Ry
     Harris-Foulkes estimate   =  -10718.97534193 Ry
     estimated scf accuracy    <       0.00000137 Ry

     total magnetization       =    -2.62 Bohr mag/cell
     absolute magnetization    =    49.61 Bohr mag/cell

     iteration # 87     ecut=    71.00 Ry     beta= 0.10
     Davidson diagonalization with overlap
     ethr =  2.67E-10,  avg # of iterations =  1.0

     total cpu time spent up to now is    80830.6 secs

     total energy              =  -10718.97534241 Ry
     Harris-Foulkes estimate   =  -10718.97534225 Ry
     estimated scf accuracy    <       0.00000170 Ry

     total magnetization       =    -2.62 Bohr mag/cell
     absolute magnetization    =    49.61 Bohr mag/cell

     iteration # 88     ecut=    71.00 Ry     beta= 0.10
     Davidson diagonalization with overlap
     ethr =  2.67E-10,  avg # of iterations =  2.7

     total cpu time spent up to now is    82020.5 secs

     total energy              =  -10718.97534337 Ry
     Harris-Foulkes estimate   =  -10718.97534322 Ry
     estimated scf accuracy    <       0.00000112 Ry

     total magnetization       =    -2.62 Bohr mag/cell
     absolute magnetization    =    49.61 Bohr mag/cell

     iteration # 89     ecut=    71.00 Ry     beta= 0.10
     Davidson diagonalization with overlap
     ethr =  2.19E-10,  avg # of iterations =  2.9
 
     Magnetic moment per site:
     atom:    1    charge:   15.8864    magn:   -0.0810    constr:    0.0000
     atom:    2    charge:   14.3288    magn:   -1.6903    constr:    0.0000
     atom:    3    charge:   14.2137    magn:    1.7434    constr:    0.0000
     atom:    4    charge:   14.3290    magn:   -1.6873    constr:    0.0000
     atom:    5    charge:   14.2264    magn:    1.2855    constr:    0.0000
     atom:    6    charge:   14.3581    magn:   -1.4315    constr:    0.0000
     atom:    7    charge:   14.2113    magn:    1.7575    constr:    0.0000
     atom:    8    charge:   14.3291    magn:   -1.6831    constr:    0.0000
     atom:    9    charge:   14.2257    magn:    1.2127    constr:    0.0000
     atom:   10    charge:   14.3274    magn:   -1.6968    constr:    0.0000
     atom:   11    charge:   14.2297    magn:    1.5515    constr:    0.0000
     atom:   12    charge:   14.3306    magn:   -1.6810    constr:    0.0000
     atom:   13    charge:   14.2480    magn:    1.2266    constr:    0.0000
     atom:   14    charge:   14.3566    magn:   -1.4394    constr:    0.0000
     atom:   15    charge:   14.2288    magn:    1.5618    constr:    0.0000
     atom:   16    charge:   14.3272    magn:   -1.6936    constr:    0.0000
     atom:   17    charge:   14.2264    magn:    1.2816    constr:    0.0000
     atom:   18    charge:   14.3297    magn:   -1.6814    constr:    0.0000
     atom:   19    charge:   14.2128    magn:    1.7445    constr:    0.0000
     atom:   20    charge:   14.3552    magn:   -1.4578    constr:    0.0000
     atom:   21    charge:   14.2631    magn:    1.4033    constr:    0.0000
     atom:   22    charge:   14.3535    magn:   -1.4648    constr:    0.0000
     atom:   23    charge:   14.2115    magn:    1.7510    constr:    0.0000
     atom:   24    charge:   14.3570    magn:   -1.4432    constr:    0.0000
     atom:   25    charge:   14.2483    magn:    1.2257    constr:    0.0000
     atom:   26    charge:   14.3303    magn:   -1.6793    constr:    0.0000
     atom:   27    charge:   14.2272    magn:    1.5571    constr:    0.0000
     atom:   28    charge:   14.3569    magn:   -1.4525    constr:    0.0000
     atom:   29    charge:   14.2287    magn:    1.5158    constr:    0.0000
     atom:   30    charge:   14.3544    magn:   -1.4634    constr:    0.0000
     atom:   31    charge:   14.2280    magn:    1.5555    constr:    0.0000
     atom:   32    charge:   14.3541    magn:   -1.4530    constr:    0.0000

     total cpu time spent up to now is    83223.2 secs

     End of self-consistent calculation

     Number of k-points >= 100: set verbosity='high' to print the bands.

     the Fermi energy is    20.0528 ev

!    total energy              =  -10718.97534432 Ry
     Harris-Foulkes estimate   =  -10718.97534404 Ry
     estimated scf accuracy    <       0.00000093 Ry

     total all-electron energy =    -89004.194548 Ry

     The total energy is the sum of the following terms:

     one-electron contribution =   -3287.22285983 Ry
     hartree contribution      =    1994.62630180 Ry
     xc contribution           =    -890.09507716 Ry
     ewald contribution        =   -5714.30454987 Ry
     one-center paw contrib.   =   -2821.98653756 Ry
     smearing contrib. (-TS)   =       0.00737830 Ry

     total magnetization       =    -2.62 Bohr mag/cell
     absolute magnetization    =    49.61 Bohr mag/cell

     convergence has been achieved in  89 iterations

     Forces acting on atoms (cartesian axes, Ry/au):

     atom    1 type  1   force =    -0.00022941   -0.00016647    0.00007993
     atom    2 type  3   force =    -0.00042896    0.00132563   -0.00030947
     atom    3 type  4   force =     0.00051755   -0.00022488   -0.00259108
     atom    4 type  5   force =     0.00049140   -0.00137372   -0.00133732
     atom    5 type  2   force =    -0.00196858   -0.00146391    0.00103844
     atom    6 type  3   force =    -0.00090159    0.00214939   -0.00016188
     atom    7 type  4   force =    -0.00106161   -0.00127102    0.00170461
     atom    8 type  5   force =    -0.00018312   -0.00032096   -0.00147606
     atom    9 type  2   force =    -0.00114033   -0.00034269    0.00040091
     atom   10 type  3   force =    -0.00052349   -0.00113784   -0.00286729
     atom   11 type  4   force =    -0.00122814   -0.00096753   -0.00133101
     atom   12 type  5   force =    -0.00023637   -0.00039549   -0.00010999
     atom   13 type  2   force =    -0.00097440   -0.00118715   -0.00067889
     atom   14 type  3   force =    -0.00035446   -0.00056658    0.00182482
     atom   15 type  4   force =    -0.00187171    0.00159366    0.00190932
     atom   16 type  5   force =     0.00257363    0.00189551    0.00090881
     atom   17 type  2   force =    -0.00101394    0.00069975    0.00033596
     atom   18 type  3   force =     0.00089187   -0.00031005    0.00130393
     atom   19 type  4   force =     0.00309407    0.00075033   -0.00101687
     atom   20 type  5   force =     0.00044754    0.00097742    0.00084863
     atom   21 type  2   force =     0.00078334   -0.00196203    0.00075385
     atom   22 type  3   force =    -0.00044273    0.00296579    0.00080047
     atom   23 type  4   force =     0.00043315   -0.00005272   -0.00000341
     atom   24 type  5   force =     0.00010767    0.00076381    0.00007272
     atom   25 type  2   force =     0.00093609   -0.00067605    0.00177591
     atom   26 type  3   force =     0.00133118   -0.00134988   -0.00155434
     atom   27 type  4   force =    -0.00057801    0.00083367    0.00023770
     atom   28 type  5   force =    -0.00070200    0.00090723   -0.00054604
     atom   29 type  2   force =     0.00349862   -0.00112548   -0.00030880
     atom   30 type  3   force =    -0.00100486   -0.00035572    0.00118130
     atom   31 type  4   force =    -0.00002345   -0.00013035   -0.00104747
     atom   32 type  5   force =    -0.00023893    0.00051833    0.00016261

     Total force =     0.011843     Total SCF correction =     0.003047
     SCF correction compared to forces is large: reduce conv_thr to get better values


     Computing stress (Cartesian axis) and pressure

          total   stress  (Ry/bohr**3)                   (kbar)     P=    2.34
   0.00001771   0.00000070   0.00000088          2.60      0.10      0.13
   0.00000070   0.00001281  -0.00000118          0.10      1.88     -0.17
   0.00000088  -0.00000118   0.00001713          0.13     -0.17      2.52


     Writing output data file VjnZaKUxotwvsVHT.save/
-------------------------------------------------------
Primary job  terminated normally, but 1 process returned
a non-zero exit code.. Per user-direction, the job has been aborted.
-------------------------------------------------------
--------------------------------------------------------------------------
mpirun detected that one or more processes exited with non-zero status, thus causing
the job to be terminated. The first process to do so was:

  Process name: [[58475,1],0]
  Exit code:    38
--------------------------------------------------------------------------

=------------------------------------------------------------------------------=
   JOB DONE.
=------------------------------------------------------------------------------=
