--------------------------------------------------------------------------
WARNING: No preset parameters were found for the device that Open MPI
detected:

  Local host:            bear-pg0206u36b
  Device name:           mlx5_0
  Device vendor ID:      0x02c9
  Device vendor part ID: 4123

Default device parameters will be used, which may result in lower
performance.  You can edit any of the files specified by the
btl_openib_device_param_files MCA parameter to set values for your
device.

NOTE: You can turn off this warning by setting the MCA parameter
      btl_openib_warn_no_device_params_found to 0.
--------------------------------------------------------------------------
--------------------------------------------------------------------------
WARNING: There was an error initializing an OpenFabrics device.

  Local host:   bear-pg0206u36b
  Local device: mlx5_0
--------------------------------------------------------------------------

     Program PWSCF v.6.3 starts on 13Jun2020 at 22:40: 4 

     This program is part of the open-source Quantum ESPRESSO suite
     for quantum simulation of materials; please cite
         "P. Giannozzi et al., J. Phys.:Condens. Matter 21 395502 (2009);
         "P. Giannozzi et al., J. Phys.:Condens. Matter 29 465901 (2017);
          URL http://www.quantum-espresso.org", 
     in publications or presentations arising from this work. More details at
     http://www.quantum-espresso.org/quote

     Parallel version (MPI & OpenMP), running on      20 processor cores
     Number of MPI processes:                20
     Threads/MPI process:                     1

     MPI processes distributed on     1 nodes
     R & G space division:  proc/nbgrp/npool/nimage =      20
     Reading input from wd/eos/eos_006.in
Warning: card &IONS ignored
Warning: card ION_DYNAMICS = 'BFGS', ignored
Warning: card / ignored
Warning: card &CELL ignored
Warning: card CELL_DYNAMICS = 'BFGS', ignored
Warning: card CELL_FACTOR = 2.0, ignored
Warning: card PRESS = 0.0, ignored
Warning: card / ignored

     Current dimensions of program PWSCF are:
     Max number of different atomic species (ntypx) = 10
     Max number of k-points (npk) =  40000
     Max angular momentum in pseudopotentials (lmaxx) =  3
               file Fe.pbe-spn-kjpaw_psl.1.0.0.UPF: wavefunction(s)  3P 3D renormalized
               file Fe.pbe-spn-kjpaw_psl.1.0.0.UPF: wavefunction(s)  3P 3D renormalized

     Subspace diagonalization in iterative solution of the eigenvalue problem:
     a serial algorithm will be used

     Found symmetry operation: I + (  0.0000  0.0000 -0.5000)
     This is a supercell, fractional translations are disabled
 
     Parallelization info
     --------------------
     sticks:   dense  smooth     PW     G-vecs:    dense   smooth      PW
     Min         189     125     34                 8789     4725     698
     Max         190     126     35                 8792     4730     701
     Sum        3793    2509    697               175829    94533   13997
 


     bravais-lattice index     =            0
     lattice parameter (alat)  =      10.5935  a.u.
     unit-cell volume          =    1168.5692 (a.u.)^3
     number of atoms/cell      =           16
     number of atomic types    =            2
     number of electrons       =       256.00
     number of Kohn-Sham states=          154
     kinetic-energy cutoff     =      71.0000  Ry
     charge density cutoff     =     430.0000  Ry
     convergence threshold     =      1.0E-06
     mixing beta               =       0.1000
     number of iterations used =           10  plain     mixing
     Exchange-correlation      = SLA PW PBX PBC ( 1  4  3  4 0 0)

     celldm(1)=  10.593520  celldm(2)=   0.000000  celldm(3)=   0.000000
     celldm(4)=   0.000000  celldm(5)=   0.000000  celldm(6)=   0.000000

     crystal axes: (cart. coord. in units of alat)
               a(1) = (   0.994286   0.000000   0.000000 )  
               a(2) = (   0.000000   0.994286   0.000000 )  
               a(3) = (   0.000000   0.000000   0.994286 )  

     reciprocal axes: (cart. coord. in units 2 pi/alat)
               b(1) = (  1.005747  0.000000  0.000000 )  
               b(2) = (  0.000000  1.005747  0.000000 )  
               b(3) = (  0.000000  0.000000  1.005747 )  


     PseudoPot. # 1 for Fe read from file:
     /rds/homes/b/bxp912/pp/Fe.pbe-spn-kjpaw_psl.1.0.0.UPF
     MD5 check sum: 42f43b795421b414b0dc916aa790dbcb
     Pseudo is Projector augmented-wave + core cor, Zval = 16.0
     Generated using "atomic" code by A. Dal Corso v.6.3
     Shape of augmentation charge: PSQ
     Using radial grid of 1191 points,  6 beta functions with: 
                l(1) =   0
                l(2) =   0
                l(3) =   1
                l(4) =   1
                l(5) =   2
                l(6) =   2
     Q(r) pseudized with 0 coefficients 


     PseudoPot. # 2 for Fe read from file:
     /rds/homes/b/bxp912/pp/Fe.pbe-spn-kjpaw_psl.1.0.0.UPF
     MD5 check sum: 42f43b795421b414b0dc916aa790dbcb
     Pseudo is Projector augmented-wave + core cor, Zval = 16.0
     Generated using "atomic" code by A. Dal Corso v.6.3
     Shape of augmentation charge: PSQ
     Using radial grid of 1191 points,  6 beta functions with: 
                l(1) =   0
                l(2) =   0
                l(3) =   1
                l(4) =   1
                l(5) =   2
                l(6) =   2
     Q(r) pseudized with 0 coefficients 


     atomic species   valence    mass     pseudopotential
        Fe1           16.00    55.84500     Fe( 1.00)
        Fe2           16.00    55.84500     Fe( 1.00)

     Starting magnetic structure 
     atomic species   magnetization
        Fe1          0.100
        Fe2          0.100

     48 Sym. Ops., with inversion, found



   Cartesian axes

     site n.     atom                  positions (alat units)
         1           Fe1 tau(   1) = (   0.0000000   0.0000000   0.0000000  )
         2           Fe2 tau(   2) = (   0.2485719   0.2485719   0.2485719  )
         3           Fe1 tau(   3) = (   0.0000000   0.0000000   0.4971429  )
         4           Fe2 tau(   4) = (   0.2485719   0.2485719   0.7457139  )
         5           Fe1 tau(   5) = (   0.0000000   0.4971429   0.0000000  )
         6           Fe2 tau(   6) = (   0.2485719   0.7457139   0.2485719  )
         7           Fe1 tau(   7) = (   0.0000000   0.4971429   0.4971429  )
         8           Fe2 tau(   8) = (   0.2485719   0.7457139   0.7457139  )
         9           Fe1 tau(   9) = (   0.4971429   0.0000000   0.0000000  )
        10           Fe2 tau(  10) = (   0.7457139   0.2485719   0.2485719  )
        11           Fe1 tau(  11) = (   0.4971429   0.0000000   0.4971429  )
        12           Fe2 tau(  12) = (   0.7457139   0.2485719   0.7457139  )
        13           Fe1 tau(  13) = (   0.4971429   0.4971429   0.0000000  )
        14           Fe2 tau(  14) = (   0.7457139   0.7457139   0.2485719  )
        15           Fe1 tau(  15) = (   0.4971429   0.4971429   0.4971429  )
        16           Fe2 tau(  16) = (   0.7457139   0.7457139   0.7457139  )

     number of k points=    35  Marzari-Vanderbilt smearing, width (Ry)=  0.0400
                       cart. coord. in units 2pi/alat
        k(    1) = (   0.0558748   0.0558748   0.0558748), wk =   0.0109739
        k(    2) = (   0.0558748   0.0558748   0.1676245), wk =   0.0329218
        k(    3) = (   0.0558748   0.0558748   0.2793742), wk =   0.0329218
        k(    4) = (   0.0558748   0.0558748   0.3911239), wk =   0.0329218
        k(    5) = (   0.0558748   0.0558748  -0.5028736), wk =   0.0164609
        k(    6) = (   0.0558748   0.1676245   0.1676245), wk =   0.0329218
        k(    7) = (   0.0558748   0.1676245   0.2793742), wk =   0.0658436
        k(    8) = (   0.0558748   0.1676245   0.3911239), wk =   0.0658436
        k(    9) = (   0.0558748   0.1676245  -0.5028736), wk =   0.0329218
        k(   10) = (   0.0558748   0.2793742   0.2793742), wk =   0.0329218
        k(   11) = (   0.0558748   0.2793742   0.3911239), wk =   0.0658436
        k(   12) = (   0.0558748   0.2793742  -0.5028736), wk =   0.0329218
        k(   13) = (   0.0558748   0.3911239   0.3911239), wk =   0.0329218
        k(   14) = (   0.0558748   0.3911239  -0.5028736), wk =   0.0329218
        k(   15) = (   0.0558748  -0.5028736  -0.5028736), wk =   0.0082305
        k(   16) = (   0.1676245   0.1676245   0.1676245), wk =   0.0109739
        k(   17) = (   0.1676245   0.1676245   0.2793742), wk =   0.0329218
        k(   18) = (   0.1676245   0.1676245   0.3911239), wk =   0.0329218
        k(   19) = (   0.1676245   0.1676245  -0.5028736), wk =   0.0164609
        k(   20) = (   0.1676245   0.2793742   0.2793742), wk =   0.0329218
        k(   21) = (   0.1676245   0.2793742   0.3911239), wk =   0.0658436
        k(   22) = (   0.1676245   0.2793742  -0.5028736), wk =   0.0329218
        k(   23) = (   0.1676245   0.3911239   0.3911239), wk =   0.0329218
        k(   24) = (   0.1676245   0.3911239  -0.5028736), wk =   0.0329218
        k(   25) = (   0.1676245  -0.5028736  -0.5028736), wk =   0.0082305
        k(   26) = (   0.2793742   0.2793742   0.2793742), wk =   0.0109739
        k(   27) = (   0.2793742   0.2793742   0.3911239), wk =   0.0329218
        k(   28) = (   0.2793742   0.2793742  -0.5028736), wk =   0.0164609
        k(   29) = (   0.2793742   0.3911239   0.3911239), wk =   0.0329218
        k(   30) = (   0.2793742   0.3911239  -0.5028736), wk =   0.0329218
        k(   31) = (   0.2793742  -0.5028736  -0.5028736), wk =   0.0082305
        k(   32) = (   0.3911239   0.3911239   0.3911239), wk =   0.0109739
        k(   33) = (   0.3911239   0.3911239  -0.5028736), wk =   0.0164609
        k(   34) = (   0.3911239  -0.5028736  -0.5028736), wk =   0.0082305
        k(   35) = (  -0.5028736  -0.5028736  -0.5028736), wk =   0.0013717

     Dense  grid:   175829 G-vectors     FFT dimensions: (  72,  72,  72)

     Smooth grid:    94533 G-vectors     FFT dimensions: (  60,  60,  60)

     Estimated max dynamical RAM per process >     151.18 MB

     Estimated total dynamical RAM >       2.95 GB
     Generating pointlists ...
     new r_m :   0.1776 (alat units)  1.8814 (a.u.) for type    1
     new r_m :   0.1776 (alat units)  1.8814 (a.u.) for type    2

     Check: negative/imaginary core charge=   -0.000006    0.000000

     Initial potential from superposition of free atoms

     starting charge  255.99300, renormalised to  256.00000
     Starting wfcs are  160 randomized atomic wfcs
     Checking if some PAW data can be deallocated... 

     total cpu time spent up to now is        8.9 secs

     Self-consistent Calculation

     iteration #  1     ecut=    71.00 Ry     beta= 0.10
     Davidson diagonalization with overlap
     ethr =  1.00E-02,  avg # of iterations =  3.3

     Threshold (ethr) on eigenvalues was too large:
     Diagonalizing with lowered threshold

     Davidson diagonalization with overlap
     ethr =  2.08E-04,  avg # of iterations =  3.5

     total cpu time spent up to now is       67.1 secs

     total energy              =   -5267.97629537 Ry
     Harris-Foulkes estimate   =   -5268.02971038 Ry
     estimated scf accuracy    <       0.61324236 Ry

     total magnetization       =    27.71 Bohr mag/cell
     absolute magnetization    =    27.80 Bohr mag/cell

     iteration #  2     ecut=    71.00 Ry     beta= 0.10
     Davidson diagonalization with overlap
     ethr =  2.40E-04,  avg # of iterations =  1.0

     total cpu time spent up to now is       84.8 secs

     total energy              =   -5267.95571160 Ry
     Harris-Foulkes estimate   =   -5267.98815936 Ry
     estimated scf accuracy    <       0.35169781 Ry

     total magnetization       =    28.35 Bohr mag/cell
     absolute magnetization    =    28.47 Bohr mag/cell

     iteration #  3     ecut=    71.00 Ry     beta= 0.10
     Davidson diagonalization with overlap
     ethr =  1.37E-04,  avg # of iterations =  3.2

     total cpu time spent up to now is      115.0 secs

     total energy              =   -5268.01905093 Ry
     Harris-Foulkes estimate   =   -5268.02252640 Ry
     estimated scf accuracy    <       0.33678771 Ry

     total magnetization       =    29.66 Bohr mag/cell
     absolute magnetization    =    29.96 Bohr mag/cell

     iteration #  4     ecut=    71.00 Ry     beta= 0.10
     Davidson diagonalization with overlap
     ethr =  1.32E-04,  avg # of iterations =  1.0

     total cpu time spent up to now is      132.8 secs

     total energy              =   -5268.03537596 Ry
     Harris-Foulkes estimate   =   -5268.02718493 Ry
     estimated scf accuracy    <       0.11114735 Ry

     total magnetization       =    29.87 Bohr mag/cell
     absolute magnetization    =    30.18 Bohr mag/cell

     iteration #  5     ecut=    71.00 Ry     beta= 0.10
     Davidson diagonalization with overlap
     ethr =  4.34E-05,  avg # of iterations =  1.5

     total cpu time spent up to now is      152.1 secs

     total energy              =   -5268.11501450 Ry
     Harris-Foulkes estimate   =   -5268.03968715 Ry
     estimated scf accuracy    <       0.09895523 Ry

     total magnetization       =    29.92 Bohr mag/cell
     absolute magnetization    =    30.29 Bohr mag/cell

     iteration #  6     ecut=    71.00 Ry     beta= 0.10
     Davidson diagonalization with overlap
     ethr =  3.87E-05,  avg # of iterations =  3.2

     negative rho (up, down):  0.000E+00 3.157E-03

     total cpu time spent up to now is      182.6 secs

     total energy              =   -5268.13407814 Ry
     Harris-Foulkes estimate   =   -5268.14744373 Ry
     estimated scf accuracy    <       0.19914570 Ry

     total magnetization       =    30.60 Bohr mag/cell
     absolute magnetization    =    31.28 Bohr mag/cell

     iteration #  7     ecut=    71.00 Ry     beta= 0.10
     Davidson diagonalization with overlap
     ethr =  3.87E-05,  avg # of iterations =  2.9

     negative rho (up, down):  0.000E+00 1.834E-03

     total cpu time spent up to now is      211.7 secs

     total energy              =   -5268.17200136 Ry
     Harris-Foulkes estimate   =   -5268.17795251 Ry
     estimated scf accuracy    <       0.01167771 Ry

     total magnetization       =    32.01 Bohr mag/cell
     absolute magnetization    =    33.47 Bohr mag/cell

     iteration #  8     ecut=    71.00 Ry     beta= 0.10
     Davidson diagonalization with overlap
     ethr =  4.56E-06,  avg # of iterations =  2.5

     negative rho (up, down):  0.000E+00 1.865E-03

     total cpu time spent up to now is      236.7 secs

     total energy              =   -5268.17509511 Ry
     Harris-Foulkes estimate   =   -5268.17372963 Ry
     estimated scf accuracy    <       0.00829212 Ry

     total magnetization       =    31.93 Bohr mag/cell
     absolute magnetization    =    33.22 Bohr mag/cell

     iteration #  9     ecut=    71.00 Ry     beta= 0.10
     Davidson diagonalization with overlap
     ethr =  3.24E-06,  avg # of iterations =  1.5

     negative rho (up, down):  0.000E+00 2.282E-03

     total cpu time spent up to now is      256.1 secs

     total energy              =   -5268.17820373 Ry
     Harris-Foulkes estimate   =   -5268.17532940 Ry
     estimated scf accuracy    <       0.00534410 Ry

     total magnetization       =    32.03 Bohr mag/cell
     absolute magnetization    =    33.37 Bohr mag/cell

     iteration # 10     ecut=    71.00 Ry     beta= 0.10
     Davidson diagonalization with overlap
     ethr =  2.09E-06,  avg # of iterations =  3.3

     negative rho (up, down):  0.000E+00 2.146E-03

     total cpu time spent up to now is      284.7 secs

     total energy              =   -5268.17961925 Ry
     Harris-Foulkes estimate   =   -5268.17955112 Ry
     estimated scf accuracy    <       0.00086568 Ry

     total magnetization       =    32.34 Bohr mag/cell
     absolute magnetization    =    33.90 Bohr mag/cell

     iteration # 11     ecut=    71.00 Ry     beta= 0.10
     Davidson diagonalization with overlap
     ethr =  3.38E-07,  avg # of iterations =  1.3

     negative rho (up, down):  0.000E+00 2.045E-03

     total cpu time spent up to now is      303.5 secs

     total energy              =   -5268.17998101 Ry
     Harris-Foulkes estimate   =   -5268.17964228 Ry
     estimated scf accuracy    <       0.00072069 Ry

     total magnetization       =    32.35 Bohr mag/cell
     absolute magnetization    =    33.91 Bohr mag/cell

     iteration # 12     ecut=    71.00 Ry     beta= 0.10
     Davidson diagonalization with overlap
     ethr =  2.82E-07,  avg # of iterations =  2.3

     negative rho (up, down):  0.000E+00 2.273E-03

     total cpu time spent up to now is      327.3 secs

     total energy              =   -5268.18011676 Ry
     Harris-Foulkes estimate   =   -5268.18009413 Ry
     estimated scf accuracy    <       0.00048619 Ry

     total magnetization       =    32.46 Bohr mag/cell
     absolute magnetization    =    34.06 Bohr mag/cell

     iteration # 13     ecut=    71.00 Ry     beta= 0.10
     Davidson diagonalization with overlap
     ethr =  1.90E-07,  avg # of iterations =  3.3

     negative rho (up, down):  0.000E+00 2.307E-03

     total cpu time spent up to now is      357.2 secs

     total energy              =   -5268.18026782 Ry
     Harris-Foulkes estimate   =   -5268.18026760 Ry
     estimated scf accuracy    <       0.00010772 Ry

     total magnetization       =    32.57 Bohr mag/cell
     absolute magnetization    =    34.24 Bohr mag/cell

     iteration # 14     ecut=    71.00 Ry     beta= 0.10
     Davidson diagonalization with overlap
     ethr =  4.21E-08,  avg # of iterations =  2.2

     negative rho (up, down):  0.000E+00 2.318E-03

     total cpu time spent up to now is      379.5 secs

     total energy              =   -5268.18027783 Ry
     Harris-Foulkes estimate   =   -5268.18028493 Ry
     estimated scf accuracy    <       0.00010937 Ry

     total magnetization       =    32.58 Bohr mag/cell
     absolute magnetization    =    34.26 Bohr mag/cell

     iteration # 15     ecut=    71.00 Ry     beta= 0.10
     Davidson diagonalization with overlap
     ethr =  4.21E-08,  avg # of iterations =  1.0

     negative rho (up, down):  0.000E+00 2.322E-03

     total cpu time spent up to now is      397.1 secs

     total energy              =   -5268.18030214 Ry
     Harris-Foulkes estimate   =   -5268.18028494 Ry
     estimated scf accuracy    <       0.00002258 Ry

     total magnetization       =    32.60 Bohr mag/cell
     absolute magnetization    =    34.28 Bohr mag/cell

     iteration # 16     ecut=    71.00 Ry     beta= 0.10
     Davidson diagonalization with overlap
     ethr =  8.82E-09,  avg # of iterations =  2.7

     negative rho (up, down):  0.000E+00 2.342E-03

     total cpu time spent up to now is      422.0 secs

     total energy              =   -5268.18030594 Ry
     Harris-Foulkes estimate   =   -5268.18030603 Ry
     estimated scf accuracy    <       0.00000747 Ry

     total magnetization       =    32.59 Bohr mag/cell
     absolute magnetization    =    34.27 Bohr mag/cell

     iteration # 17     ecut=    71.00 Ry     beta= 0.10
     Davidson diagonalization with overlap
     ethr =  2.92E-09,  avg # of iterations =  2.7

     negative rho (up, down):  0.000E+00 2.340E-03

     total cpu time spent up to now is      449.5 secs

     total energy              =   -5268.18030949 Ry
     Harris-Foulkes estimate   =   -5268.18030801 Ry
     estimated scf accuracy    <       0.00000272 Ry

     total magnetization       =    32.61 Bohr mag/cell
     absolute magnetization    =    34.29 Bohr mag/cell

     iteration # 18     ecut=    71.00 Ry     beta= 0.10
     Davidson diagonalization with overlap
     ethr =  1.06E-09,  avg # of iterations =  3.2

     negative rho (up, down):  0.000E+00 2.357E-03
 
     Magnetic moment per site:
     atom:    1    charge:   14.3526    magn:    2.0770    constr:    0.0000
     atom:    2    charge:   14.3524    magn:    2.0790    constr:    0.0000
     atom:    3    charge:   14.3525    magn:    2.0777    constr:    0.0000
     atom:    4    charge:   14.3524    magn:    2.0790    constr:    0.0000
     atom:    5    charge:   14.3525    magn:    2.0777    constr:    0.0000
     atom:    6    charge:   14.3524    magn:    2.0790    constr:    0.0000
     atom:    7    charge:   14.3525    magn:    2.0781    constr:    0.0000
     atom:    8    charge:   14.3524    magn:    2.0790    constr:    0.0000
     atom:    9    charge:   14.3525    magn:    2.0777    constr:    0.0000
     atom:   10    charge:   14.3524    magn:    2.0790    constr:    0.0000
     atom:   11    charge:   14.3525    magn:    2.0781    constr:    0.0000
     atom:   12    charge:   14.3524    magn:    2.0790    constr:    0.0000
     atom:   13    charge:   14.3525    magn:    2.0781    constr:    0.0000
     atom:   14    charge:   14.3524    magn:    2.0790    constr:    0.0000
     atom:   15    charge:   14.3525    magn:    2.0785    constr:    0.0000
     atom:   16    charge:   14.3524    magn:    2.0790    constr:    0.0000

     total cpu time spent up to now is      477.7 secs

     End of self-consistent calculation

 ------ SPIN UP ------------


          k = 0.0559 0.0559 0.0559 ( 11786 PWs)   bands (ev):

   -68.7002 -68.6184 -68.6184 -68.6183 -68.6054 -68.6054 -68.6053 -68.6039
   -68.6038 -68.6038 -68.6034 -68.6034 -68.6032 -68.5985 -68.5971 -68.5344
   -34.9361 -34.9360 -34.9360 -34.9336 -34.9336 -34.9336 -34.7983 -34.7983
   -34.7928 -34.7302 -34.7274 -34.7274 -34.7274 -34.7093 -34.7093 -34.6972
   -34.6971 -34.6971 -34.6668 -34.6668 -34.6459 -34.6341 -34.6341 -34.6341
   -34.6243 -34.6243 -34.6243 -34.6138 -34.6138 -34.6138 -34.6107 -34.6107
   -34.6107 -34.6035 -34.6035 -34.6035 -34.5942 -34.5942 -34.5942 -34.4550
   -34.4530 -34.4530 -34.4530 -34.4509 -34.4509 -34.4509 -34.4489 -34.4489
    10.6551  14.2247  14.2247  14.2247  14.2438  14.2438  14.2438  14.2664
    14.2664  14.2992  14.2992  14.2992  14.7069  14.7070  14.7070  15.8925
    15.9031  15.9032  15.9032  15.9164  15.9164  15.9164  15.9799  15.9799
    16.0552  16.0552  16.0552  16.1274  16.1274  16.1844  16.4041  16.4041
    16.4041  17.0723  17.0723  17.1151  17.4055  17.4055  17.4056  17.4869
    17.4870  17.4870  17.5824  17.5824  17.5824  17.6657  17.6657  17.6657
    18.3195  18.3195  18.3195  18.3287  18.3287  18.3705  18.3705  18.3705
    18.4197  18.4197  18.4197  18.4262  18.4262  18.4262  18.5459  18.5459
    18.5459  18.5473  18.5473  18.5474  18.5865  18.5865  18.5879  18.5879
    19.4731  19.4731  19.4731  19.4980  19.4980  19.4980  19.6347  19.7030
    19.7030  19.7041  19.7042  19.7042  20.0559  20.0560  20.0560  20.2418
    20.2418  20.2418

          k = 0.0559 0.0559 0.1676 ( 11795 PWs)   bands (ev):

   -68.6974 -68.6330 -68.6177 -68.6177 -68.6068 -68.6068 -68.6049 -68.6036
   -68.6036 -68.6030 -68.6028 -68.6027 -68.5989 -68.5975 -68.5899 -68.5365
   -34.9294 -34.9294 -34.9285 -34.9262 -34.9219 -34.9219 -34.8008 -34.7926
   -34.7840 -34.7616 -34.7540 -34.7540 -34.7521 -34.7515 -34.7250 -34.7250
   -34.6959 -34.6727 -34.6643 -34.6631 -34.6541 -34.6340 -34.6340 -34.6254
   -34.6188 -34.6168 -34.6168 -34.6154 -34.6140 -34.6088 -34.6088 -34.6040
   -34.6040 -34.5997 -34.5997 -34.5738 -34.5707 -34.5707 -34.5652 -34.4678
   -34.4610 -34.4609 -34.4598 -34.4575 -34.4543 -34.4533 -34.4533 -34.4514
    10.7883  13.7466  14.2447  14.2447  14.3033  14.3033  14.3196  14.3244
    14.3283  14.3375  14.3471  14.3472  14.7433  14.7433  14.9293  15.7116
    15.7836  15.8824  15.8899  15.9015  15.9057  15.9491  15.9491  15.9882
    15.9882  16.0128  16.0378  16.0378  16.3295  16.3305  16.3535  16.3535
    16.7392  17.0502  17.0691  17.1727  17.2072  17.2072  17.2657  17.3619
    17.3733  17.3733  17.6083  17.6083  17.7356  17.7356  17.7991  17.8911
    17.9762  17.9762  18.0966  18.2503  18.2503  18.2669  18.3115  18.3542
    18.3755  18.3755  18.4328  18.4353  18.4546  18.4546  18.5281  18.5281
    18.5484  18.5814  18.5838  18.5841  18.5872  18.7494  18.7494  18.7738
    18.8682  19.0936  19.1265  19.4281  19.4281  19.4837  19.4955  19.4955
    19.5841  19.6960  19.8133  19.8133  20.1154  20.1154  20.1190  20.1190
    20.5574  20.5574

          k = 0.0559 0.0559 0.2794 ( 11785 PWs)   bands (ev):

   -68.6917 -68.6473 -68.6166 -68.6165 -68.6087 -68.6087 -68.6041 -68.6033
   -68.6033 -68.6024 -68.6024 -68.6022 -68.5997 -68.5982 -68.5769 -68.5407
   -34.9138 -34.9138 -34.9134 -34.9115 -34.9016 -34.9016 -34.8012 -34.7970
   -34.7922 -34.7898 -34.7898 -34.7816 -34.7717 -34.7712 -34.7629 -34.7629
   -34.6935 -34.6834 -34.6829 -34.6684 -34.6324 -34.6324 -34.6279 -34.6257
   -34.6236 -34.6201 -34.6201 -34.6071 -34.6071 -34.6042 -34.6042 -34.5861
   -34.5794 -34.5696 -34.5696 -34.5456 -34.5423 -34.5423 -34.5376 -34.4886
   -34.4738 -34.4738 -34.4728 -34.4713 -34.4641 -34.4610 -34.4610 -34.4596
    11.0508  13.1229  14.2967  14.2967  14.3989  14.3989  14.4126  14.4126
    14.4389  14.4439  14.5021  14.5174  14.7734  14.7735  14.9791  15.3852
    15.6317  15.6812  15.8289  15.8664  15.8760  15.8806  16.0518  16.0518
    16.0717  16.0717  16.1162  16.1162  16.3410  16.3410  16.5811  16.5926
    16.9405  16.9405  17.0074  17.0377  17.0659  17.0909  17.0910  17.1626
    17.2587  17.3300  17.4969  17.4969  17.7535  17.7535  17.7998  17.7998
    17.8524  17.8524  17.8851  18.0558  18.0995  18.1460  18.1574  18.2682
    18.3073  18.3073  18.3935  18.3935  18.4040  18.4574  18.4739  18.5531
    18.5699  18.5728  18.5790  18.5864  18.7597  18.7982  18.7982  18.8520
    18.9917  19.0125  19.0125  19.2542  19.3668  19.4418  19.4418  19.5413
    19.5413  19.6313  19.7879  19.7879  19.9819  19.9819  20.2350  20.2350
    20.6540  20.6540

          k = 0.0559 0.0559 0.3911 ( 11801 PWs)   bands (ev):

   -68.6835 -68.6609 -68.6149 -68.6149 -68.6109 -68.6108 -68.6031 -68.6030
   -68.6029 -68.6023 -68.6023 -68.6013 -68.6007 -68.5991 -68.5653 -68.5470
   -34.8913 -34.8908 -34.8908 -34.8904 -34.8742 -34.8742 -34.8316 -34.8296
   -34.8270 -34.8270 -34.8025 -34.8025 -34.7992 -34.7856 -34.7653 -34.7544
   -34.7206 -34.7097 -34.6695 -34.6590 -34.6403 -34.6348 -34.6300 -34.6300
   -34.6237 -34.6236 -34.6058 -34.6058 -34.6044 -34.6044 -34.5876 -34.5498
   -34.5462 -34.5404 -34.5403 -34.5199 -34.5167 -34.5156 -34.5155 -34.5126
   -34.4920 -34.4917 -34.4916 -34.4916 -34.4786 -34.4744 -34.4743 -34.4729
    11.4340  12.4982  14.3657  14.3657  14.4479  14.4479  14.5198  14.5198
    14.5972  14.6072  14.7425  14.7425  14.7572  14.7681  14.9054  15.0869
    15.3722  15.3831  15.8105  15.8271  15.8392  15.8471  16.2062  16.2062
    16.2369  16.2370  16.2943  16.2943  16.4453  16.4454  16.6902  16.6902
    16.8078  16.8078  16.9058  16.9143  17.0132  17.0132  17.0375  17.0664
    17.0834  17.0935  17.2245  17.2245  17.3744  17.4998  17.6910  17.7090
    17.7543  17.9698  17.9829  17.9829  17.9980  17.9980  18.2169  18.2169
    18.3030  18.3030  18.3467  18.4557  18.4757  18.4890  18.4940  18.5499
    18.5517  18.5592  18.5732  18.5885  18.6335  18.6887  18.9694  19.0583
    19.0583  19.0850  19.1935  19.2696  19.2696  19.3998  19.3998  19.5205
    19.6121  19.6121  19.6731  19.6731  19.8402  19.8402  20.3829  20.3829
    20.6362  20.6362

          k = 0.0559 0.0559-0.5029 ( 11792 PWs)   bands (ev):

   -68.6732 -68.6730 -68.6130 -68.6130 -68.6129 -68.6128 -68.6027 -68.6027
   -68.6025 -68.6024 -68.6019 -68.6018 -68.6004 -68.6000 -68.5553 -68.5551
   -34.8634 -34.8632 -34.8631 -34.8629 -34.8614 -34.8614 -34.8614 -34.8614
   -34.8405 -34.8404 -34.8404 -34.8404 -34.7943 -34.7942 -34.7448 -34.7446
   -34.7339 -34.7337 -34.6545 -34.6543 -34.6472 -34.6469 -34.6271 -34.6271
   -34.6269 -34.6269 -34.6050 -34.6050 -34.6048 -34.6048 -34.5504 -34.5502
   -34.5182 -34.5180 -34.5167 -34.5165 -34.5141 -34.5141 -34.5141 -34.5140
   -34.4973 -34.4972 -34.4926 -34.4926 -34.4926 -34.4925 -34.4909 -34.4908
    11.9238  11.9239  14.4269  14.4269  14.4269  14.4269  14.6456  14.6456
    14.6456  14.6456  14.7627  14.7627  14.8251  14.8252  15.0614  15.0615
    15.0650  15.0652  15.8173  15.8174  15.8258  15.8260  16.4001  16.4001
    16.4001  16.4001  16.4704  16.4704  16.4704  16.4705  16.6317  16.6317
    16.6317  16.6318  16.7887  16.7887  16.7887  16.7887  17.0537  17.0538
    17.0746  17.0747  17.2918  17.2919  17.2974  17.2976  17.5193  17.5194
    17.7471  17.7472  18.1074  18.1074  18.1075  18.1075  18.1705  18.1705
    18.1706  18.1706  18.5224  18.5225  18.5233  18.5234  18.5660  18.5661
    18.5691  18.5693  18.5986  18.5987  18.6581  18.6582  18.7719  18.7721
    19.2691  19.2691  19.2691  19.2692  19.3722  19.3723  19.4951  19.4952
    19.4952  19.4952  19.7115  19.7115  19.7115  19.7115  20.5306  20.5306
    20.5306  20.5306

          k = 0.0559 0.1676 0.1676 ( 11770 PWs)   bands (ev):

   -68.6945 -68.6320 -68.6319 -68.6171 -68.6108 -68.6063 -68.6063 -68.6034
   -68.6024 -68.6023 -68.5995 -68.5994 -68.5977 -68.5902 -68.5901 -68.5385
   -34.9278 -34.9220 -34.9220 -34.9152 -34.9152 -34.9053 -34.8066 -34.7891
   -34.7817 -34.7774 -34.7774 -34.7707 -34.7704 -34.7643 -34.7432 -34.7048
   -34.6916 -34.6916 -34.6637 -34.6637 -34.6632 -34.6385 -34.6292 -34.6291
   -34.6251 -34.6224 -34.6224 -34.6128 -34.6128 -34.6087 -34.6071 -34.6013
   -34.5904 -34.5806 -34.5748 -34.5748 -34.5540 -34.5432 -34.5432 -34.4852
   -34.4736 -34.4662 -34.4662 -34.4598 -34.4598 -34.4583 -34.4504 -34.4489
    10.9201  13.8143  13.8143  14.2143  14.3412  14.3412  14.3809  14.3901
    14.3939  14.3963  14.3963  14.4029  14.7909  14.9657  14.9657  15.6862
    15.7178  15.7178  15.7922  15.9328  15.9328  15.9569  15.9675  15.9675
    15.9683  16.0020  16.0771  16.0852  16.2860  16.3288  16.3411  16.6391
    16.6391  16.9955  17.0562  17.0787  17.0787  17.1322  17.2561  17.2680
    17.5313  17.5313  17.5766  17.5766  17.5997  17.6503  17.7808  17.9021
    17.9021  17.9096  17.9097  18.1768  18.1768  18.2582  18.2934  18.3055
    18.3082  18.3083  18.3365  18.3915  18.3915  18.4493  18.4493  18.5269
    18.5737  18.5812  18.5821  18.5918  18.6654  18.8559  18.8746  18.9451
    18.9452  18.9672  18.9672  19.0868  19.0868  19.2830  19.3297  19.3297
    19.4949  19.5558  19.7203  19.8863  19.9153  20.2189  20.7908  20.7908
    20.9798  20.9798

          k = 0.0559 0.1676 0.2794 ( 11791 PWs)   bands (ev):

   -68.6890 -68.6459 -68.6299 -68.6159 -68.6151 -68.6082 -68.6055 -68.6031
   -68.6021 -68.6018 -68.6004 -68.5983 -68.5967 -68.5907 -68.5777 -68.5426
   -34.9173 -34.9076 -34.9074 -34.9023 -34.8964 -34.8808 -34.8115 -34.8106
   -34.8071 -34.7975 -34.7953 -34.7950 -34.7787 -34.7727 -34.7536 -34.7303
   -34.6955 -34.6925 -34.6604 -34.6600 -34.6583 -34.6544 -34.6401 -34.6334
   -34.6332 -34.6267 -34.6212 -34.6113 -34.6093 -34.5981 -34.5946 -34.5773
   -34.5768 -34.5633 -34.5564 -34.5473 -34.5322 -34.5174 -34.5170 -34.5103
   -34.4911 -34.4771 -34.4770 -34.4726 -34.4679 -34.4662 -34.4530 -34.4523
    11.1793  13.2105  13.9285  14.2007  14.3947  14.4829  14.4886  14.4917
    14.5095  14.5143  14.5265  14.5741  14.8413  14.9838  15.0218  15.4100
    15.5750  15.6580  15.7907  15.8854  15.9043  15.9318  15.9727  16.0012
    16.0267  16.0443  16.0815  16.2370  16.2386  16.4880  16.5237  16.5732
    16.8349  16.8511  16.9461  16.9471  16.9904  17.0420  17.0489  17.1730
    17.2827  17.3903  17.4372  17.5376  17.6601  17.7256  17.7661  17.8031
    17.8178  17.8850  17.8898  17.9181  17.9367  18.0936  18.1352  18.1678
    18.2063  18.3264  18.3742  18.3918  18.4214  18.4442  18.4516  18.5581
    18.5679  18.5816  18.5827  18.6019  18.6847  18.8107  18.8313  18.8314
    18.9696  19.0085  19.0186  19.0462  19.0759  19.1737  19.2175  19.2845
    19.4071  19.6840  19.6845  19.7057  19.9003  20.3999  20.5799  21.1585
    21.2065  21.5085

          k = 0.0559 0.1676 0.3911 ( 11805 PWs)   bands (ev):

   -68.6810 -68.6590 -68.6270 -68.6194 -68.6144 -68.6103 -68.6043 -68.6027
   -68.6021 -68.6016 -68.6009 -68.5990 -68.5945 -68.5915 -68.5664 -68.5487
   -34.8990 -34.8865 -34.8860 -34.8837 -34.8709 -34.8495 -34.8441 -34.8342
   -34.8288 -34.8287 -34.8138 -34.8065 -34.8064 -34.7719 -34.7628 -34.7335
   -34.7189 -34.6857 -34.6804 -34.6553 -34.6531 -34.6472 -34.6417 -34.6386
   -34.6316 -34.6311 -34.6158 -34.6106 -34.6101 -34.5887 -34.5797 -34.5671
   -34.5448 -34.5417 -34.5367 -34.5324 -34.5223 -34.5128 -34.5109 -34.4949
   -34.4937 -34.4924 -34.4920 -34.4916 -34.4820 -34.4771 -34.4614 -34.4613
    11.5573  12.6018  14.0501  14.1843  14.4643  14.5342  14.6126  14.6405
    14.6559  14.6739  14.7848  14.8199  14.8277  14.9249  14.9528  15.1269
    15.3796  15.4044  15.8403  15.8712  15.8812  15.8927  15.9953  16.1180
    16.1595  16.1729  16.2242  16.2774  16.4343  16.5366  16.6929  16.7429
    16.7665  16.7687  16.7977  16.8273  16.9148  16.9202  16.9758  16.9811
    16.9915  17.0263  17.1612  17.3326  17.4450  17.5203  17.5353  17.6548
    17.8898  17.9813  17.9907  17.9984  18.0114  18.0189  18.0961  18.1206
    18.2397  18.2985  18.3471  18.4063  18.4470  18.4618  18.4728  18.5339
    18.5417  18.5825  18.6083  18.6227  18.6638  18.7165  18.7654  18.8361
    18.8850  18.9609  19.0089  19.0738  19.0834  19.1626  19.3601  19.3855
    19.4572  19.4620  19.6355  19.8108  19.8787  20.3517  20.6293  21.0738
    21.3712  21.6364

          k = 0.0559 0.1676-0.5029 ( 11812 PWs)   bands (ev):

   -68.6710 -68.6708 -68.6235 -68.6233 -68.6125 -68.6123 -68.6030 -68.6029
   -68.6024 -68.6021 -68.6001 -68.5998 -68.5929 -68.5927 -68.5568 -68.5566
   -34.8742 -34.8742 -34.8606 -34.8604 -34.8601 -34.8599 -34.8591 -34.8591
   -34.8403 -34.8402 -34.8125 -34.8124 -34.8122 -34.8122 -34.7427 -34.7425
   -34.7110 -34.7109 -34.6638 -34.6637 -34.6492 -34.6490 -34.6431 -34.6429
   -34.6353 -34.6352 -34.6104 -34.6103 -34.5837 -34.5835 -34.5775 -34.5774
   -34.5385 -34.5385 -34.5160 -34.5158 -34.5129 -34.5127 -34.5103 -34.5103
   -34.5004 -34.5003 -34.4922 -34.4922 -34.4760 -34.4759 -34.4749 -34.4749
    12.0391  12.0391  14.1398  14.1398  14.5228  14.5229  14.7374  14.7374
    14.8021  14.8021  14.8098  14.8099  14.8791  14.8792  15.0906  15.0907
    15.1045  15.1046  15.8447  15.8448  15.8664  15.8665  16.2859  16.2859
    16.2867  16.2867  16.3183  16.3184  16.3465  16.3465  16.7027  16.7027
    16.7235  16.7235  16.8028  16.8028  16.9060  16.9061  16.9093  16.9094
    17.0081  17.0083  17.1163  17.1164  17.1206  17.1207  17.7021  17.7021
    17.8368  17.8369  18.0436  18.0436  18.1334  18.1334  18.1628  18.1628
    18.1980  18.1980  18.4014  18.4015  18.5034  18.5035  18.5043  18.5045
    18.5423  18.5424  18.5876  18.5877  18.6675  18.6675  18.7057  18.7059
    18.9252  18.9252  19.0417  19.0417  19.2291  19.2291  19.2955  19.2955
    19.5172  19.5173  19.6597  19.6597  20.1117  20.1118  20.8677  20.8677
    21.5578  21.5578

          k = 0.0559 0.2794 0.2794 ( 11814 PWs)   bands (ev):

   -68.6837 -68.6431 -68.6430 -68.6217 -68.6148 -68.6073 -68.6073 -68.6028
   -68.6017 -68.6016 -68.6014 -68.5986 -68.5917 -68.5791 -68.5790 -68.5464
   -34.9124 -34.8950 -34.8950 -34.8864 -34.8864 -34.8523 -34.8248 -34.8248
   -34.8222 -34.8210 -34.8127 -34.8097 -34.7907 -34.7688 -34.7322 -34.6966
   -34.6936 -34.6936 -34.6875 -34.6875 -34.6561 -34.6472 -34.6467 -34.6391
   -34.6391 -34.6273 -34.6272 -34.6198 -34.6198 -34.6143 -34.5831 -34.5569
   -34.5510 -34.5510 -34.5439 -34.5403 -34.5390 -34.5181 -34.5126 -34.4948
   -34.4947 -34.4837 -34.4837 -34.4765 -34.4765 -34.4765 -34.4502 -34.4491
    11.4318  13.3713  13.3713  14.0956  14.5818  14.5822  14.5822  14.5937
    14.6368  14.6420  14.6680  14.6680  14.9362  15.0447  15.0447  15.5155
    15.5155  15.5164  15.5839  15.9275  15.9330  15.9831  15.9832  15.9992
    16.0230  16.0231  16.0922  16.1369  16.4114  16.4412  16.5000  16.7149
    16.7150  16.8017  16.8017  16.8061  16.8535  16.8736  16.9420  17.0104
    17.3056  17.3056  17.4522  17.4522  17.5139  17.5140  17.5542  17.6964
    17.7739  17.7739  17.8823  17.9648  18.0789  18.0789  18.1134  18.1707
    18.3527  18.3635  18.3635  18.3655  18.3655  18.3974  18.3974  18.4295
    18.4929  18.5340  18.5501  18.5924  18.6263  18.7245  18.7910  18.7910
    18.8039  18.8039  18.8642  19.0199  19.0804  19.0804  19.0834  19.4029
    19.4030  19.4527  19.7529  19.9248  19.9370  20.6749  21.2309  21.2309
    21.8786  21.8786

          k = 0.0559 0.2794 0.3911 ( 11815 PWs)   bands (ev):

   -68.6762 -68.6554 -68.6390 -68.6280 -68.6132 -68.6093 -68.6061 -68.6030
   -68.6023 -68.6016 -68.6007 -68.5992 -68.5874 -68.5811 -68.5686 -68.5521
   -34.8991 -34.8771 -34.8771 -34.8724 -34.8651 -34.8538 -34.8377 -34.8330
   -34.8323 -34.8317 -34.8299 -34.8177 -34.8143 -34.7541 -34.7358 -34.7127
   -34.7086 -34.6868 -34.6800 -34.6592 -34.6560 -34.6546 -34.6541 -34.6501
   -34.6501 -34.6446 -34.6304 -34.6195 -34.6176 -34.5954 -34.5755 -34.5725
   -34.5565 -34.5374 -34.5334 -34.5274 -34.5248 -34.5211 -34.5041 -34.4937
   -34.4933 -34.4916 -34.4897 -34.4830 -34.4759 -34.4755 -34.4529 -34.4525
    11.7983  12.7992  13.5760  13.9611  14.6513  14.6840  14.7109  14.7749
    14.7872  14.8124  14.8410  14.9080  14.9726  14.9859  14.9979  15.2577
    15.3968  15.4137  15.7414  15.8940  15.9334  15.9335  15.9593  15.9686
    16.0811  16.1132  16.1134  16.1926  16.4217  16.5235  16.5860  16.6376
    16.6396  16.7205  16.7611  16.7809  16.7851  16.8030  16.8761  16.9251
    16.9733  17.0232  17.1043  17.1592  17.2003  17.2662  17.7367  17.7837
    17.8475  17.9975  18.0243  18.0320  18.0468  18.0749  18.0925  18.1473
    18.2848  18.2868  18.3051  18.3298  18.4006  18.4053  18.4143  18.4208
    18.4992  18.5165  18.5449  18.6084  18.6160  18.6294  18.6654  18.6874
    18.7502  18.8221  18.8626  18.8653  18.8837  19.0530  19.1111  19.2086
    19.5588  19.6122  19.7425  19.8818  20.2489  20.9128  21.0018  21.6426
    21.9117  22.5285

          k = 0.0559 0.2794-0.5029 ( 11818 PWs)   bands (ev):

   -68.6667 -68.6665 -68.6340 -68.6338 -68.6114 -68.6113 -68.6047 -68.6045
   -68.6020 -68.6017 -68.6001 -68.5998 -68.5840 -68.5837 -68.5596 -68.5594
   -34.8791 -34.8791 -34.8558 -34.8556 -34.8555 -34.8555 -34.8554 -34.8553
   -34.8403 -34.8402 -34.8335 -34.8335 -34.7781 -34.7781 -34.7352 -34.7350
   -34.6830 -34.6830 -34.6716 -34.6715 -34.6705 -34.6704 -34.6488 -34.6487
   -34.6413 -34.6412 -34.6190 -34.6189 -34.6140 -34.6139 -34.5653 -34.5652
   -34.5639 -34.5637 -34.5111 -34.5109 -34.5078 -34.5076 -34.5069 -34.5068
   -34.5058 -34.5057 -34.4924 -34.4924 -34.4615 -34.4615 -34.4615 -34.4614
    12.2626  12.2626  13.7842  13.7843  14.7000  14.7000  14.8575  14.8576
    14.8996  14.8996  14.9060  14.9060  15.0224  15.0225  15.1381  15.1382
    15.1734  15.1735  15.8951  15.8953  15.9166  15.9167  16.0567  16.0568
    16.0964  16.0965  16.1368  16.1368  16.3394  16.3394  16.7355  16.7355
    16.7385  16.7385  16.7628  16.7629  16.8506  16.8507  16.8654  16.8655
    16.9028  16.9028  16.9322  16.9323  16.9397  16.9397  17.9321  17.9321
    17.9717  17.9717  18.0184  18.0185  18.0852  18.0853  18.1761  18.1761
    18.1868  18.1868  18.1879  18.1879  18.4584  18.4585  18.4688  18.4689
    18.4934  18.4935  18.5444  18.5446  18.6303  18.6304  18.6346  18.6346
    18.7354  18.7354  18.8865  18.8866  18.9478  18.9478  19.0918  19.0918
    19.6753  19.6753  19.7756  19.7757  20.5817  20.5817  21.3368  21.3368
    22.6074  22.6075

          k = 0.0559 0.3911 0.3911 ( 11813 PWs)   bands (ev):

   -68.6693 -68.6503 -68.6502 -68.6362 -68.6117 -68.6080 -68.6079 -68.6046
   -68.6018 -68.6009 -68.6009 -68.5996 -68.5812 -68.5717 -68.5717 -68.5571
   -34.8912 -34.8651 -34.8650 -34.8576 -34.8576 -34.8563 -34.8563 -34.8432
   -34.8429 -34.8409 -34.8396 -34.8265 -34.7801 -34.7407 -34.7029 -34.7029
   -34.6963 -34.6962 -34.6850 -34.6815 -34.6757 -34.6604 -34.6604 -34.6586
   -34.6463 -34.6298 -34.6298 -34.6246 -34.6245 -34.6241 -34.6140 -34.5645
   -34.5581 -34.5352 -34.5351 -34.5187 -34.5132 -34.5107 -34.5014 -34.4984
   -34.4969 -34.4969 -34.4920 -34.4920 -34.4615 -34.4614 -34.4501 -34.4495
    12.1454  13.0694  13.0694  13.6883  14.8042  14.8401  14.8720  14.9023
    14.9023  14.9795  14.9795  15.0053  15.0174  15.0174  15.1022  15.3556
    15.3798  15.4851  15.4851  15.8870  15.9150  15.9261  15.9950  15.9951
    15.9988  15.9988  16.0142  16.0966  16.2627  16.5172  16.5346  16.5346
    16.5828  16.6673  16.6926  16.7322  16.8075  16.8075  16.8277  16.8277
    16.8426  16.8426  16.8737  16.9213  17.0682  17.4610  17.4611  17.9544
    18.0226  18.0327  18.0328  18.0776  18.1137  18.1374  18.1576  18.1576
    18.1657  18.2838  18.3375  18.3375  18.3472  18.3472  18.3779  18.4172
    18.4173  18.4492  18.4517  18.4740  18.5516  18.5516  18.5871  18.6412
    18.7166  18.7485  18.7485  18.8329  18.9152  18.9153  18.9552  18.9828
    19.7259  19.7260  19.7964  19.8918  20.6588  21.4234  21.5013  21.5013
    22.2587  22.2587

          k = 0.0559 0.3911-0.5029 ( 11822 PWs)   bands (ev):

   -68.6606 -68.6604 -68.6438 -68.6436 -68.6100 -68.6098 -68.6064 -68.6063
   -68.6014 -68.6012 -68.6003 -68.6001 -68.5760 -68.5758 -68.5638 -68.5635
   -34.8767 -34.8767 -34.8525 -34.8525 -34.8521 -34.8521 -34.8517 -34.8515
   -34.8498 -34.8496 -34.8416 -34.8416 -34.7391 -34.7391 -34.7235 -34.7233
   -34.6906 -34.6904 -34.6751 -34.6750 -34.6623 -34.6622 -34.6553 -34.6553
   -34.6531 -34.6531 -34.6394 -34.6393 -34.6282 -34.6282 -34.5937 -34.5937
   -34.5456 -34.5455 -34.5170 -34.5168 -34.5044 -34.5043 -34.5035 -34.5034
   -34.5027 -34.5026 -34.4942 -34.4941 -34.4528 -34.4527 -34.4527 -34.4527
    12.5789  12.5789  13.3793  13.3794  14.9029  14.9029  14.9203  14.9203
    14.9411  14.9411  15.1097  15.1098  15.1671  15.1672  15.2352  15.2353
    15.2469  15.2469  15.7743  15.7744  15.9230  15.9230  15.9312  15.9312
    15.9412  15.9413  16.0055  16.0056  16.3790  16.3791  16.5831  16.5831
    16.6305  16.6306  16.6679  16.6680  16.6696  16.6697  16.6889  16.6890
    16.8796  16.8796  16.9040  16.9040  17.1526  17.1526  17.7571  17.7572
    18.0614  18.0615  18.0966  18.0966  18.1860  18.1860  18.1870  18.1870
    18.2289  18.2290  18.2620  18.2621  18.3521  18.3523  18.3908  18.3910
    18.4148  18.4149  18.4355  18.4356  18.4784  18.4785  18.6833  18.6833
    18.6922  18.6922  18.7919  18.7919  18.7929  18.7929  18.9454  18.9454
    19.7899  19.7899  19.8392  19.8393  21.0809  21.0809  21.8528  21.8528
    22.1017  22.1017

          k = 0.0559-0.5029-0.5029 ( 11828 PWs)   bands (ev):

   -68.6530 -68.6528 -68.6528 -68.6526 -68.6083 -68.6081 -68.6081 -68.6079
   -68.6009 -68.6007 -68.6007 -68.6004 -68.5694 -68.5692 -68.5692 -68.5689
   -34.8674 -34.8674 -34.8674 -34.8674 -34.8505 -34.8504 -34.8504 -34.8503
   -34.8448 -34.8447 -34.8447 -34.8446 -34.7085 -34.7083 -34.7083 -34.7081
   -34.6976 -34.6976 -34.6976 -34.6976 -34.6719 -34.6719 -34.6719 -34.6719
   -34.6352 -34.6351 -34.6351 -34.6351 -34.6237 -34.6236 -34.6236 -34.6236
   -34.5300 -34.5299 -34.5299 -34.5297 -34.5018 -34.5017 -34.5017 -34.5016
   -34.4982 -34.4981 -34.4981 -34.4980 -34.4499 -34.4498 -34.4498 -34.4498
    12.9631  12.9631  12.9631  12.9631  14.9367  14.9367  14.9367  14.9368
    15.1041  15.1042  15.1042  15.1042  15.2514  15.2514  15.2514  15.2514
    15.4931  15.4932  15.4932  15.4933  15.8841  15.8841  15.8841  15.8842
    15.9399  15.9400  15.9400  15.9400  16.4620  16.4620  16.4620  16.4620
    16.5855  16.5856  16.5856  16.5857  16.6314  16.6315  16.6315  16.6316
    16.8705  16.8705  16.8705  16.8706  17.4410  17.4410  17.4410  17.4410
    18.1785  18.1786  18.1786  18.1788  18.1814  18.1814  18.1814  18.1814
    18.3085  18.3086  18.3086  18.3087  18.3432  18.3432  18.3432  18.3433
    18.4114  18.4115  18.4115  18.4116  18.4380  18.4380  18.4381  18.4381
    18.7323  18.7323  18.7323  18.7324  18.8531  18.8531  18.8531  18.8531
    19.8452  19.8453  19.8453  19.8453  21.5911  21.5911  21.5911  21.5911
    22.3800  22.3800

          k = 0.1676 0.1676 0.1676 ( 11794 PWs)   bands (ev):

   -68.6918 -68.6309 -68.6309 -68.6309 -68.6102 -68.6102 -68.6102 -68.6007
   -68.5994 -68.5994 -68.5993 -68.5973 -68.5904 -68.5904 -68.5903 -68.5405
   -34.9204 -34.9204 -34.9204 -34.8999 -34.8999 -34.8999 -34.8009 -34.8009
   -34.7994 -34.7921 -34.7921 -34.7921 -34.7540 -34.7463 -34.7463 -34.7111
   -34.7111 -34.7111 -34.6697 -34.6697 -34.6697 -34.6324 -34.6324 -34.6324
   -34.6226 -34.6226 -34.6083 -34.6082 -34.6082 -34.6043 -34.6043 -34.6043
   -34.5769 -34.5769 -34.5769 -34.5689 -34.5292 -34.5292 -34.5291 -34.5028
   -34.4771 -34.4771 -34.4771 -34.4570 -34.4570 -34.4570 -34.4544 -34.4544
    11.0504  13.8869  13.8869  13.8869  14.3149  14.3149  14.3149  14.4440
    14.4440  14.4845  14.4845  14.4845  15.0171  15.0171  15.0171  15.6054
    15.7062  15.7062  15.7062  15.8808  15.8808  15.9524  15.9525  15.9525
    16.0546  16.0546  16.0546  16.2428  16.2428  16.2519  16.5330  16.5330
    16.5330  16.9840  16.9840  17.0174  17.0174  17.0174  17.3747  17.3981
    17.3981  17.3981  17.5380  17.5380  17.5380  17.5948  17.5949  17.5949
    17.9730  17.9730  17.9730  18.1997  18.1997  18.1997  18.2878  18.2878
    18.3225  18.3225  18.3225  18.4773  18.4773  18.4773  18.5279  18.5279
    18.5279  18.5299  18.5300  18.5300  18.5683  18.5683  18.5944  18.5944
    19.0406  19.0500  19.0500  19.0500  19.1042  19.1042  19.1042  19.5435
    19.5435  19.5435  19.6013  19.6013  20.4334  20.4334  20.4334  21.1081
    21.1081  21.1081

          k = 0.1676 0.1676 0.2794 ( 11798 PWs)   bands (ev):

   -68.6864 -68.6445 -68.6290 -68.6289 -68.6145 -68.6144 -68.6092 -68.6022
   -68.5989 -68.5973 -68.5966 -68.5965 -68.5909 -68.5909 -68.5783 -68.5444
   -34.9103 -34.9102 -34.9054 -34.8896 -34.8773 -34.8773 -34.8179 -34.8163
   -34.8162 -34.8103 -34.8071 -34.7894 -34.7861 -34.7420 -34.7420 -34.7341
   -34.7267 -34.6996 -34.6749 -34.6709 -34.6709 -34.6459 -34.6423 -34.6423
   -34.6359 -34.6290 -34.6108 -34.5972 -34.5972 -34.5836 -34.5821 -34.5821
   -34.5794 -34.5794 -34.5480 -34.5471 -34.5294 -34.5104 -34.5104 -34.5067
   -34.4915 -34.4915 -34.4839 -34.4708 -34.4646 -34.4594 -34.4594 -34.4548
    11.3068  13.3010  14.0106  14.0106  14.3052  14.3052  14.5087  14.5507
    14.5621  14.6039  14.6039  14.6569  15.0604  15.0604  15.0828  15.4166
    15.5278  15.7470  15.7471  15.7533  15.8446  15.9235  16.0032  16.0237
    16.0237  16.0780  16.1873  16.1873  16.3418  16.4391  16.4391  16.4521
    16.7167  16.8517  16.8518  16.9140  16.9238  16.9627  17.1308  17.1308
    17.1604  17.1604  17.4073  17.5171  17.5836  17.6288  17.7178  17.7178
    17.7733  17.7734  17.8015  18.0214  18.0214  18.1931  18.2159  18.2480
    18.2480  18.2788  18.3436  18.3736  18.4181  18.4181  18.4481  18.5355
    18.5498  18.5632  18.5817  18.6200  18.6456  18.6456  18.6724  18.6725
    18.7467  18.8201  19.1700  19.1700  19.1827  19.1904  19.1904  19.2361
    19.3859  19.6163  19.6163  19.6410  20.1359  20.1359  21.0951  21.3304
    21.3304  21.9527

          k = 0.1676 0.1676 0.3911 ( 11790 PWs)   bands (ev):

   -68.6787 -68.6572 -68.6261 -68.6260 -68.6187 -68.6186 -68.6076 -68.6040
   -68.5984 -68.5974 -68.5945 -68.5944 -68.5917 -68.5917 -68.5674 -68.5503
   -34.8930 -34.8930 -34.8837 -34.8749 -34.8481 -34.8481 -34.8438 -34.8438
   -34.8376 -34.8230 -34.8165 -34.8157 -34.7777 -34.7777 -34.7732 -34.7276
   -34.7121 -34.7057 -34.6672 -34.6672 -34.6637 -34.6630 -34.6518 -34.6518
   -34.6363 -34.6297 -34.6181 -34.5911 -34.5911 -34.5821 -34.5821 -34.5618
   -34.5560 -34.5559 -34.5481 -34.5267 -34.5216 -34.5099 -34.5099 -34.4944
   -34.4920 -34.4920 -34.4907 -34.4872 -34.4795 -34.4662 -34.4662 -34.4606
    11.6800  12.7069  14.1443  14.1443  14.2908  14.2908  14.7066  14.7178
    14.7460  14.7460  14.7807  14.8925  15.0153  15.0153  15.0215  15.1468
    15.3893  15.4499  15.8397  15.8894  15.9248  15.9248  15.9458  15.9478
    16.1400  16.1400  16.3286  16.3287  16.3881  16.3881  16.6037  16.6963
    16.7277  16.7277  16.7496  16.7496  16.8289  16.8654  16.8656  16.9112
    16.9112  16.9329  17.2064  17.2064  17.2065  17.3537  17.6824  17.7440
    17.8253  17.9818  17.9818  18.0597  18.0631  18.0631  18.0705  18.1760
    18.1760  18.3202  18.3202  18.4216  18.4295  18.4364  18.4630  18.4975
    18.5239  18.5424  18.5491  18.5572  18.6432  18.6693  18.7339  18.7339
    18.7759  18.7759  18.9222  19.1078  19.3387  19.3388  19.3497  19.3498
    19.4002  19.5892  19.5892  19.6142  19.8590  19.8590  21.5953  21.5953
    21.7946  21.9919

          k = 0.1676 0.1676-0.5029 ( 11794 PWs)   bands (ev):

   -68.6689 -68.6687 -68.6227 -68.6227 -68.6225 -68.6224 -68.6060 -68.6058
   -68.5980 -68.5977 -68.5930 -68.5930 -68.5928 -68.5927 -68.5581 -68.5579
   -34.8703 -34.8702 -34.8702 -34.8702 -34.8573 -34.8571 -34.8561 -34.8559
   -34.8187 -34.8186 -34.8142 -34.8142 -34.8142 -34.8142 -34.7523 -34.7521
   -34.6884 -34.6883 -34.6844 -34.6843 -34.6606 -34.6606 -34.6604 -34.6604
   -34.6254 -34.6252 -34.5980 -34.5980 -34.5861 -34.5861 -34.5860 -34.5860
   -34.5315 -34.5315 -34.5315 -34.5315 -34.5170 -34.5168 -34.5089 -34.5087
   -34.4987 -34.4985 -34.4771 -34.4771 -34.4770 -34.4770 -34.4714 -34.4714
    12.1547  12.1547  14.2431  14.2431  14.2432  14.2432  14.8836  14.8837
    14.8935  14.8935  14.8935  14.8935  14.9075  14.9075  15.1063  15.1064
    15.1567  15.1568  15.8578  15.8579  15.9142  15.9143  16.2103  16.2103
    16.2104  16.2104  16.2821  16.2821  16.2821  16.2822  16.6956  16.6956
    16.6957  16.6957  16.8427  16.8427  16.8427  16.8427  16.8474  16.8474
    16.8923  16.8924  16.9480  16.9482  16.9577  16.9578  17.8681  17.8682
    17.9014  17.9015  18.1131  18.1131  18.1132  18.1132  18.1141  18.1142
    18.1719  18.1719  18.1719  18.1719  18.4930  18.4931  18.4983  18.4984
    18.5191  18.5193  18.5499  18.5500  18.7607  18.7607  18.7820  18.7821
    18.7821  18.7821  18.8020  18.8022  19.4921  19.4922  19.4922  19.4922
    19.5302  19.5303  19.5874  19.5874  19.5874  19.5874  21.8416  21.8416
    21.8416  21.8416

          k = 0.1676 0.2794 0.2794 ( 11816 PWs)   bands (ev):

   -68.6813 -68.6417 -68.6417 -68.6270 -68.6208 -68.6132 -68.6132 -68.6044
   -68.5967 -68.5965 -68.5963 -68.5918 -68.5913 -68.5796 -68.5796 -68.5481
   -34.9050 -34.8962 -34.8962 -34.8706 -34.8706 -34.8509 -34.8285 -34.8279
   -34.8278 -34.8277 -34.8163 -34.7943 -34.7866 -34.7629 -34.7365 -34.7114
   -34.7070 -34.7070 -34.7005 -34.7005 -34.6797 -34.6585 -34.6584 -34.6577
   -34.6163 -34.6088 -34.6088 -34.6022 -34.6022 -34.5843 -34.5825 -34.5691
   -34.5614 -34.5581 -34.5511 -34.5510 -34.5315 -34.5096 -34.5003 -34.4937
   -34.4937 -34.4913 -34.4912 -34.4721 -34.4721 -34.4708 -34.4567 -34.4547
    11.5571  13.4674  13.4674  14.1540  14.2062  14.5068  14.5068  14.6487
    14.6829  14.7307  14.7735  14.7735  15.1325  15.1325  15.1661  15.4949
    15.4949  15.4976  15.7074  15.7117  15.8894  15.9870  15.9870  16.0718
    16.1022  16.1043  16.1043  16.2296  16.3121  16.3379  16.4132  16.5853
    16.5853  16.7746  16.7772  16.7825  16.7825  16.8319  16.9099  16.9860
    17.0414  17.0414  17.3089  17.3089  17.3944  17.3944  17.4673  17.6902
    17.8039  17.8039  17.8649  18.1125  18.1801  18.2025  18.2169  18.2169
    18.3201  18.3201  18.3221  18.3841  18.4014  18.4014  18.4302  18.4961
    18.5169  18.5169  18.5268  18.5580  18.5809  18.5809  18.5830  18.6488
    18.7312  18.8183  18.8183  19.1825  19.2765  19.2899  19.2900  19.3584
    19.3585  19.3869  19.6334  19.7028  19.8014  20.7125  20.7125  21.6190
    22.4524  22.4524

          k = 0.1676 0.2794 0.3911 ( 11819 PWs)   bands (ev):

   -68.6740 -68.6537 -68.6377 -68.6270 -68.6243 -68.6172 -68.6114 -68.6068
   -68.5963 -68.5961 -68.5945 -68.5920 -68.5876 -68.5815 -68.5695 -68.5536
   -34.8923 -34.8815 -34.8760 -34.8614 -34.8514 -34.8460 -34.8443 -34.8395
   -34.8327 -34.8252 -34.8215 -34.8185 -34.7893 -34.7722 -34.7440 -34.7277
   -34.7223 -34.6948 -34.6872 -34.6823 -34.6790 -34.6722 -34.6697 -34.6689
   -34.6356 -34.6152 -34.6080 -34.5955 -34.5923 -34.5862 -34.5812 -34.5731
   -34.5564 -34.5414 -34.5406 -34.5308 -34.5253 -34.5172 -34.5065 -34.4982
   -34.4904 -34.4902 -34.4845 -34.4769 -34.4757 -34.4754 -34.4589 -34.4571
    11.9200  12.9069  13.6797  14.0746  14.3149  14.4949  14.7820  14.7896
    14.8515  14.8645  14.9155  15.0019  15.0748  15.0917  15.1759  15.2598
    15.4270  15.4685  15.7127  15.8119  15.8816  15.9429  15.9929  16.0155
    16.0829  16.1666  16.1778  16.2382  16.3744  16.3850  16.4510  16.5460
    16.5605  16.6654  16.6750  16.7140  16.7222  16.7530  16.7692  16.8031
    16.8631  16.9034  16.9771  17.0243  17.0346  17.0888  17.5194  17.8862
    17.8901  17.9965  18.0160  18.1027  18.1245  18.1409  18.1742  18.1764
    18.2688  18.3045  18.3089  18.3229  18.3803  18.4057  18.4181  18.4638
    18.4922  18.5283  18.5501  18.5580  18.5641  18.6057  18.6300  18.6516
    18.7152  18.7354  18.9480  19.0223  19.0282  19.2175  19.3099  19.4968
    19.5032  19.5036  19.6377  19.6866  19.6991  20.3594  21.3307  21.9592
    22.5361  22.6139

          k = 0.1676 0.2794-0.5029 ( 11820 PWs)   bands (ev):

   -68.6648 -68.6646 -68.6328 -68.6326 -68.6210 -68.6208 -68.6093 -68.6091
   -68.5962 -68.5960 -68.5931 -68.5929 -68.5843 -68.5841 -68.5608 -68.5606
   -34.8737 -34.8737 -34.8634 -34.8634 -34.8507 -34.8506 -34.8505 -34.8503
   -34.8315 -34.8314 -34.8182 -34.8182 -34.7822 -34.7822 -34.7521 -34.7519
   -34.7013 -34.7011 -34.6849 -34.6847 -34.6784 -34.6783 -34.6619 -34.6619
   -34.6301 -34.6300 -34.6127 -34.6125 -34.5904 -34.5903 -34.5641 -34.5639
   -34.5549 -34.5549 -34.5221 -34.5221 -34.5138 -34.5136 -34.5060 -34.5059
   -34.5031 -34.5029 -34.4818 -34.4818 -34.4658 -34.4658 -34.4639 -34.4639
    12.3786  12.3786  13.8950  13.8950  14.4375  14.4375  14.9372  14.9373
    14.9913  14.9913  15.0465  15.0466  15.0640  15.0641  15.1263  15.1264
    15.2461  15.2462  15.9025  15.9026  15.9590  15.9591  16.0254  16.0255
    16.0468  16.0469  16.1795  16.1796  16.2994  16.2995  16.6606  16.6607
    16.6757  16.6758  16.7011  16.7011  16.7100  16.7100  16.7290  16.7291
    16.7780  16.7780  16.8119  16.8120  16.8154  16.8154  17.7907  17.7907
    18.0055  18.0055  18.1028  18.1028  18.1401  18.1402  18.1706  18.1706
    18.1747  18.1748  18.2229  18.2229  18.4532  18.4534  18.4765  18.4766
    18.4873  18.4874  18.5595  18.5596  18.5938  18.5939  18.7054  18.7055
    18.7431  18.7432  18.8340  18.8340  19.2148  19.2148  19.2735  19.2735
    19.5928  19.5929  19.6263  19.6263  20.0179  20.0179  21.9668  21.9669
    22.2891  22.2892

          k = 0.1676 0.3911 0.3911 ( 11825 PWs)   bands (ev):

   -68.6672 -68.6487 -68.6487 -68.6350 -68.6217 -68.6151 -68.6151 -68.6097
   -68.5953 -68.5946 -68.5945 -68.5925 -68.5816 -68.5725 -68.5725 -68.5584
   -34.8843 -34.8656 -34.8656 -34.8522 -34.8522 -34.8478 -34.8438 -34.8438
   -34.8406 -34.8369 -34.8302 -34.8056 -34.7840 -34.7605 -34.7232 -34.7203
   -34.7203 -34.7065 -34.7064 -34.6932 -34.6910 -34.6906 -34.6906 -34.6611
   -34.6285 -34.6084 -34.6076 -34.6076 -34.6006 -34.6005 -34.5904 -34.5573
   -34.5545 -34.5331 -34.5330 -34.5260 -34.5253 -34.5097 -34.5045 -34.5045
   -34.4962 -34.4896 -34.4896 -34.4889 -34.4651 -34.4651 -34.4562 -34.4550
    12.2652  13.1808  13.1808  13.8048  14.5202  14.7765  14.7765  14.8792
    14.9619  15.0398  15.0690  15.0690  15.1390  15.1390  15.3207  15.3624
    15.4518  15.4886  15.4886  15.7487  15.9240  15.9532  16.0156  16.0156
    16.0283  16.0283  16.0944  16.1302  16.2373  16.3062  16.4913  16.4950
    16.4951  16.5800  16.6395  16.6519  16.6520  16.6856  16.7049  16.7049
    16.7144  16.7254  16.7255  16.8061  16.8975  17.2202  17.2203  17.7748
    18.0484  18.0484  18.1086  18.1091  18.1586  18.1692  18.2733  18.2781
    18.3353  18.3353  18.3518  18.3518  18.3635  18.3740  18.3740  18.4427
    18.4534  18.5139  18.5139  18.5277  18.5722  18.6126  18.6126  18.6394
    18.6395  18.6994  18.7783  18.8218  19.0668  19.0668  19.1256  19.1989
    19.6122  19.6123  19.6736  19.7322  20.0759  20.8988  20.8988  22.0254
    22.3837  23.1650

          k = 0.1676 0.3911-0.5029 ( 11810 PWs)   bands (ev):

   -68.6587 -68.6585 -68.6425 -68.6423 -68.6187 -68.6185 -68.6126 -68.6124
   -68.5949 -68.5947 -68.5934 -68.5932 -68.5766 -68.5764 -68.5648 -68.5646
   -34.8701 -34.8701 -34.8552 -34.8551 -34.8471 -34.8470 -34.8468 -34.8468
   -34.8418 -34.8417 -34.8245 -34.8244 -34.7459 -34.7459 -34.7427 -34.7425
   -34.7102 -34.7102 -34.7073 -34.7072 -34.6959 -34.6959 -34.6671 -34.6671
   -34.6344 -34.6344 -34.6048 -34.6047 -34.5951 -34.5950 -34.5802 -34.5802
   -34.5440 -34.5438 -34.5137 -34.5137 -34.5127 -34.5126 -34.5066 -34.5065
   -34.5053 -34.5053 -34.4888 -34.4888 -34.4586 -34.4586 -34.4578 -34.4578
    12.6955  12.6956  13.4945  13.4945  14.6920  14.6920  14.9843  14.9844
    15.0310  15.0310  15.0946  15.0947  15.2592  15.2593  15.2780  15.2780
    15.3566  15.3566  15.7781  15.7782  15.8851  15.8852  15.9305  15.9305
    15.9571  15.9572  16.0741  16.0742  16.3487  16.3487  16.4548  16.4549
    16.5481  16.5482  16.5528  16.5528  16.5580  16.5580  16.5992  16.5992
    16.7580  16.7581  16.7627  16.7627  16.9477  16.9478  17.4724  17.4725
    18.1186  18.1187  18.1888  18.1888  18.2258  18.2259  18.2350  18.2350
    18.3355  18.3355  18.3597  18.3597  18.3861  18.3862  18.4275  18.4277
    18.4668  18.4670  18.4730  18.4731  18.5787  18.5788  18.5899  18.5900
    18.6594  18.6595  18.8896  18.8897  18.9092  18.9092  19.0863  19.0863
    19.6696  19.6696  19.6992  19.6992  20.4825  20.4825  21.4559  21.4560
    22.8085  22.8085

          k = 0.1676-0.5029-0.5029 ( 11824 PWs)   bands (ev):

   -68.6513 -68.6511 -68.6511 -68.6509 -68.6159 -68.6157 -68.6157 -68.6155
   -68.5941 -68.5940 -68.5940 -68.5937 -68.5702 -68.5700 -68.5700 -68.5697
   -34.8605 -34.8605 -34.8605 -34.8605 -34.8489 -34.8488 -34.8488 -34.8487
   -34.8326 -34.8325 -34.8325 -34.8325 -34.7271 -34.7270 -34.7270 -34.7268
   -34.7083 -34.7083 -34.7082 -34.7082 -34.7068 -34.7068 -34.7067 -34.7067
   -34.6070 -34.6069 -34.6069 -34.6069 -34.5995 -34.5995 -34.5995 -34.5995
   -34.5268 -34.5267 -34.5267 -34.5265 -34.5082 -34.5082 -34.5082 -34.5081
   -34.4977 -34.4976 -34.4976 -34.4975 -34.4558 -34.4558 -34.4558 -34.4558
    13.0798  13.0798  13.0798  13.0798  14.9421  14.9421  14.9421  14.9421
    15.0223  15.0223  15.0223  15.0223  15.4158  15.4158  15.4158  15.4158
    15.5119  15.5120  15.5120  15.5121  15.8296  15.8296  15.8296  15.8296
    16.0010  16.0010  16.0010  16.0010  16.4267  16.4268  16.4268  16.4269
    16.4331  16.4331  16.4331  16.4331  16.5394  16.5394  16.5394  16.5395
    16.7380  16.7381  16.7381  16.7382  17.1848  17.1848  17.1848  17.1848
    18.1932  18.1932  18.1932  18.1932  18.3045  18.3046  18.3046  18.3047
    18.3912  18.3913  18.3913  18.3914  18.4078  18.4079  18.4079  18.4080
    18.4204  18.4204  18.4204  18.4205  18.6237  18.6238  18.6238  18.6239
    18.6294  18.6295  18.6295  18.6295  18.9612  18.9612  18.9612  18.9612
    19.7119  19.7119  19.7119  19.7119  20.9636  20.9636  20.9636  20.9637
    23.3408  23.3408

          k = 0.2794 0.2794 0.2794 ( 11806 PWs)   bands (ev):

   -68.6765 -68.6391 -68.6391 -68.6390 -68.6192 -68.6192 -68.6191 -68.6076
   -68.5948 -68.5919 -68.5919 -68.5919 -68.5808 -68.5808 -68.5807 -68.5515
   -34.8906 -34.8906 -34.8906 -34.8482 -34.8482 -34.8482 -34.8354 -34.8354
   -34.8354 -34.8338 -34.8045 -34.8045 -34.7750 -34.7750 -34.7301 -34.7301
   -34.7301 -34.7111 -34.7111 -34.7111 -34.6869 -34.6772 -34.6772 -34.6772
   -34.5867 -34.5867 -34.5867 -34.5861 -34.5855 -34.5854 -34.5854 -34.5787
   -34.5787 -34.5526 -34.5526 -34.5526 -34.5201 -34.5064 -34.5064 -34.5064
   -34.4856 -34.4856 -34.4856 -34.4699 -34.4699 -34.4699 -34.4654 -34.4654
    11.8027  13.6454  13.6454  13.6454  14.4208  14.4208  14.4208  14.7737
    14.7737  14.8984  14.8985  14.8985  15.2668  15.2668  15.2668  15.4864
    15.4864  15.4864  15.5099  15.8825  15.8825  15.9056  16.0343  16.0343
    16.0343  16.2173  16.2173  16.2173  16.2294  16.2294  16.4545  16.4545
    16.4545  16.6820  16.6820  16.6820  16.7174  16.7174  16.7174  16.7907
    16.7907  17.0592  17.0592  17.0592  17.1224  17.1224  17.1224  17.8853
    17.9048  17.9048  17.9048  18.0960  18.2631  18.2631  18.2891  18.2891
    18.2891  18.3181  18.3181  18.3181  18.3791  18.3791  18.3791  18.5018
    18.5018  18.5018  18.5232  18.5232  18.6204  18.6205  18.6205  18.6435
    18.6435  18.9743  18.9744  18.9744  19.3277  19.3277  19.3278  19.4031
    19.4031  19.4031  19.4192  19.4192  20.2958  20.2958  20.2958  22.6169
    22.7491  22.7491

          k = 0.2794 0.2794 0.3911 ( 11814 PWs)   bands (ev):

   -68.6695 -68.6504 -68.6352 -68.6352 -68.6250 -68.6250 -68.6169 -68.6109
   -68.5936 -68.5922 -68.5881 -68.5880 -68.5825 -68.5825 -68.5714 -68.5565
   -34.8790 -34.8790 -34.8696 -34.8482 -34.8482 -34.8448 -34.8377 -34.8363
   -34.8206 -34.8206 -34.8195 -34.8108 -34.7876 -34.7590 -34.7590 -34.7521
   -34.7401 -34.7131 -34.7131 -34.7012 -34.6939 -34.6937 -34.6937 -34.6618
   -34.6197 -34.6109 -34.5887 -34.5857 -34.5738 -34.5738 -34.5624 -34.5624
   -34.5567 -34.5567 -34.5447 -34.5249 -34.5222 -34.5222 -34.5117 -34.5050
   -34.4894 -34.4810 -34.4793 -34.4793 -34.4740 -34.4708 -34.4708 -34.4637
    12.1576  13.1125  13.8743  13.8743  14.2943  14.2943  14.7253  14.9055
    14.9370  15.0345  15.0345  15.1233  15.2349  15.2699  15.2701  15.2701
    15.4974  15.5028  15.6539  15.6539  15.9017  15.9872  16.0451  16.0880
    16.1195  16.1195  16.1292  16.2541  16.2541  16.3427  16.3427  16.3693
    16.4757  16.4757  16.5680  16.5899  16.5900  16.6260  16.6321  16.6936
    16.7324  16.7593  16.8120  16.8120  16.8189  16.8189  17.2140  17.7618
    17.9847  18.0460  18.0461  18.1072  18.1804  18.2846  18.2846  18.3079
    18.3079  18.3356  18.3356  18.3457  18.4040  18.4102  18.4842  18.5084
    18.5153  18.5192  18.5206  18.5206  18.5707  18.6005  18.6134  18.6135
    18.6516  18.7452  19.1239  19.1473  19.2633  19.2633  19.3514  19.3515
    19.4325  19.4326  19.4367  19.4920  19.9323  19.9323  20.8438  22.0032
    23.0946  23.0946

          k = 0.2794 0.2794-0.5029 ( 11824 PWs)   bands (ev):

   -68.6608 -68.6606 -68.6306 -68.6306 -68.6304 -68.6303 -68.6141 -68.6139
   -68.5929 -68.5926 -68.5850 -68.5850 -68.5849 -68.5848 -68.5633 -68.5631
   -34.8640 -34.8639 -34.8639 -34.8639 -34.8428 -34.8426 -34.8413 -34.8411
   -34.8306 -34.8305 -34.7903 -34.7903 -34.7903 -34.7902 -34.7660 -34.7658
   -34.7269 -34.7268 -34.7066 -34.7065 -34.7064 -34.7064 -34.6565 -34.6565
   -34.6365 -34.6364 -34.5887 -34.5886 -34.5638 -34.5638 -34.5637 -34.5637
   -34.5409 -34.5409 -34.5409 -34.5408 -34.5147 -34.5145 -34.5067 -34.5066
   -34.5010 -34.5008 -34.4742 -34.4742 -34.4742 -34.4742 -34.4668 -34.4668
    12.6034  12.6034  14.1065  14.1065  14.1065  14.1065  15.0732  15.0733
    15.0970  15.0971  15.1065  15.1065  15.1664  15.1664  15.1664  15.1664
    15.3570  15.3571  15.9397  15.9398  15.9557  15.9557  15.9558  15.9558
    16.0007  16.0008  16.2300  16.2300  16.2301  16.2301  16.4220  16.4221
    16.5065  16.5065  16.6076  16.6077  16.6077  16.6077  16.6172  16.6172
    16.6173  16.6173  16.6367  16.6368  16.6587  16.6588  17.4573  17.4573
    18.0830  18.0830  18.1890  18.1890  18.1891  18.1891  18.3078  18.3078
    18.3079  18.3079  18.3448  18.3448  18.4425  18.4427  18.4472  18.4474
    18.5144  18.5145  18.5196  18.5197  18.5705  18.5705  18.5706  18.5706
    18.8543  18.8545  18.9023  18.9023  19.4030  19.4031  19.4031  19.4031
    19.4951  19.4952  19.5906  19.5907  19.5907  19.5907  21.4153  21.4153
    23.3938  23.3938

          k = 0.2794 0.3911 0.3911 ( 11809 PWs)   bands (ev):

   -68.6631 -68.6456 -68.6456 -68.6326 -68.6317 -68.6223 -68.6222 -68.6150
   -68.5915 -68.5889 -68.5888 -68.5840 -68.5825 -68.5741 -68.5741 -68.5610
   -34.8704 -34.8600 -34.8600 -34.8469 -34.8453 -34.8452 -34.8336 -34.8249
   -34.8241 -34.8241 -34.8148 -34.7908 -34.7845 -34.7789 -34.7600 -34.7416
   -34.7415 -34.7263 -34.7246 -34.7246 -34.7188 -34.7188 -34.7150 -34.6530
   -34.6361 -34.5858 -34.5858 -34.5738 -34.5738 -34.5727 -34.5586 -34.5552
   -34.5439 -34.5409 -34.5330 -34.5299 -34.5299 -34.5150 -34.5150 -34.5091
   -34.4890 -34.4880 -34.4880 -34.4826 -34.4716 -34.4716 -34.4687 -34.4665
    12.4984  13.3943  13.3943  14.0307  14.1303  14.6038  14.6038  15.0191
    15.1067  15.1340  15.2407  15.2407  15.2636  15.2636  15.3299  15.4764
    15.4915  15.4915  15.5713  15.6038  15.9541  15.9888  16.0606  16.0606
    16.0620  16.0885  16.0885  16.0887  16.1903  16.2368  16.2825  16.4048
    16.4048  16.4268  16.4268  16.4636  16.4795  16.5139  16.5139  16.5557
    16.5558  16.5868  16.6160  16.6411  16.6522  16.9234  16.9234  17.4290
    18.1042  18.1043  18.1384  18.2165  18.2968  18.3349  18.3422  18.3422
    18.3471  18.3582  18.4334  18.4334  18.4385  18.4455  18.4557  18.5062
    18.5062  18.5106  18.5170  18.5170  18.5481  18.5481  18.5859  18.6221
    18.8002  18.9234  18.9234  19.0369  19.1672  19.1673  19.2337  19.4382
    19.4382  19.4574  19.4816  19.5714  19.6277  20.4144  20.4145  21.4474
    23.5178  24.1419

          k = 0.2794 0.3911-0.5029 ( 11812 PWs)   bands (ev):

   -68.6551 -68.6549 -68.6397 -68.6395 -68.6274 -68.6272 -68.6189 -68.6187
   -68.5901 -68.5899 -68.5862 -68.5860 -68.5779 -68.5777 -68.5670 -68.5668
   -34.8580 -34.8580 -34.8513 -34.8512 -34.8369 -34.8368 -34.8364 -34.8364
   -34.8287 -34.8286 -34.8015 -34.8015 -34.7663 -34.7661 -34.7579 -34.7578
   -34.7432 -34.7431 -34.7320 -34.7319 -34.7283 -34.7283 -34.6887 -34.6887
   -34.6107 -34.6107 -34.5727 -34.5726 -34.5641 -34.5640 -34.5622 -34.5622
   -34.5403 -34.5402 -34.5279 -34.5278 -34.5103 -34.5102 -34.5099 -34.5097
   -34.5070 -34.5068 -34.4860 -34.4860 -34.4696 -34.4696 -34.4675 -34.4675
    12.9213  12.9213  13.7165  13.7165  14.3953  14.3953  14.9721  14.9722
    15.1375  15.1375  15.2034  15.2034  15.3056  15.3057  15.4044  15.4044
    15.4965  15.4965  15.7818  15.7819  15.8448  15.8449  15.9551  15.9551
    16.0015  16.0016  16.1472  16.1472  16.2450  16.2451  16.2938  16.2938
    16.3338  16.3338  16.4105  16.4106  16.4549  16.4549  16.4975  16.4976
    16.5523  16.5523  16.5880  16.5881  16.6718  16.6719  17.1370  17.1370
    18.1720  18.1721  18.2202  18.2202  18.2452  18.2452  18.3926  18.3927
    18.4067  18.4069  18.4480  18.4481  18.4586  18.4587  18.4665  18.4666
    18.5136  18.5137  18.5511  18.5512  18.5557  18.5558  18.6282  18.6282
    18.7951  18.7952  18.9478  18.9479  19.1845  19.1845  19.2396  19.2396
    19.4703  19.4703  19.4725  19.4725  20.0131  20.0131  20.9215  20.9215
    23.9178  23.9179

          k = 0.2794-0.5029-0.5029 ( 11820 PWs)   bands (ev):

   -68.6480 -68.6479 -68.6479 -68.6476 -68.6235 -68.6233 -68.6233 -68.6231
   -68.5880 -68.5879 -68.5879 -68.5876 -68.5720 -68.5718 -68.5718 -68.5715
   -34.8476 -34.8475 -34.8475 -34.8475 -34.8402 -34.8401 -34.8401 -34.8400
   -34.8150 -34.8150 -34.8150 -34.8149 -34.7530 -34.7529 -34.7529 -34.7527
   -34.7433 -34.7433 -34.7433 -34.7433 -34.7234 -34.7234 -34.7233 -34.7233
   -34.5857 -34.5857 -34.5857 -34.5857 -34.5657 -34.5657 -34.5657 -34.5657
   -34.5208 -34.5207 -34.5207 -34.5205 -34.5178 -34.5177 -34.5177 -34.5177
   -34.4990 -34.4989 -34.4989 -34.4988 -34.4676 -34.4676 -34.4676 -34.4676
    13.3054  13.3055  13.3055  13.3055  14.7128  14.7129  14.7129  14.7129
    15.1853  15.1854  15.1854  15.1854  15.5474  15.5474  15.5474  15.5475
    15.6038  15.6038  15.6038  15.6038  15.7731  15.7731  15.7731  15.7732
    16.0699  16.0700  16.0700  16.0700  16.2580  16.2581  16.2581  16.2582
    16.3483  16.3483  16.3483  16.3484  16.3797  16.3797  16.3798  16.3798
    16.5469  16.5469  16.5469  16.5470  16.8624  16.8625  16.8625  16.8625
    18.2321  18.2322  18.2322  18.2322  18.3193  18.3194  18.3194  18.3195
    18.3999  18.4000  18.4000  18.4002  18.5313  18.5314  18.5314  18.5315
    18.5483  18.5484  18.5484  18.5484  18.6267  18.6268  18.6268  18.6269
    18.9246  18.9246  18.9246  18.9246  19.0256  19.0257  19.0257  19.0258
    19.4861  19.4861  19.4862  19.4862  20.4581  20.4582  20.4582  20.4582
    24.4506  24.4506

          k = 0.3911 0.3911 0.3911 ( 11779 PWs)   bands (ev):

   -68.6572 -68.6411 -68.6411 -68.6411 -68.6292 -68.6292 -68.6291 -68.6201
   -68.5883 -68.5839 -68.5839 -68.5838 -68.5765 -68.5765 -68.5765 -68.5650
   -34.8503 -34.8503 -34.8503 -34.8394 -34.8394 -34.8394 -34.8234 -34.8071
   -34.8071 -34.8003 -34.8003 -34.8003 -34.7940 -34.7940 -34.7569 -34.7569
   -34.7569 -34.7480 -34.7480 -34.7480 -34.7425 -34.7425 -34.7425 -34.6828
   -34.6112 -34.5641 -34.5641 -34.5641 -34.5515 -34.5515 -34.5515 -34.5400
   -34.5400 -34.5294 -34.5294 -34.5294 -34.5282 -34.5282 -34.5282 -34.5120
   -34.4874 -34.4873 -34.4873 -34.4828 -34.4828 -34.4794 -34.4794 -34.4793
    12.8311  13.6887  13.6887  13.6887  14.3497  14.3497  14.3497  15.1052
    15.2028  15.2028  15.3722  15.3723  15.3723  15.4589  15.4589  15.4589
    15.5062  15.5062  15.5062  15.7175  16.0026  16.0026  16.0253  16.0253
    16.0764  16.0764  16.0764  16.1292  16.1293  16.1293  16.2294  16.2294
    16.2294  16.3369  16.3370  16.3370  16.3734  16.3734  16.3734  16.4059
    16.4059  16.4059  16.5153  16.5153  16.6377  16.6378  16.6378  17.0955
    18.1872  18.1872  18.1872  18.2936  18.2936  18.3376  18.3377  18.3377
    18.4512  18.4512  18.4571  18.4571  18.4571  18.4827  18.4827  18.4827
    18.5286  18.5286  18.5286  18.6370  18.6564  18.6565  18.6565  18.7664
    18.7664  19.1909  19.1909  19.2108  19.2108  19.2108  19.2609  19.2609
    19.2609  19.2872  19.2872  19.2872  20.0003  20.0003  20.0003  20.9342
    24.7843  24.7843

          k = 0.3911 0.3911-0.5029 ( 11794 PWs)   bands (ev):

   -68.6498 -68.6496 -68.6357 -68.6357 -68.6355 -68.6354 -68.6250 -68.6248
   -68.5859 -68.5857 -68.5799 -68.5799 -68.5797 -68.5796 -68.5703 -68.5700
   -34.8413 -34.8413 -34.8413 -34.8412 -34.8257 -34.8256 -34.8246 -34.8244
   -34.8118 -34.8117 -34.7842 -34.7840 -34.7743 -34.7743 -34.7743 -34.7742
   -34.7696 -34.7695 -34.7575 -34.7575 -34.7574 -34.7574 -34.7153 -34.7153
   -34.5870 -34.5870 -34.5465 -34.5464 -34.5449 -34.5448 -34.5448 -34.5448
   -34.5363 -34.5363 -34.5362 -34.5362 -34.5187 -34.5186 -34.5113 -34.5111
   -34.5040 -34.5038 -34.4851 -34.4850 -34.4850 -34.4850 -34.4793 -34.4793
    13.2399  13.2399  14.0260  14.0260  14.0260  14.0260  14.7302  14.7303
    15.3226  15.3227  15.3898  15.3898  15.4441  15.4441  15.4441  15.4441
    15.6417  15.6418  15.7770  15.7770  15.7771  15.7771  16.0071  16.0072
    16.0554  16.0554  16.0637  16.0638  16.1425  16.1425  16.2239  16.2239
    16.2239  16.2239  16.3413  16.3413  16.3414  16.3414  16.3957  16.3957
    16.3957  16.3957  16.4264  16.4264  16.4304  16.4306  16.8130  16.8130
    18.2422  18.2422  18.2759  18.2759  18.2760  18.2760  18.3843  18.3845
    18.3919  18.3920  18.4554  18.4555  18.4572  18.4572  18.4573  18.4573
    18.6303  18.6303  18.6303  18.6303  18.6735  18.6736  18.9140  18.9142
    18.9372  18.9373  18.9649  18.9651  19.2256  19.2256  19.2256  19.2257
    19.2745  19.2745  19.6209  19.6209  19.6209  19.6210  20.4561  20.4561
    25.1080  25.1080

          k = 0.3911-0.5029-0.5029 ( 11776 PWs)   bands (ev):

   -68.6434 -68.6432 -68.6432 -68.6430 -68.6308 -68.6307 -68.6307 -68.6304
   -68.5826 -68.5825 -68.5825 -68.5822 -68.5746 -68.5744 -68.5744 -68.5742
   -34.8286 -34.8285 -34.8285 -34.8285 -34.8249 -34.8248 -34.8248 -34.8246
   -34.7930 -34.7929 -34.7929 -34.7929 -34.7800 -34.7799 -34.7799 -34.7797
   -34.7756 -34.7756 -34.7756 -34.7756 -34.7448 -34.7447 -34.7447 -34.7447
   -34.5647 -34.5646 -34.5646 -34.5646 -34.5347 -34.5347 -34.5347 -34.5347
   -34.5300 -34.5300 -34.5300 -34.5299 -34.5141 -34.5140 -34.5140 -34.5138
   -34.5027 -34.5026 -34.5026 -34.5025 -34.4852 -34.4852 -34.4852 -34.4852
    13.6227  13.6228  13.6228  13.6228  14.3861  14.3861  14.3861  14.3861
    15.4085  15.4085  15.4085  15.4085  15.5961  15.5962  15.5962  15.5963
    15.7136  15.7137  15.7137  15.7137  15.7615  15.7615  15.7615  15.7616
    16.1469  16.1469  16.1470  16.1470  16.1633  16.1634  16.1634  16.1635
    16.1838  16.1839  16.1839  16.1840  16.3086  16.3086  16.3086  16.3086
    16.3625  16.3625  16.3625  16.3626  16.5411  16.5412  16.5412  16.5412
    18.2926  18.2926  18.2926  18.2927  18.3425  18.3426  18.3426  18.3427
    18.3860  18.3861  18.3861  18.3862  18.4470  18.4470  18.4470  18.4471
    18.7302  18.7303  18.7303  18.7303  18.8230  18.8231  18.8231  18.8232
    19.0276  19.0276  19.0276  19.0277  19.2211  19.2211  19.2211  19.2211
    19.2681  19.2682  19.2682  19.2682  20.0275  20.0276  20.0276  20.0276
    25.6545  25.6545

          k =-0.5029-0.5029-0.5029 ( 11752 PWs)   bands (ev):

   -68.6375 -68.6374 -68.6374 -68.6374 -68.6372 -68.6372 -68.6372 -68.6369
   -68.5783 -68.5781 -68.5781 -68.5781 -68.5780 -68.5780 -68.5780 -68.5776
   -34.8047 -34.8047 -34.8047 -34.8046 -34.8046 -34.8046 -34.8046 -34.8046
   -34.8045 -34.8045 -34.8044 -34.8044 -34.8044 -34.8043 -34.8043 -34.8043
   -34.7686 -34.7686 -34.7686 -34.7686 -34.7685 -34.7685 -34.7685 -34.7685
   -34.5461 -34.5460 -34.5460 -34.5460 -34.5460 -34.5459 -34.5459 -34.5459
   -34.5076 -34.5076 -34.5076 -34.5075 -34.5075 -34.5075 -34.5075 -34.5075
   -34.5074 -34.5074 -34.5073 -34.5073 -34.5073 -34.5072 -34.5072 -34.5072
    14.0003  14.0003  14.0003  14.0003  14.0003  14.0003  14.0003  14.0003
    15.6530  15.6530  15.6530  15.6530  15.6530  15.6531  15.6531  15.6531
    15.6531  15.6531  15.6531  15.6531  15.6531  15.6531  15.6532  15.6532
    16.2288  16.2288  16.2288  16.2288  16.2288  16.2288  16.2288  16.2288
    16.2289  16.2289  16.2289  16.2289  16.2289  16.2290  16.2290  16.2290
    16.2606  16.2607  16.2607  16.2607  16.2607  16.2607  16.2607  16.2607
    18.3664  18.3664  18.3664  18.3664  18.3664  18.3665  18.3665  18.3665
    18.3665  18.3665  18.3665  18.3666  18.3666  18.3666  18.3667  18.3667
    18.9595  18.9595  18.9595  18.9595  18.9595  18.9595  18.9596  18.9596
    18.9597  18.9597  18.9597  18.9597  18.9597  18.9598  18.9598  18.9598
    19.6367  19.6367  19.6367  19.6367  19.6367  19.6368  19.6368  19.6368
    26.8201  26.8201

 ------ SPIN DOWN ----------


          k = 0.0559 0.0559 0.0559 ( 11786 PWs)   bands (ev):

   -66.2357 -66.1473 -66.1472 -66.1472 -66.1330 -66.1329 -66.1329 -66.1316
   -66.1316 -66.1316 -66.1313 -66.1313 -66.1313 -66.1252 -66.1246 -66.0566
   -32.5593 -32.5593 -32.5593 -32.5566 -32.5566 -32.5566 -32.4052 -32.4052
   -32.3992 -32.3327 -32.3304 -32.3304 -32.3304 -32.3097 -32.3097 -32.2974
   -32.2974 -32.2974 -32.2630 -32.2630 -32.2400 -32.2254 -32.2254 -32.2253
   -32.2148 -32.2148 -32.2148 -32.2025 -32.2025 -32.2025 -32.1995 -32.1995
   -32.1995 -32.1919 -32.1919 -32.1919 -32.1820 -32.1819 -32.1819 -32.0300
   -32.0281 -32.0281 -32.0281 -32.0258 -32.0258 -32.0258 -32.0232 -32.0232
    10.8083  14.7802  14.7802  14.7802  15.3869  15.3869  15.3869  15.4152
    15.4153  15.4153  15.4260  15.4260  15.4260  16.0450  16.0450  17.1518
    17.2300  17.2300  17.3346  17.3346  17.3532  17.4129  17.4129  17.4130
    17.4264  17.4264  17.4264  18.1678  18.1678  18.1678  18.5612  18.5612
    18.5612  18.7675  18.7675  18.8150  19.0389  19.0389  19.0389  19.1867
    19.1867  19.1867  19.2262  19.2262  19.2262  19.3340  19.3340  19.3341
    19.7839  19.7839  19.7839  19.8331  19.8332  19.8332  20.1292  20.1292
    20.1292  20.3805  20.3805  20.3805  20.8632  20.8632  20.8632  20.8885
    20.8885  20.8885  21.0559  21.0559  21.3401  21.3401  21.3401  21.3875
    21.3875  21.3885  21.3885  21.4878  21.4878  21.4878  21.5772  21.6610
    21.6610  21.9262  21.9262  21.9263  22.0349  22.0349  22.0349  22.0820
    22.0820  22.0820

          k = 0.0559 0.0559 0.1676 ( 11795 PWs)   bands (ev):

   -66.2327 -66.1632 -66.1466 -66.1465 -66.1347 -66.1347 -66.1324 -66.1313
   -66.1313 -66.1310 -66.1305 -66.1305 -66.1257 -66.1250 -66.1165 -66.0588
   -32.5520 -32.5520 -32.5511 -32.5485 -32.5438 -32.5438 -32.4080 -32.3989
   -32.3895 -32.3672 -32.3592 -32.3592 -32.3572 -32.3562 -32.3276 -32.3276
   -32.2949 -32.2694 -32.2600 -32.2584 -32.2474 -32.2252 -32.2252 -32.2175
   -32.2082 -32.2059 -32.2059 -32.2049 -32.2047 -32.1973 -32.1973 -32.1924
   -32.1924 -32.1882 -32.1882 -32.1595 -32.1566 -32.1566 -32.1502 -32.0440
   -32.0368 -32.0368 -32.0356 -32.0330 -32.0291 -32.0285 -32.0284 -32.0259
    10.9424  14.0764  14.8493  14.8493  15.3648  15.3649  15.4711  15.4711
    15.4854  15.4854  15.4862  15.5237  15.9147  16.0960  16.1129  17.0548
    17.1392  17.1756  17.2561  17.3891  17.4010  17.4638  17.4638  17.4680
    17.4949  17.5037  17.5037  17.7591  18.0715  18.0715  18.3810  18.3810
    18.7400  18.7600  18.7957  18.8295  18.8296  18.8769  18.8969  19.0055
    19.0055  19.2482  19.4169  19.4169  19.4363  19.4363  19.4592  19.4946
    19.4946  19.4974  19.4975  19.5115  19.5296  19.5625  19.8838  20.3557
    20.3557  20.6018  20.6018  20.6302  20.7816  20.7816  20.8519  20.8519
    20.8896  20.9116  20.9756  21.0876  21.3433  21.3474  21.3501  21.3836
    21.3862  21.3903  21.4100  21.4337  21.4337  21.5097  21.6542  21.7215
    21.7366  21.7366  21.9251  21.9251  21.9456  21.9456  22.1240  22.1241
    22.2653  22.2653

          k = 0.0559 0.0559 0.2794 ( 11785 PWs)   bands (ev):

   -66.2265 -66.1787 -66.1453 -66.1453 -66.1368 -66.1367 -66.1316 -66.1310
   -66.1310 -66.1302 -66.1300 -66.1300 -66.1266 -66.1258 -66.1026 -66.0634
   -32.5348 -32.5348 -32.5344 -32.5323 -32.5215 -32.5215 -32.4087 -32.4062
   -32.4008 -32.3984 -32.3983 -32.3869 -32.3782 -32.3755 -32.3690 -32.3690
   -32.2903 -32.2809 -32.2790 -32.2645 -32.2234 -32.2234 -32.2188 -32.2185
   -32.2139 -32.2097 -32.2097 -32.1954 -32.1954 -32.1926 -32.1926 -32.1742
   -32.1669 -32.1555 -32.1555 -32.1287 -32.1257 -32.1256 -32.1201 -32.0671
   -32.0509 -32.0509 -32.0498 -32.0482 -32.0397 -32.0369 -32.0368 -32.0349
    11.2073  13.3657  14.9706  14.9706  15.3463  15.3463  15.5583  15.5583
    15.5590  15.5590  15.6768  15.7111  16.1858  16.2322  16.2472  16.8776
    16.9019  17.1648  17.1940  17.3455  17.3552  17.3688  17.5765  17.5765
    17.6423  17.6423  17.6829  17.7138  17.9813  17.9813  18.2273  18.2273
    18.5429  18.5429  18.7000  18.7000  18.7193  18.7492  18.7938  18.7990
    18.9506  18.9507  18.9695  19.0270  19.0270  19.1120  19.1176  19.5781
    19.6518  19.7369  19.7402  19.7402  19.7522  19.7522  19.8474  20.6498
    20.6498  20.6616  20.6616  20.7494  20.7494  20.8179  20.8707  20.8980
    20.8980  20.9407  20.9586  21.1096  21.1480  21.2402  21.2771  21.2820
    21.3492  21.3746  21.3774  21.3810  21.5569  21.5569  21.5716  21.5813
    21.7842  21.7842  21.8360  21.8360  21.9202  21.9202  22.2503  22.2503
    22.3126  22.3126

          k = 0.0559 0.0559 0.3911 ( 11801 PWs)   bands (ev):

   -66.2177 -66.1933 -66.1435 -66.1435 -66.1391 -66.1391 -66.1308 -66.1307
   -66.1303 -66.1300 -66.1300 -66.1292 -66.1277 -66.1268 -66.0900 -66.0701
   -32.5101 -32.5094 -32.5094 -32.5090 -32.4913 -32.4913 -32.4443 -32.4421
   -32.4392 -32.4392 -32.4125 -32.4124 -32.4069 -32.3930 -32.3690 -32.3572
   -32.3201 -32.3083 -32.2653 -32.2539 -32.2325 -32.2265 -32.2207 -32.2207
   -32.2136 -32.2136 -32.1941 -32.1941 -32.1928 -32.1928 -32.1768 -32.1344
   -32.1305 -32.1236 -32.1236 -32.1006 -32.0982 -32.0964 -32.0964 -32.0928
   -32.0709 -32.0706 -32.0703 -32.0703 -32.0555 -32.0514 -32.0514 -32.0494
    11.5960  12.6949  15.1113  15.1113  15.3093  15.3093  15.6260  15.6260
    15.6354  15.6354  15.9428  15.9716  16.2897  16.3689  16.4453  16.5930
    16.5981  17.0131  17.1878  17.1992  17.2900  17.2977  17.7461  17.7461
    17.8366  17.8366  17.9621  17.9899  17.9899  17.9918  18.1556  18.1556
    18.2830  18.2830  18.3919  18.3919  18.5136  18.5136  18.6062  18.6063
    18.6885  18.7073  18.7081  18.7397  18.7406  18.7596  19.0948  19.4395
    19.9503  20.0040  20.0040  20.0568  20.0654  20.0654  20.1767  20.4717
[...]
   -32.0635 -32.0635 -32.0635 -32.0465 -32.0465 -32.0465 -32.0413 -32.0413
    11.9703  13.9528  13.9528  13.9528  15.1750  15.1750  15.1750  16.2159
    16.2159  16.2159  16.5397  16.5397  16.5441  16.5441  16.5441  16.6161
    16.8328  17.2837  17.2837  17.3173  17.3173  17.3173  17.5464  17.5464
    17.5465  17.5487  17.5487  17.7409  17.7409  17.7409  18.1483  18.1483
    18.1484  18.2126  18.2126  18.2126  18.2215  18.2216  18.2216  18.2382
    18.2383  18.2383  18.4430  18.4430  18.6803  18.6803  18.6803  19.6334
    19.7499  20.1863  20.1863  20.1863  20.2645  20.2645  20.2645  20.5482
    20.5482  20.5482  20.6348  20.6348  20.6348  20.8687  20.8687  20.8687
    20.9421  20.9421  21.1669  21.1669  21.2421  21.2421  21.2677  21.2677
    21.2677  21.3109  21.3109  21.3109  21.3214  21.3214  21.4597  21.4597
    21.4597  21.5287  21.5287  21.5288  21.9947  21.9947  21.9947  24.0313
    24.1610  24.1610

          k = 0.2794 0.2794 0.3911 ( 11814 PWs)   bands (ev):

   -66.2026 -66.1819 -66.1655 -66.1655 -66.1544 -66.1544 -66.1456 -66.1392
   -66.1205 -66.1190 -66.1146 -66.1145 -66.1086 -66.1086 -66.0966 -66.0806
   -32.4960 -32.4960 -32.4858 -32.4618 -32.4618 -32.4589 -32.4509 -32.4484
   -32.4323 -32.4323 -32.4292 -32.4210 -32.3940 -32.3646 -32.3646 -32.3563
   -32.3419 -32.3124 -32.3124 -32.2997 -32.2930 -32.2912 -32.2912 -32.2559
   -32.2113 -32.2003 -32.1762 -32.1736 -32.1597 -32.1596 -32.1473 -32.1473
   -32.1411 -32.1410 -32.1286 -32.1063 -32.1035 -32.1035 -32.0920 -32.0846
   -32.0680 -32.0583 -32.0566 -32.0566 -32.0508 -32.0475 -32.0474 -32.0395
    12.3346  13.3483  14.2250  14.2250  14.8731  14.8731  15.4829  16.2595
    16.4001  16.4001  16.4391  16.6128  16.6128  16.6608  16.6877  16.7232
    16.8161  17.0886  17.3335  17.3654  17.3654  17.4194  17.4486  17.4765
    17.5886  17.6495  17.6496  17.7075  17.8020  17.8021  17.9348  17.9684
    17.9684  18.0206  18.0206  18.0581  18.1053  18.1053  18.1091  18.1091
    18.2060  18.2351  18.3250  18.3831  18.4168  18.4168  18.8151  19.3725
    19.8658  20.2860  20.2860  20.3767  20.4168  20.4466  20.4466  20.4527
    20.4527  20.4534  20.7117  20.7925  20.7925  20.8082  20.9423  20.9423
    20.9468  21.0157  21.0349  21.0485  21.1462  21.1913  21.2522  21.2522
    21.2555  21.2675  21.3043  21.3624  21.3675  21.3676  21.3922  21.4169
    21.4310  21.4310  21.5099  21.5099  21.6860  21.6860  22.4720  23.5004
    24.4627  24.4627

          k = 0.2794 0.2794-0.5029 ( 11824 PWs)   bands (ev):

   -66.1931 -66.1930 -66.1605 -66.1604 -66.1603 -66.1603 -66.1426 -66.1425
   -66.1197 -66.1195 -66.1113 -66.1113 -66.1111 -66.1111 -66.0879 -66.0877
   -32.4793 -32.4793 -32.4792 -32.4792 -32.4563 -32.4561 -32.4548 -32.4547
   -32.4417 -32.4417 -32.3990 -32.3990 -32.3990 -32.3989 -32.3703 -32.3701
   -32.3283 -32.3282 -32.3053 -32.3052 -32.3051 -32.3051 -32.2519 -32.2519
   -32.2282 -32.2282 -32.1765 -32.1764 -32.1488 -32.1488 -32.1487 -32.1487
   -32.1238 -32.1238 -32.1238 -32.1237 -32.0957 -32.0955 -32.0864 -32.0863
   -32.0801 -32.0799 -32.0512 -32.0512 -32.0511 -32.0511 -32.0429 -32.0429
    12.8002  12.8003  14.5442  14.5442  14.5442  14.5442  15.8574  15.8574
    16.5516  16.5516  16.5516  16.5516  16.6685  16.6686  16.7448  16.7449
    16.8740  16.8741  17.4015  17.4017  17.4676  17.4677  17.5598  17.5599
    17.5599  17.5599  17.6514  17.6514  17.7932  17.7933  17.7933  17.7933
    17.8830  17.8830  18.0638  18.0639  18.0640  18.0640  18.1795  18.1795
    18.1795  18.1795  18.2421  18.2421  18.3127  18.3129  19.0481  19.0481
    20.1157  20.1157  20.3624  20.3625  20.3625  20.3625  20.6404  20.6404
    20.6405  20.6405  20.6410  20.6411  20.7019  20.7021  20.8795  20.8796
    21.0432  21.0433  21.1710  21.1711  21.1935  21.1935  21.1935  21.1936
    21.2521  21.2521  21.2638  21.2640  21.4349  21.4351  21.4475  21.4475
    21.4475  21.4475  21.4596  21.4596  21.4596  21.4597  22.9809  22.9810
    24.6985  24.6985

          k = 0.2794 0.3911 0.3911 ( 11809 PWs)   bands (ev):

   -66.1957 -66.1767 -66.1766 -66.1626 -66.1616 -66.1514 -66.1514 -66.1436
   -66.1182 -66.1154 -66.1154 -66.1103 -66.1085 -66.0996 -66.0995 -66.0855
   -32.4863 -32.4750 -32.4750 -32.4605 -32.4583 -32.4583 -32.4464 -32.4361
   -32.4361 -32.4353 -32.4254 -32.3996 -32.3907 -32.3864 -32.3649 -32.3436
   -32.3436 -32.3271 -32.3268 -32.3268 -32.3191 -32.3191 -32.3145 -32.2479
   -32.2279 -32.1728 -32.1728 -32.1600 -32.1600 -32.1592 -32.1434 -32.1393
   -32.1270 -32.1238 -32.1157 -32.1117 -32.1117 -32.0954 -32.0954 -32.0890
   -32.0671 -32.0664 -32.0664 -32.0602 -32.0482 -32.0482 -32.0452 -32.0426
    12.6871  13.6567  13.6567  14.4525  14.5077  15.1795  15.1795  15.9320
    16.6016  16.6204  16.6204  16.7661  16.7726  16.8045  16.8045  16.8313
    16.8985  17.1865  17.1865  17.3169  17.4141  17.4413  17.4468  17.5717
    17.5717  17.6110  17.6110  17.6837  17.6853  17.7333  17.8446  17.8446
    17.8473  17.9056  17.9056  17.9405  18.0248  18.0249  18.0306  18.0615
    18.1386  18.1386  18.1914  18.2054  18.2872  18.4979  18.4979  18.9976
    20.1254  20.4159  20.4493  20.4518  20.4518  20.5975  20.6013  20.6013
    20.6390  20.6390  20.6868  20.6868  20.8132  20.8373  20.8812  20.8812
    20.9127  20.9670  21.0298  21.0903  21.1575  21.1861  21.1975  21.2330
    21.2500  21.2500  21.2539  21.2539  21.3039  21.3340  21.3341  21.3395
    21.3884  21.4137  21.4137  21.5039  21.5122  22.1078  22.1078  23.0235
    24.8482  25.3415

          k = 0.2794 0.3911-0.5029 ( 11812 PWs)   bands (ev):

   -66.1870 -66.1868 -66.1703 -66.1701 -66.1570 -66.1568 -66.1478 -66.1476
   -66.1166 -66.1165 -66.1126 -66.1124 -66.1036 -66.1034 -66.0919 -66.0917
   -32.4724 -32.4724 -32.4653 -32.4653 -32.4497 -32.4495 -32.4482 -32.4482
   -32.4410 -32.4409 -32.4113 -32.4112 -32.3708 -32.3706 -32.3634 -32.3633
   -32.3461 -32.3461 -32.3332 -32.3330 -32.3295 -32.3294 -32.2873 -32.2873
   -32.2001 -32.2000 -32.1590 -32.1589 -32.1493 -32.1492 -32.1471 -32.1470
   -32.1231 -32.1229 -32.1095 -32.1094 -32.0903 -32.0902 -32.0902 -32.0901
   -32.0867 -32.0865 -32.0640 -32.0640 -32.0461 -32.0460 -32.0437 -32.0437
    13.1347  13.1347  14.0349  14.0350  14.8397  14.8397  15.5477  15.5478
    16.7485  16.7485  16.7645  16.7645  16.8304  16.8305  16.8408  16.8409
    17.0067  17.0067  17.4162  17.4162  17.4263  17.4264  17.4573  17.4573
    17.4892  17.4894  17.6117  17.6118  17.7014  17.7015  17.7841  17.7841
    17.8488  17.8490  17.8591  17.8591  18.0006  18.0007  18.0770  18.0771
    18.0972  18.0972  18.2075  18.2076  18.2303  18.2303  18.6907  18.6907
    20.4017  20.4017  20.4272  20.4273  20.5602  20.5602  20.6753  20.6754
    20.7406  20.7407  20.7445  20.7446  20.7511  20.7512  20.8216  20.8217
    20.9868  20.9869  21.0044  21.0044  21.1213  21.1214  21.2093  21.2094
    21.2127  21.2127  21.2412  21.2414  21.2512  21.2513  21.3019  21.3019
    21.4209  21.4210  21.4722  21.4722  21.7667  21.7667  22.5603  22.5604
    25.1904  25.1904

          k = 0.2794-0.5029-0.5029 ( 11820 PWs)   bands (ev):

   -66.1793 -66.1791 -66.1791 -66.1790 -66.1528 -66.1526 -66.1526 -66.1524
   -66.1145 -66.1143 -66.1143 -66.1142 -66.0972 -66.0970 -66.0970 -66.0968
   -32.4607 -32.4607 -32.4607 -32.4606 -32.4532 -32.4531 -32.4531 -32.4530
   -32.4261 -32.4260 -32.4260 -32.4259 -32.3563 -32.3561 -32.3561 -32.3560
   -32.3462 -32.3462 -32.3462 -32.3461 -32.3255 -32.3254 -32.3254 -32.3253
   -32.1728 -32.1727 -32.1727 -32.1726 -32.1513 -32.1513 -32.1513 -32.1513
   -32.1018 -32.1016 -32.1016 -32.1015 -32.0984 -32.0983 -32.0983 -32.0983
   -32.0783 -32.0782 -32.0782 -32.0781 -32.0439 -32.0439 -32.0439 -32.0438
    13.5544  13.5545  13.5545  13.5545  15.1895  15.1895  15.1895  15.1895
    16.8405  16.8406  16.8406  16.8407  16.9078  16.9078  16.9078  16.9078
    17.2167  17.2168  17.2168  17.2169  17.3583  17.3584  17.3584  17.3585
    17.6010  17.6010  17.6010  17.6011  17.6795  17.6796  17.6796  17.6797
    17.8545  17.8545  17.8545  17.8546  17.9597  17.9597  17.9598  17.9598
    18.1298  18.1300  18.1300  18.1301  18.4034  18.4034  18.4034  18.4034
    20.5471  20.5472  20.5472  20.5473  20.7033  20.7033  20.7033  20.7034
    20.7199  20.7199  20.7199  20.7200  20.7941  20.7942  20.7942  20.7943
    20.8756  20.8757  20.8757  20.8758  21.1169  21.1170  21.1170  21.1171
    21.2201  21.2202  21.2202  21.2202  21.2475  21.2476  21.2476  21.2477
    21.4576  21.4576  21.4576  21.4577  22.1547  22.1548  22.1548  22.1549
    25.6739  25.6739

          k = 0.3911 0.3911 0.3911 ( 11779 PWs)   bands (ev):

   -66.1892 -66.1718 -66.1718 -66.1718 -66.1590 -66.1589 -66.1589 -66.1491
   -66.1147 -66.1100 -66.1100 -66.1100 -66.1022 -66.1021 -66.1021 -66.0898
   -32.4642 -32.4642 -32.4641 -32.4520 -32.4519 -32.4519 -32.4352 -32.4158
   -32.4158 -32.4100 -32.4100 -32.4100 -32.4023 -32.4023 -32.3607 -32.3607
   -32.3607 -32.3525 -32.3525 -32.3525 -32.3451 -32.3451 -32.3451 -32.2806
   -32.2006 -32.1490 -32.1490 -32.1490 -32.1356 -32.1356 -32.1356 -32.1233
   -32.1233 -32.1113 -32.1113 -32.1113 -32.1098 -32.1098 -32.1098 -32.0920
   -32.0656 -32.0656 -32.0656 -32.0604 -32.0604 -32.0567 -32.0567 -32.0567
    13.0311  13.9679  13.9679  13.9679  14.7658  14.7658  14.7658  15.5542
    16.8305  16.8305  16.8305  16.9308  16.9308  16.9981  16.9981  16.9981
    17.0777  17.1836  17.1836  17.1836  17.4840  17.4840  17.5081  17.5081
    17.6376  17.6376  17.6376  17.6543  17.6543  17.6543  17.7507  17.7507
    17.7507  17.8248  17.8248  17.8248  17.9415  17.9415  17.9415  17.9428
    17.9428  17.9428  18.1277  18.1277  18.1799  18.1799  18.1800  18.6144
    20.4087  20.6143  20.6143  20.6143  20.6459  20.6460  20.6460  20.7245
    20.7245  20.7246  20.9046  20.9046  20.9046  20.9491  20.9491  21.0040
    21.0040  21.0040  21.0251  21.0251  21.1111  21.1111  21.1298  21.1298
    21.1836  21.1836  21.1836  21.2286  21.2286  21.2286  21.2930  21.2930
    21.2930  21.3030  21.3030  21.3030  21.7311  21.7311  21.7311  22.5768
    25.9603  25.9603

          k = 0.3911 0.3911-0.5029 ( 11794 PWs)   bands (ev):

   -66.1812 -66.1810 -66.1660 -66.1659 -66.1658 -66.1658 -66.1544 -66.1542
   -66.1122 -66.1120 -66.1058 -66.1057 -66.1056 -66.1056 -66.0954 -66.0952
   -32.4541 -32.4541 -32.4540 -32.4540 -32.4365 -32.4364 -32.4358 -32.4357
   -32.4225 -32.4224 -32.3907 -32.3905 -32.3814 -32.3814 -32.3813 -32.3813
   -32.3752 -32.3751 -32.3615 -32.3615 -32.3614 -32.3614 -32.3165 -32.3164
   -32.1741 -32.1740 -32.1302 -32.1302 -32.1280 -32.1280 -32.1279 -32.1279
   -32.1189 -32.1189 -32.1188 -32.1188 -32.0993 -32.0992 -32.0919 -32.0917
   -32.0836 -32.0834 -32.0630 -32.0630 -32.0630 -32.0629 -32.0566 -32.0566
    13.4656  13.4656  14.3484  14.3485  14.3485  14.3485  15.1463  15.1463
    16.9852  16.9852  16.9852  16.9852  17.0433  17.0433  17.0515  17.0516
    17.0605  17.0606  17.3755  17.3756  17.3756  17.3756  17.5116  17.5117
    17.5675  17.5677  17.5765  17.5765  17.6208  17.6209  17.7766  17.7767
    17.7767  17.7767  17.8664  17.8664  17.8665  17.8665  17.9198  17.9198
    17.9198  17.9198  18.0070  18.0070  18.0378  18.0380  18.3151  18.3151
    20.6612  20.6612  20.6612  20.6612  20.7096  20.7096  20.8420  20.8421
    20.8428  20.8428  20.8429  20.8429  20.8451  20.8452  20.8535  20.8536
    21.0146  21.0147  21.0773  21.0774  21.1365  21.1365  21.1610  21.1611
    21.1630  21.1630  21.1631  21.1631  21.2350  21.2351  21.2686  21.2686
    21.2686  21.2686  21.3846  21.3846  21.3847  21.3847  22.1482  22.1483
    26.2513  26.2513

          k = 0.3911-0.5029-0.5029 ( 11776 PWs)   bands (ev):

   -66.1742 -66.1740 -66.1740 -66.1739 -66.1607 -66.1605 -66.1605 -66.1603
   -66.1087 -66.1085 -66.1085 -66.1083 -66.1001 -66.0999 -66.0999 -66.0997
   -32.4398 -32.4398 -32.4398 -32.4398 -32.4361 -32.4359 -32.4359 -32.4358
   -32.4018 -32.4017 -32.4017 -32.4016 -32.3862 -32.3860 -32.3860 -32.3859
   -32.3816 -32.3816 -32.3816 -32.3816 -32.3489 -32.3488 -32.3488 -32.3487
   -32.1496 -32.1496 -32.1496 -32.1495 -32.1173 -32.1173 -32.1173 -32.1173
   -32.1117 -32.1117 -32.1117 -32.1116 -32.0946 -32.0944 -32.0944 -32.0943
   -32.0823 -32.0822 -32.0822 -32.0821 -32.0631 -32.0631 -32.0631 -32.0631
    13.8790  13.8790  13.8790  13.8790  14.7308  14.7308  14.7308  14.7308
    17.0647  17.0648  17.0648  17.0648  17.2078  17.2078  17.2078  17.2079
    17.2519  17.2519  17.2519  17.2520  17.3257  17.3257  17.3257  17.3258
    17.6726  17.6726  17.6726  17.6726  17.6881  17.6881  17.6881  17.6882
    17.6915  17.6916  17.6916  17.6917  17.8765  17.8765  17.8765  17.8765
    17.9373  17.9375  17.9375  17.9376  18.0201  18.0201  18.0201  18.0201
    20.7980  20.7981  20.7981  20.7981  20.8258  20.8258  20.8258  20.8259
    20.8986  20.8988  20.8988  20.8989  20.9528  20.9529  20.9529  20.9530
    21.0367  21.0367  21.0367  21.0368  21.0763  21.0765  21.0765  21.0766
    21.1311  21.1312  21.1312  21.1312  21.1447  21.1448  21.1448  21.1450
    21.2130  21.2130  21.2130  21.2131  21.7580  21.7581  21.7581  21.7582
    26.7721  26.7721

          k =-0.5029-0.5029-0.5029 ( 11752 PWs)   bands (ev):

   -66.1680 -66.1677 -66.1677 -66.1677 -66.1676 -66.1676 -66.1676 -66.1674
   -66.1041 -66.1038 -66.1038 -66.1038 -66.1037 -66.1037 -66.1037 -66.1035
   -32.4136 -32.4136 -32.4136 -32.4135 -32.4135 -32.4134 -32.4134 -32.4134
   -32.4133 -32.4133 -32.4133 -32.4133 -32.4133 -32.4133 -32.4133 -32.4133
   -32.3750 -32.3750 -32.3750 -32.3750 -32.3749 -32.3749 -32.3749 -32.3748
   -32.1293 -32.1292 -32.1292 -32.1292 -32.1291 -32.1291 -32.1291 -32.1291
   -32.0876 -32.0876 -32.0876 -32.0875 -32.0875 -32.0875 -32.0875 -32.0875
   -32.0874 -32.0874 -32.0874 -32.0873 -32.0873 -32.0873 -32.0873 -32.0873
    14.2810  14.2811  14.2811  14.2811  14.2811  14.2811  14.2811  14.2811
    17.2894  17.2894  17.2895  17.2895  17.2895  17.2895  17.2895  17.2895
    17.2895  17.2895  17.2895  17.2896  17.2896  17.2896  17.2896  17.2896
    17.6831  17.6831  17.6831  17.6831  17.6832  17.6832  17.6832  17.6832
    17.7829  17.7829  17.7829  17.7830  17.7830  17.7830  17.7831  17.7831
    17.7832  17.7832  17.7832  17.7832  17.7832  17.7832  17.7832  17.7832
    20.9935  20.9935  20.9935  20.9936  20.9936  20.9936  20.9936  20.9936
    20.9936  20.9936  20.9937  20.9937  20.9937  20.9937  20.9937  20.9937
    21.0212  21.0212  21.0214  21.0214  21.0214  21.0214  21.0214  21.0214
    21.0215  21.0215  21.0215  21.0215  21.0215  21.0215  21.0216  21.0216
    21.3903  21.3903  21.3903  21.3903  21.3904  21.3904  21.3904  21.3905
    27.8649  27.8649

     the Fermi energy is    19.3912 ev

!    total energy              =   -5268.18031143 Ry
     Harris-Foulkes estimate   =   -5268.18031018 Ry
     estimated scf accuracy    <       0.00000036 Ry

     total all-electron energy =    -40728.924840 Ry

     The total energy is the sum of the following terms:

     one-electron contribution =   -1681.88457691 Ry
     hartree contribution      =    1013.11765908 Ry
     xc contribution           =    -444.45100257 Ry
     ewald contribution        =   -2830.40371826 Ry
     one-center paw contrib.   =   -1324.67442098 Ry
     smearing contrib. (-TS)   =       0.11574821 Ry

     total magnetization       =    32.60 Bohr mag/cell
     absolute magnetization    =    34.28 Bohr mag/cell

     convergence has been achieved in  18 iterations

     negative rho (up, down):  0.000E+00 2.357E-03

     Forces acting on atoms (cartesian axes, Ry/au):

     atom    1 type  1   force =     0.00000000    0.00000000    0.00000000
     atom    2 type  2   force =     0.00001698    0.00001698    0.00001698
     atom    3 type  1   force =     0.00000000    0.00000000    0.00000000
     atom    4 type  2   force =     0.00001698    0.00001698   -0.00001698
     atom    5 type  1   force =     0.00000000    0.00000000   -0.00000000
     atom    6 type  2   force =     0.00001698   -0.00001698    0.00001698
     atom    7 type  1   force =     0.00000000    0.00000000    0.00000000
     atom    8 type  2   force =     0.00001698   -0.00001698   -0.00001698
     atom    9 type  1   force =     0.00000000    0.00000000    0.00000000
     atom   10 type  2   force =    -0.00001698    0.00001698    0.00001698
     atom   11 type  1   force =     0.00000000    0.00000000    0.00000000
     atom   12 type  2   force =    -0.00001698    0.00001698   -0.00001698
     atom   13 type  1   force =     0.00000000    0.00000000   -0.00000000
     atom   14 type  2   force =    -0.00001698   -0.00001698    0.00001698
     atom   15 type  1   force =     0.00000000    0.00000000    0.00000000
     atom   16 type  2   force =    -0.00001698   -0.00001698   -0.00001698

     Total force =     0.000083     Total SCF correction =     0.001836
     SCF correction compared to forces is large: reduce conv_thr to get better values


     Computing stress (Cartesian axis) and pressure


     negative rho (up, down):  0.000E+00 2.357E-03
          total   stress  (Ry/bohr**3)                   (kbar)     P=   39.52
   0.00026863   0.00000000   0.00000000         39.52      0.00      0.00
   0.00000000   0.00026863   0.00000000          0.00     39.52      0.00
   0.00000000   0.00000000   0.00026863          0.00      0.00     39.52


     Writing output data file EMadHMOehsqHFvRA.save/
 
     init_run     :      7.32s CPU      7.61s WALL (       1 calls)
     electrons    :    459.10s CPU    468.86s WALL (       1 calls)
     forces       :      2.43s CPU      2.53s WALL (       1 calls)
     stress       :     10.04s CPU     10.10s WALL (       1 calls)

     Called by init_run:
     wfcinit      :      6.68s CPU      6.89s WALL (       1 calls)
     potinit      :      0.30s CPU      0.32s WALL (       1 calls)
     hinit0       :      0.16s CPU      0.18s WALL (       1 calls)

     Called by electrons:
     c_bands      :    409.06s CPU    416.63s WALL (      19 calls)
     sum_band     :     43.95s CPU     45.63s WALL (      19 calls)
     v_of_rho     :      0.46s CPU      0.50s WALL (      19 calls)
     newd         :      0.94s CPU      1.17s WALL (      19 calls)
     PAW_pot      :      4.80s CPU      5.02s WALL (      19 calls)
     mix_rho      :      0.12s CPU      0.13s WALL (      19 calls)

     Called by c_bands:
     init_us_2    :      2.83s CPU      2.89s WALL (    2870 calls)
     cegterg      :    393.59s CPU    401.02s WALL (    1330 calls)

     Called by sum_band:
     sum_band:bec :      0.47s CPU      0.48s WALL (    1330 calls)
     addusdens    :      1.88s CPU      2.11s WALL (      19 calls)

     Called by *egterg:
     h_psi        :    172.10s CPU    177.23s WALL (    4588 calls)
     s_psi        :     12.67s CPU     12.72s WALL (    4588 calls)
     g_psi        :      0.61s CPU      0.62s WALL (    3188 calls)
     cdiaghg      :    166.18s CPU    166.61s WALL (    4448 calls)

     Called by h_psi:
     h_psi:pot    :    170.78s CPU    175.90s WALL (    4588 calls)
     h_psi:calbec :     14.71s CPU     15.86s WALL (    4588 calls)
     vloc_psi     :    143.11s CPU    147.03s WALL (    4588 calls)
     add_vuspsi   :     12.92s CPU     12.98s WALL (    4588 calls)

     General routines
     calbec       :     23.73s CPU     25.49s WALL (    6268 calls)
     fft          :      0.37s CPU      0.41s WALL (     517 calls)
     ffts         :      0.03s CPU      0.04s WALL (      76 calls)
     fftw         :    163.36s CPU    167.80s WALL ( 1135526 calls)
     interpolate  :      0.05s CPU      0.05s WALL (      38 calls)
 
     Parallel routines
     fft_scatt_xy :     13.99s CPU     14.37s WALL ( 1136119 calls)
     fft_scatt_yz :     92.83s CPU     95.42s WALL ( 1136119 calls)
 
     PWSCF        :  8m 2.41s CPU     8m20.34s WALL

 
   This run was terminated on:  22:48:24  13Jun2020            

=------------------------------------------------------------------------------=
   JOB DONE.
=------------------------------------------------------------------------------=
