
     Program PWSCF v.6.3 starts on  8Oct2020 at  4:18:28 

     This program is part of the open-source Quantum ESPRESSO suite
     for quantum simulation of materials; please cite
         "P. Giannozzi et al., J. Phys.:Condens. Matter 21 395502 (2009);
         "P. Giannozzi et al., J. Phys.:Condens. Matter 29 465901 (2017);
          URL http://www.quantum-espresso.org", 
     in publications or presentations arising from this work. More details at
     http://www.quantum-espresso.org/quote

     Parallel version (MPI & OpenMP), running on      40 processor cores
     Number of MPI processes:                40
     Threads/MPI process:                     1

     MPI processes distributed on     1 nodes
     R & G space division:  proc/nbgrp/npool/nimage =      40
     Reading input from wd/eos/eos_005.in
Warning: card &IONS ignored
Warning: card ION_DYNAMICS = 'BFGS', ignored
Warning: card / ignored
Warning: card &CELL ignored
Warning: card CELL_DYNAMICS = 'BFGS', ignored
Warning: card CELL_FACTOR = 2.0, ignored
Warning: card PRESS = 0.0, ignored
Warning: card / ignored

     Current dimensions of program PWSCF are:
     Max number of different atomic species (ntypx) = 10
     Max number of k-points (npk) =  40000
     Max angular momentum in pseudopotentials (lmaxx) =  3
               file Fe.pbe-spn-kjpaw_psl.1.0.0.UPF: wavefunction(s)  3P 3D renormalized
               file Fe.pbe-spn-kjpaw_psl.1.0.0.UPF: wavefunction(s)  3P 3D renormalized
               file Fe.pbe-spn-kjpaw_psl.1.0.0.UPF: wavefunction(s)  3P 3D renormalized
               file Fe.pbe-spn-kjpaw_psl.1.0.0.UPF: wavefunction(s)  3P 3D renormalized

     Subspace diagonalization in iterative solution of the eigenvalue problem:
     a serial algorithm will be used

     Found symmetry operation: I + (  0.0000  0.0000 -0.5000)
     This is a supercell, fractional translations are disabled
 
     Parallelization info
     --------------------
     sticks:   dense  smooth     PW     G-vecs:    dense   smooth      PW
     Min         153     100     27                 8769     4706     677
     Max         154     101     28                 8773     4711     682
     Sum        6127    4029   1119               350859   188353   27199
 


     bravais-lattice index     =            0
     lattice parameter (alat)  =      12.9382  a.u.
     unit-cell volume          =    2329.7397 (a.u.)^3
     number of atoms/cell      =           32
     number of atomic types    =            4
     number of electrons       =       512.00
     number of Kohn-Sham states=          307
     kinetic-energy cutoff     =      71.0000  Ry
     charge density cutoff     =     430.0000  Ry
     convergence threshold     =      1.0E-06
     mixing beta               =       0.1000
     number of iterations used =           10  plain     mixing
     Exchange-correlation      = SLA PW PBX PBC ( 1  4  3  4 0 0)

     celldm(1)=  12.938187  celldm(2)=   0.000000  celldm(3)=   0.000000
     celldm(4)=   0.000000  celldm(5)=   0.000000  celldm(6)=   0.000000

     crystal axes: (cart. coord. in units of alat)
               a(1) = (   1.006667   0.000000   0.000000 )  
               a(2) = (   0.000000   1.061504   0.000000 )  
               a(3) = (   0.000000   0.000000   1.006654 )  

     reciprocal axes: (cart. coord. in units 2 pi/alat)
               b(1) = (  0.993377  0.000000  0.000000 )  
               b(2) = (  0.000000  0.942060  0.000000 )  
               b(3) = (  0.000000  0.000000  0.993390 )  


     PseudoPot. # 1 for Fe read from file:
     /rds/homes/b/bxp912/pp/Fe.pbe-spn-kjpaw_psl.1.0.0.UPF
     MD5 check sum: 42f43b795421b414b0dc916aa790dbcb
     Pseudo is Projector augmented-wave + core cor, Zval = 16.0
     Generated using "atomic" code by A. Dal Corso v.6.3
     Shape of augmentation charge: PSQ
     Using radial grid of 1191 points,  6 beta functions with: 
                l(1) =   0
                l(2) =   0
                l(3) =   1
                l(4) =   1
                l(5) =   2
                l(6) =   2
     Q(r) pseudized with 0 coefficients 


     PseudoPot. # 2 for Fe read from file:
     /rds/homes/b/bxp912/pp/Fe.pbe-spn-kjpaw_psl.1.0.0.UPF
     MD5 check sum: 42f43b795421b414b0dc916aa790dbcb
     Pseudo is Projector augmented-wave + core cor, Zval = 16.0
     Generated using "atomic" code by A. Dal Corso v.6.3
     Shape of augmentation charge: PSQ
     Using radial grid of 1191 points,  6 beta functions with: 
                l(1) =   0
                l(2) =   0
                l(3) =   1
                l(4) =   1
                l(5) =   2
                l(6) =   2
     Q(r) pseudized with 0 coefficients 


     PseudoPot. # 3 for Fe read from file:
     /rds/homes/b/bxp912/pp/Fe.pbe-spn-kjpaw_psl.1.0.0.UPF
     MD5 check sum: 42f43b795421b414b0dc916aa790dbcb
     Pseudo is Projector augmented-wave + core cor, Zval = 16.0
     Generated using "atomic" code by A. Dal Corso v.6.3
     Shape of augmentation charge: PSQ
     Using radial grid of 1191 points,  6 beta functions with: 
                l(1) =   0
                l(2) =   0
                l(3) =   1
                l(4) =   1
                l(5) =   2
                l(6) =   2
     Q(r) pseudized with 0 coefficients 


     PseudoPot. # 4 for Fe read from file:
     /rds/homes/b/bxp912/pp/Fe.pbe-spn-kjpaw_psl.1.0.0.UPF
     MD5 check sum: 42f43b795421b414b0dc916aa790dbcb
     Pseudo is Projector augmented-wave + core cor, Zval = 16.0
     Generated using "atomic" code by A. Dal Corso v.6.3
     Shape of augmentation charge: PSQ
     Using radial grid of 1191 points,  6 beta functions with: 
                l(1) =   0
                l(2) =   0
                l(3) =   1
                l(4) =   1
                l(5) =   2
                l(6) =   2
     Q(r) pseudized with 0 coefficients 


     atomic species   valence    mass     pseudopotential
        Fe1           16.00    55.84500     Fe( 1.00)
        Fe2           16.00    55.84500     Fe( 1.00)
        Fe3           16.00    55.84500     Fe( 1.00)
        Fe4           16.00    55.84500     Fe( 1.00)

     Starting magnetic structure 
     atomic species   magnetization
        Fe1          0.100
        Fe2         -0.100
        Fe3          0.100
        Fe4         -0.100

      8 Sym. Ops., with inversion, found



   Cartesian axes

     site n.     atom                  positions (alat units)
         1           Fe1 tau(   1) = (   0.0000000   0.0000000   0.0000000  )
         2           Fe2 tau(   2) = (   0.2516635   0.2653786   0.0000000  )
         3           Fe3 tau(   3) = (   0.2516648   0.0000000   0.2516614  )
         4           Fe4 tau(   4) = (   0.0000000   0.2653771   0.2516674  )
         5           Fe1 tau(   5) = (   0.0000000   0.0000000   0.5033268  )
         6           Fe2 tau(   6) = (   0.2516663   0.2653814   0.5033268  )
         7           Fe3 tau(   7) = (   0.2516648   0.0000000   0.7549912  )
         8           Fe4 tau(   8) = (   0.0000000   0.2653771   0.7549851  )
         9           Fe1 tau(   9) = (   0.0000000   0.5307519   0.0000000  )
        10           Fe2 tau(  10) = (   0.2516635   0.7961253   0.0000000  )
        11           Fe3 tau(  11) = (   0.2516670   0.5307519   0.2516654  )
        12           Fe4 tau(  12) = (   0.0000000   0.7961267   0.2516674  )
        13           Fe1 tau(  13) = (   0.0000000   0.5307519   0.5033268  )
        14           Fe2 tau(  14) = (   0.2516663   0.7961224   0.5033268  )
        15           Fe3 tau(  15) = (   0.2516670   0.5307519   0.7549882  )
        16           Fe4 tau(  16) = (   0.0000000   0.7961267   0.7549851  )
        17           Fe1 tau(  17) = (   0.5033331   0.0000000   0.0000000  )
        18           Fe2 tau(  18) = (   0.7550027   0.2653786   0.0000000  )
        19           Fe3 tau(  19) = (   0.7550015   0.0000000   0.2516614  )
        20           Fe4 tau(  20) = (   0.5033331   0.2653761   0.2516654  )
        21           Fe1 tau(  21) = (   0.5033331   0.0000000   0.5033268  )
        22           Fe2 tau(  22) = (   0.7549998   0.2653814   0.5033268  )
        23           Fe3 tau(  23) = (   0.7550015   0.0000000   0.7549912  )
        24           Fe4 tau(  24) = (   0.5033331   0.2653761   0.7549871  )
        25           Fe1 tau(  25) = (   0.5033331   0.5307519   0.0000000  )
        26           Fe2 tau(  26) = (   0.7550027   0.7961253   0.0000000  )
        27           Fe3 tau(  27) = (   0.7549992   0.5307519   0.2516654  )
        28           Fe4 tau(  28) = (   0.5033331   0.7961277   0.2516654  )
        29           Fe1 tau(  29) = (   0.5033331   0.5307519   0.5033268  )
        30           Fe2 tau(  30) = (   0.7549998   0.7961224   0.5033268  )
        31           Fe3 tau(  31) = (   0.7549992   0.5307519   0.7549882  )
        32           Fe4 tau(  32) = (   0.5033331   0.7961277   0.7549871  )

     number of k points=   125  Marzari-Vanderbilt smearing, width (Ry)=  0.0400

     Number of k-points >= 100: set verbosity='high' to print them.

     Dense  grid:   350859 G-vectors     FFT dimensions: (  90,  96,  90)

     Smooth grid:   188353 G-vectors     FFT dimensions: (  72,  75,  72)

     Estimated max dynamical RAM per process >     825.95 MB

     Estimated total dynamical RAM >      32.26 GB
     Generating pointlists ...
     new r_m :   0.1468 (alat units)  1.8995 (a.u.) for type    1
     new r_m :   0.1468 (alat units)  1.8995 (a.u.) for type    2
     new r_m :   0.1468 (alat units)  1.8995 (a.u.) for type    3
     new r_m :   0.1468 (alat units)  1.8995 (a.u.) for type    4

     Check: negative/imaginary core charge=   -0.000006    0.000000

     Initial potential from superposition of free atoms

     starting charge  511.98600, renormalised to  512.00000
     Starting wfcs are  320 randomized atomic wfcs
     Checking if some PAW data can be deallocated... 

     total cpu time spent up to now is       88.3 secs

     Self-consistent Calculation

     iteration #  1     ecut=    71.00 Ry     beta= 0.10
     Davidson diagonalization with overlap
     ethr =  1.00E-02,  avg # of iterations =  3.5

     Threshold (ethr) on eigenvalues was too large:
     Diagonalizing with lowered threshold

     Davidson diagonalization with overlap
     ethr =  3.01E-04,  avg # of iterations =  4.1

     total cpu time spent up to now is     1051.8 secs

     total energy              =  -10536.42321159 Ry
     Harris-Foulkes estimate   =  -10536.75164695 Ry
     estimated scf accuracy    <       1.79684499 Ry

     total magnetization       =     0.24 Bohr mag/cell
     absolute magnetization    =    45.19 Bohr mag/cell

     iteration #  2     ecut=    71.00 Ry     beta= 0.10
     Davidson diagonalization with overlap
     ethr =  3.51E-04,  avg # of iterations =  1.0

     total cpu time spent up to now is     1282.2 secs

     total energy              =  -10536.22245095 Ry
     Harris-Foulkes estimate   =  -10536.46800286 Ry
     estimated scf accuracy    <       1.07788727 Ry

     total magnetization       =    -0.12 Bohr mag/cell
     absolute magnetization    =    45.97 Bohr mag/cell

     iteration #  3     ecut=    71.00 Ry     beta= 0.10
     Davidson diagonalization with overlap
     ethr =  2.11E-04,  avg # of iterations =  2.2

     total cpu time spent up to now is     1599.1 secs

     total energy              =  -10536.08571417 Ry
     Harris-Foulkes estimate   =  -10536.35368558 Ry
     estimated scf accuracy    <       2.61380754 Ry

     total magnetization       =     0.24 Bohr mag/cell
     absolute magnetization    =    46.41 Bohr mag/cell

     iteration #  4     ecut=    71.00 Ry     beta= 0.10
     Davidson diagonalization with overlap
     ethr =  2.11E-04,  avg # of iterations =  2.5

     total cpu time spent up to now is     1928.9 secs

     total energy              =  -10536.18469051 Ry
     Harris-Foulkes estimate   =  -10536.21707981 Ry
     estimated scf accuracy    <       0.54329751 Ry

     total magnetization       =     0.37 Bohr mag/cell
     absolute magnetization    =    47.53 Bohr mag/cell

     iteration #  5     ecut=    71.00 Ry     beta= 0.10
     Davidson diagonalization with overlap
     ethr =  1.06E-04,  avg # of iterations =  1.2

     total cpu time spent up to now is     2171.5 secs

     total energy              =  -10536.19649171 Ry
     Harris-Foulkes estimate   =  -10536.20455442 Ry
     estimated scf accuracy    <       0.08526608 Ry

     total magnetization       =     0.03 Bohr mag/cell
     absolute magnetization    =    47.70 Bohr mag/cell

     iteration #  6     ecut=    71.00 Ry     beta= 0.10
     Davidson diagonalization with overlap
     ethr =  1.67E-05,  avg # of iterations =  3.5

     total cpu time spent up to now is     2571.8 secs

     total energy              =  -10536.18801500 Ry
     Harris-Foulkes estimate   =  -10536.19977445 Ry
     estimated scf accuracy    <       0.06992750 Ry

     total magnetization       =    -0.11 Bohr mag/cell
     absolute magnetization    =    47.69 Bohr mag/cell

     iteration #  7     ecut=    71.00 Ry     beta= 0.10
     Davidson diagonalization with overlap
     ethr =  1.37E-05,  avg # of iterations =  3.8

     total cpu time spent up to now is     3151.5 secs

     total energy              =  -10536.20392550 Ry
     Harris-Foulkes estimate   =  -10536.21101242 Ry
     estimated scf accuracy    <       0.09086682 Ry

     total magnetization       =     0.05 Bohr mag/cell
     absolute magnetization    =    48.00 Bohr mag/cell

     iteration #  8     ecut=    71.00 Ry     beta= 0.10
     Davidson diagonalization with overlap
     ethr =  1.37E-05,  avg # of iterations =  2.1

     total cpu time spent up to now is     3472.9 secs

     total energy              =  -10536.20927343 Ry
     Harris-Foulkes estimate   =  -10536.20855677 Ry
     estimated scf accuracy    <       0.04702535 Ry

     total magnetization       =     0.04 Bohr mag/cell
     absolute magnetization    =    48.43 Bohr mag/cell

     iteration #  9     ecut=    71.00 Ry     beta= 0.10
     Davidson diagonalization with overlap
     ethr =  9.18E-06,  avg # of iterations =  1.0

     total cpu time spent up to now is     3710.2 secs

     total energy              =  -10536.22084322 Ry
     Harris-Foulkes estimate   =  -10536.21001809 Ry
     estimated scf accuracy    <       0.03908434 Ry

     total magnetization       =    -0.00 Bohr mag/cell
     absolute magnetization    =    48.53 Bohr mag/cell

     iteration # 10     ecut=    71.00 Ry     beta= 0.10
     Davidson diagonalization with overlap
     ethr =  7.63E-06,  avg # of iterations =  2.6

     total cpu time spent up to now is     4070.8 secs

     total energy              =  -10536.24411448 Ry
     Harris-Foulkes estimate   =  -10536.22427792 Ry
     estimated scf accuracy    <       0.04334586 Ry

     total magnetization       =    -0.09 Bohr mag/cell
     absolute magnetization    =    48.96 Bohr mag/cell

     iteration # 11     ecut=    71.00 Ry     beta= 0.10
     Davidson diagonalization with overlap
     ethr =  7.63E-06,  avg # of iterations =  3.1

     total cpu time spent up to now is     4542.3 secs

     total energy              =  -10536.25613888 Ry
     Harris-Foulkes estimate   =  -10536.25426504 Ry
     estimated scf accuracy    <       0.02931434 Ry

     total magnetization       =    -0.12 Bohr mag/cell
     absolute magnetization    =    49.88 Bohr mag/cell

     iteration # 12     ecut=    71.00 Ry     beta= 0.10
     Davidson diagonalization with overlap
     ethr =  5.73E-06,  avg # of iterations =  1.2

     total cpu time spent up to now is     4796.2 secs

     total energy              =  -10536.25724180 Ry
     Harris-Foulkes estimate   =  -10536.25754871 Ry
     estimated scf accuracy    <       0.00986945 Ry

     total magnetization       =    -0.03 Bohr mag/cell
     absolute magnetization    =    50.20 Bohr mag/cell

     iteration # 13     ecut=    71.00 Ry     beta= 0.10
     Davidson diagonalization with overlap
     ethr =  1.93E-06,  avg # of iterations =  3.3

     total cpu time spent up to now is     5236.8 secs

     total energy              =  -10536.25823985 Ry
     Harris-Foulkes estimate   =  -10536.25829862 Ry
     estimated scf accuracy    <       0.00215822 Ry

     total magnetization       =    -0.01 Bohr mag/cell
     absolute magnetization    =    50.46 Bohr mag/cell

     iteration # 14     ecut=    71.00 Ry     beta= 0.10
     Davidson diagonalization with overlap
     ethr =  4.22E-07,  avg # of iterations =  1.1

     total cpu time spent up to now is     5473.6 secs

     total energy              =  -10536.25834162 Ry
     Harris-Foulkes estimate   =  -10536.25828735 Ry
     estimated scf accuracy    <       0.00157318 Ry

     total magnetization       =    -0.01 Bohr mag/cell
     absolute magnetization    =    50.48 Bohr mag/cell

     iteration # 15     ecut=    71.00 Ry     beta= 0.10
     Davidson diagonalization with overlap
     ethr =  3.07E-07,  avg # of iterations =  1.7

     total cpu time spent up to now is     5755.7 secs

     total energy              =  -10536.25856497 Ry
     Harris-Foulkes estimate   =  -10536.25840029 Ry
     estimated scf accuracy    <       0.00120490 Ry

     total magnetization       =    -0.01 Bohr mag/cell
     absolute magnetization    =    50.58 Bohr mag/cell

     iteration # 16     ecut=    71.00 Ry     beta= 0.10
     Davidson diagonalization with overlap
     ethr =  2.35E-07,  avg # of iterations =  1.0

     total cpu time spent up to now is     5989.4 secs

     total energy              =  -10536.25865351 Ry
     Harris-Foulkes estimate   =  -10536.25861911 Ry
     estimated scf accuracy    <       0.00109580 Ry

     total magnetization       =     0.01 Bohr mag/cell
     absolute magnetization    =    50.67 Bohr mag/cell

     iteration # 17     ecut=    71.00 Ry     beta= 0.10
     Davidson diagonalization with overlap
     ethr =  2.14E-07,  avg # of iterations =  1.3

     total cpu time spent up to now is     6246.5 secs

     total energy              =  -10536.25886648 Ry
     Harris-Foulkes estimate   =  -10536.25871076 Ry
     estimated scf accuracy    <       0.00079850 Ry

     total magnetization       =    -0.03 Bohr mag/cell
     absolute magnetization    =    50.74 Bohr mag/cell

     iteration # 18     ecut=    71.00 Ry     beta= 0.10
     Davidson diagonalization with overlap
     ethr =  1.56E-07,  avg # of iterations =  2.1

     total cpu time spent up to now is     6556.9 secs

     total energy              =  -10536.25908196 Ry
     Harris-Foulkes estimate   =  -10536.25891761 Ry
     estimated scf accuracy    <       0.00056903 Ry

     total magnetization       =    -0.00 Bohr mag/cell
     absolute magnetization    =    50.85 Bohr mag/cell

     iteration # 19     ecut=    71.00 Ry     beta= 0.10
     Davidson diagonalization with overlap
     ethr =  1.11E-07,  avg # of iterations =  2.3

     total cpu time spent up to now is     6879.8 secs

     total energy              =  -10536.25928980 Ry
     Harris-Foulkes estimate   =  -10536.25911458 Ry
     estimated scf accuracy    <       0.00041259 Ry

     total magnetization       =    -0.00 Bohr mag/cell
     absolute magnetization    =    50.97 Bohr mag/cell

     iteration # 20     ecut=    71.00 Ry     beta= 0.10
     Davidson diagonalization with overlap
     ethr =  8.06E-08,  avg # of iterations =  3.2

     total cpu time spent up to now is     7328.3 secs

     total energy              =  -10536.25945487 Ry
     Harris-Foulkes estimate   =  -10536.25943731 Ry
     estimated scf accuracy    <       0.00028093 Ry

     total magnetization       =    -0.00 Bohr mag/cell
     absolute magnetization    =    51.27 Bohr mag/cell

     iteration # 21     ecut=    71.00 Ry     beta= 0.10
     Davidson diagonalization with overlap
     ethr =  5.49E-08,  avg # of iterations =  1.2

     total cpu time spent up to now is     7577.5 secs

     total energy              =  -10536.25950670 Ry
     Harris-Foulkes estimate   =  -10536.25947319 Ry
     estimated scf accuracy    <       0.00028007 Ry

     total magnetization       =    -0.00 Bohr mag/cell
     absolute magnetization    =    51.30 Bohr mag/cell

     iteration # 22     ecut=    71.00 Ry     beta= 0.10
     Davidson diagonalization with overlap
     ethr =  5.47E-08,  avg # of iterations =  1.0

     total cpu time spent up to now is     7808.9 secs

     total energy              =  -10536.25953760 Ry
     Harris-Foulkes estimate   =  -10536.25952645 Ry
     estimated scf accuracy    <       0.00015509 Ry

     total magnetization       =    -0.00 Bohr mag/cell
     absolute magnetization    =    51.39 Bohr mag/cell

     iteration # 23     ecut=    71.00 Ry     beta= 0.10
     Davidson diagonalization with overlap
     ethr =  3.03E-08,  avg # of iterations =  1.2

     total cpu time spent up to now is     8056.1 secs

     total energy              =  -10536.25955725 Ry
     Harris-Foulkes estimate   =  -10536.25954334 Ry
     estimated scf accuracy    <       0.00010823 Ry

     total magnetization       =    -0.00 Bohr mag/cell
     absolute magnetization    =    51.43 Bohr mag/cell

     iteration # 24     ecut=    71.00 Ry     beta= 0.10
     Davidson diagonalization with overlap
     ethr =  2.11E-08,  avg # of iterations =  2.5

     total cpu time spent up to now is     8397.3 secs

     total energy              =  -10536.25957362 Ry
     Harris-Foulkes estimate   =  -10536.25956537 Ry
     estimated scf accuracy    <       0.00010732 Ry

     total magnetization       =    -0.01 Bohr mag/cell
     absolute magnetization    =    51.49 Bohr mag/cell

     iteration # 25     ecut=    71.00 Ry     beta= 0.10
     Davidson diagonalization with overlap
     ethr =  2.10E-08,  avg # of iterations =  2.3

     total cpu time spent up to now is     8716.6 secs

     total energy              =  -10536.25958796 Ry
     Harris-Foulkes estimate   =  -10536.25958733 Ry
     estimated scf accuracy    <       0.00012466 Ry

     total magnetization       =    -0.00 Bohr mag/cell
     absolute magnetization    =    51.58 Bohr mag/cell

     iteration # 26     ecut=    71.00 Ry     beta= 0.10
     Davidson diagonalization with overlap
     ethr =  2.10E-08,  avg # of iterations =  2.6

     total cpu time spent up to now is     9084.0 secs

     total energy              =  -10536.25960578 Ry
     Harris-Foulkes estimate   =  -10536.25960476 Ry
     estimated scf accuracy    <       0.00002533 Ry

     total magnetization       =    -0.00 Bohr mag/cell
     absolute magnetization    =    51.67 Bohr mag/cell

     iteration # 27     ecut=    71.00 Ry     beta= 0.10
     Davidson diagonalization with overlap
     ethr =  4.95E-09,  avg # of iterations =  2.5

     total cpu time spent up to now is     9418.5 secs

     total energy              =  -10536.25960945 Ry
     Harris-Foulkes estimate   =  -10536.25960813 Ry
     estimated scf accuracy    <       0.00003539 Ry

     total magnetization       =    -0.00 Bohr mag/cell
     absolute magnetization    =    51.70 Bohr mag/cell

     iteration # 28     ecut=    71.00 Ry     beta= 0.10
     Davidson diagonalization with overlap
     ethr =  4.95E-09,  avg # of iterations =  1.4

     total cpu time spent up to now is     9671.4 secs

     total energy              =  -10536.25961404 Ry
     Harris-Foulkes estimate   =  -10536.25961092 Ry
     estimated scf accuracy    <       0.00001226 Ry

     total magnetization       =    -0.00 Bohr mag/cell
     absolute magnetization    =    51.72 Bohr mag/cell

     iteration # 29     ecut=    71.00 Ry     beta= 0.10
     Davidson diagonalization with overlap
     ethr =  2.39E-09,  avg # of iterations =  2.9

     total cpu time spent up to now is    10047.4 secs

     total energy              =  -10536.25961808 Ry
     Harris-Foulkes estimate   =  -10536.25961507 Ry
     estimated scf accuracy    <       0.00000900 Ry

     total magnetization       =    -0.00 Bohr mag/cell
     absolute magnetization    =    51.73 Bohr mag/cell

     iteration # 30     ecut=    71.00 Ry     beta= 0.10
     Davidson diagonalization with overlap
     ethr =  1.76E-09,  avg # of iterations =  2.1

     total cpu time spent up to now is    10361.1 secs

     total energy              =  -10536.25961888 Ry
     Harris-Foulkes estimate   =  -10536.25961873 Ry
     estimated scf accuracy    <       0.00000615 Ry

     total magnetization       =    -0.00 Bohr mag/cell
     absolute magnetization    =    51.75 Bohr mag/cell

     iteration # 31     ecut=    71.00 Ry     beta= 0.10
     Davidson diagonalization with overlap
     ethr =  1.20E-09,  avg # of iterations =  2.9

     total cpu time spent up to now is    10740.3 secs

     total energy              =  -10536.25962249 Ry
     Harris-Foulkes estimate   =  -10536.25961987 Ry
     estimated scf accuracy    <       0.00000488 Ry

     total magnetization       =    -0.00 Bohr mag/cell
     absolute magnetization    =    51.78 Bohr mag/cell

     iteration # 32     ecut=    71.00 Ry     beta= 0.10
     Davidson diagonalization with overlap
     ethr =  9.53E-10,  avg # of iterations =  2.9

     total cpu time spent up to now is    11167.7 secs

     total energy              =  -10536.25962396 Ry
     Harris-Foulkes estimate   =  -10536.25962376 Ry
     estimated scf accuracy    <       0.00000194 Ry

     total magnetization       =    -0.00 Bohr mag/cell
     absolute magnetization    =    51.80 Bohr mag/cell

     iteration # 33     ecut=    71.00 Ry     beta= 0.10
     Davidson diagonalization with overlap
     ethr =  3.78E-10,  avg # of iterations =  1.2

     total cpu time spent up to now is    11413.0 secs

     total energy              =  -10536.25962441 Ry
     Harris-Foulkes estimate   =  -10536.25962406 Ry
     estimated scf accuracy    <       0.00000171 Ry

     total magnetization       =    -0.00 Bohr mag/cell
     absolute magnetization    =    51.80 Bohr mag/cell

     iteration # 34     ecut=    71.00 Ry     beta= 0.10
     Davidson diagonalization with overlap
     ethr =  3.35E-10,  avg # of iterations =  1.0

     total cpu time spent up to now is    11644.9 secs

     total energy              =  -10536.25962466 Ry
     Harris-Foulkes estimate   =  -10536.25962447 Ry
     estimated scf accuracy    <       0.00000105 Ry

     total magnetization       =    -0.00 Bohr mag/cell
     absolute magnetization    =    51.80 Bohr mag/cell

     iteration # 35     ecut=    71.00 Ry     beta= 0.10
     Davidson diagonalization with overlap
     ethr =  2.06E-10,  avg # of iterations =  2.5
 
     Magnetic moment per site:
     atom:    1    charge:   14.4069    magn:    1.5594    constr:    0.0000
     atom:    2    charge:   14.4072    magn:   -1.5595    constr:    0.0000
     atom:    3    charge:   14.4064    magn:    1.5621    constr:    0.0000
     atom:    4    charge:   14.4071    magn:   -1.5635    constr:    0.0000
     atom:    5    charge:   14.4069    magn:    1.5602    constr:    0.0000
     atom:    6    charge:   14.4070    magn:   -1.5589    constr:    0.0000
     atom:    7    charge:   14.4064    magn:    1.5621    constr:    0.0000
     atom:    8    charge:   14.4071    magn:   -1.5635    constr:    0.0000
     atom:    9    charge:   14.4069    magn:    1.5601    constr:    0.0000
     atom:   10    charge:   14.4072    magn:   -1.5595    constr:    0.0000
     atom:   11    charge:   14.4066    magn:    1.5617    constr:    0.0000
     atom:   12    charge:   14.4071    magn:   -1.5635    constr:    0.0000
     atom:   13    charge:   14.4070    magn:    1.5607    constr:    0.0000
     atom:   14    charge:   14.4070    magn:   -1.5589    constr:    0.0000
     atom:   15    charge:   14.4066    magn:    1.5617    constr:    0.0000
     atom:   16    charge:   14.4071    magn:   -1.5635    constr:    0.0000
     atom:   17    charge:   14.4070    magn:    1.5606    constr:    0.0000
     atom:   18    charge:   14.4072    magn:   -1.5595    constr:    0.0000
     atom:   19    charge:   14.4064    magn:    1.5621    constr:    0.0000
     atom:   20    charge:   14.4070    magn:   -1.5627    constr:    0.0000
     atom:   21    charge:   14.4068    magn:    1.5610    constr:    0.0000
     atom:   22    charge:   14.4070    magn:   -1.5589    constr:    0.0000
     atom:   23    charge:   14.4064    magn:    1.5621    constr:    0.0000
     atom:   24    charge:   14.4070    magn:   -1.5627    constr:    0.0000
     atom:   25    charge:   14.4065    magn:    1.5599    constr:    0.0000
     atom:   26    charge:   14.4072    magn:   -1.5595    constr:    0.0000
     atom:   27    charge:   14.4066    magn:    1.5617    constr:    0.0000
     atom:   28    charge:   14.4070    magn:   -1.5627    constr:    0.0000
     atom:   29    charge:   14.4066    magn:    1.5599    constr:    0.0000
     atom:   30    charge:   14.4070    magn:   -1.5589    constr:    0.0000
     atom:   31    charge:   14.4066    magn:    1.5617    constr:    0.0000
     atom:   32    charge:   14.4070    magn:   -1.5627    constr:    0.0000

     total cpu time spent up to now is    11979.3 secs

     End of self-consistent calculation

     Number of k-points >= 100: set verbosity='high' to print the bands.

     the Fermi energy is    19.6625 ev

!    total energy              =  -10536.25962481 Ry
     Harris-Foulkes estimate   =  -10536.25962476 Ry
     estimated scf accuracy    <       0.00000089 Ry

     total all-electron energy =    -81457.748683 Ry

     The total energy is the sum of the following terms:

     one-electron contribution =   -3351.82183376 Ry
     hartree contribution      =    2017.80413778 Ry
     xc contribution           =    -886.58717771 Ry
     ewald contribution        =   -5666.11170226 Ry
     one-center paw contrib.   =   -2649.55338627 Ry
     smearing contrib. (-TS)   =       0.01033740 Ry

     total magnetization       =    -0.00 Bohr mag/cell
     absolute magnetization    =    51.80 Bohr mag/cell

     convergence has been achieved in  35 iterations

     Forces acting on atoms (cartesian axes, Ry/au):

     atom    1 type  1   force =     0.00000000    0.00000000    0.00000000
     atom    2 type  2   force =     0.00003451    0.00005681    0.00000000
     atom    3 type  3   force =     0.00007179    0.00000000    0.00000799
     atom    4 type  4   force =     0.00000000   -0.00004454   -0.00002194
     atom    5 type  1   force =     0.00000000    0.00000000    0.00000000
     atom    6 type  2   force =     0.00005167    0.00001083    0.00000000
     atom    7 type  3   force =     0.00007179   -0.00000000   -0.00000799
     atom    8 type  4   force =     0.00000000   -0.00004454    0.00002194
     atom    9 type  1   force =     0.00000000    0.00000000    0.00000000
     atom   10 type  2   force =     0.00003451   -0.00005681    0.00000000
     atom   11 type  3   force =     0.00005738   -0.00000000    0.00000216
     atom   12 type  4   force =     0.00000000    0.00004454   -0.00002194
     atom   13 type  1   force =     0.00000000    0.00000000    0.00000000
     atom   14 type  2   force =     0.00005167   -0.00001083    0.00000000
     atom   15 type  3   force =     0.00005738    0.00000000   -0.00000216
     atom   16 type  4   force =     0.00000000    0.00004454    0.00002194
     atom   17 type  1   force =     0.00000000    0.00000000    0.00000000
     atom   18 type  2   force =    -0.00003451    0.00005681    0.00000000
     atom   19 type  3   force =    -0.00007179   -0.00000000    0.00000799
     atom   20 type  4   force =     0.00000000    0.00005367   -0.00000390
     atom   21 type  1   force =     0.00000000    0.00000000    0.00000000
     atom   22 type  2   force =    -0.00005167    0.00001083    0.00000000
     atom   23 type  3   force =    -0.00007179    0.00000000   -0.00000799
     atom   24 type  4   force =     0.00000000    0.00005367    0.00000390
     atom   25 type  1   force =     0.00000000    0.00000000    0.00000000
     atom   26 type  2   force =    -0.00003451   -0.00005681    0.00000000
     atom   27 type  3   force =    -0.00005738    0.00000000    0.00000216
     atom   28 type  4   force =     0.00000000   -0.00005367   -0.00000390
     atom   29 type  1   force =     0.00000000    0.00000000    0.00000000
     atom   30 type  2   force =    -0.00005167   -0.00001083    0.00000000
     atom   31 type  3   force =    -0.00005738   -0.00000000   -0.00000216
     atom   32 type  4   force =     0.00000000   -0.00005367    0.00000390

     Total force =     0.000290     Total SCF correction =     0.004694
     SCF correction compared to forces is large: reduce conv_thr to get better values


     Computing stress (Cartesian axis) and pressure

          total   stress  (Ry/bohr**3)                   (kbar)     P=  -40.23
  -0.00029969   0.00000000   0.00000000        -44.09      0.00      0.00
   0.00000000  -0.00022109   0.00000000          0.00    -32.52      0.00
   0.00000000   0.00000000  -0.00029969          0.00      0.00    -44.09


     Writing output data file wsJctQxMAlqiduIQ.save/
-------------------------------------------------------
Primary job  terminated normally, but 1 process returned
a non-zero exit code.. Per user-direction, the job has been aborted.
-------------------------------------------------------
--------------------------------------------------------------------------
mpirun detected that one or more processes exited with non-zero status, thus causing
the job to be terminated. The first process to do so was:

  Process name: [[13386,1],0]
  Exit code:    38
--------------------------------------------------------------------------
