--------------------------------------------------------------------------
WARNING: No preset parameters were found for the device that Open MPI
detected:

  Local host:            bear-pg0206u26a
  Device name:           mlx5_0
  Device vendor ID:      0x02c9
  Device vendor part ID: 4123

Default device parameters will be used, which may result in lower
performance.  You can edit any of the files specified by the
btl_openib_device_param_files MCA parameter to set values for your
device.

NOTE: You can turn off this warning by setting the MCA parameter
      btl_openib_warn_no_device_params_found to 0.
--------------------------------------------------------------------------
--------------------------------------------------------------------------
WARNING: There was an error initializing an OpenFabrics device.

  Local host:   bear-pg0206u26a
  Local device: mlx5_0
--------------------------------------------------------------------------

     Program PWSCF v.6.3 starts on  2Nov2020 at 11:45:59 

     This program is part of the open-source Quantum ESPRESSO suite
     for quantum simulation of materials; please cite
         "P. Giannozzi et al., J. Phys.:Condens. Matter 21 395502 (2009);
         "P. Giannozzi et al., J. Phys.:Condens. Matter 29 465901 (2017);
          URL http://www.quantum-espresso.org", 
     in publications or presentations arising from this work. More details at
     http://www.quantum-espresso.org/quote

     Parallel version (MPI & OpenMP), running on      40 processor cores
     Number of MPI processes:                40
     Threads/MPI process:                     1

     MPI processes distributed on     1 nodes
     R & G space division:  proc/nbgrp/npool/nimage =      40
     Reading input from wd/ec/ec_5_003.in
Warning: card &IONS ignored
Warning: card ION_DYNAMICS = 'BFGS', ignored
Warning: card / ignored
Warning: card &CELL ignored
Warning: card CELL_DYNAMICS = 'BFGS', ignored
Warning: card CELL_FACTOR = 2.0, ignored
Warning: card PRESS = 0.0, ignored
Warning: card / ignored

     Current dimensions of program PWSCF are:
     Max number of different atomic species (ntypx) = 10
     Max number of k-points (npk) =  40000
     Max angular momentum in pseudopotentials (lmaxx) =  3
               file Fe.pbe-spn-kjpaw_psl.1.0.0.UPF: wavefunction(s)  3P 3D renormalized
               file Fe.pbe-spn-kjpaw_psl.1.0.0.UPF: wavefunction(s)  3P 3D renormalized

     Subspace diagonalization in iterative solution of the eigenvalue problem:
     a serial algorithm will be used

     Found symmetry operation: I + ( -0.0000  0.0000  0.5000)
     This is a supercell, fractional translations are disabled
 
     Parallelization info
     --------------------
     sticks:   dense  smooth     PW     G-vecs:    dense   smooth      PW
     Min          95      63     17                 4471     2400     355
     Max          96      64     18                 4476     2405     359
     Sum        3833    2537    717               178953    96097   14323
 


     bravais-lattice index     =            0
     lattice parameter (alat)  =      10.5935  a.u.
     unit-cell volume          =    1188.8329 (a.u.)^3
     number of atoms/cell      =           16
     number of atomic types    =            2
     number of electrons       =       256.00
     number of Kohn-Sham states=          154
     kinetic-energy cutoff     =      71.0000  Ry
     charge density cutoff     =     430.0000  Ry
     convergence threshold     =      1.0E-06
     mixing beta               =       0.1000
     number of iterations used =           10  plain     mixing
     Exchange-correlation      = SLA PW PBX PBC ( 1  4  3  4 0 0)

     celldm(1)=  10.593520  celldm(2)=   0.000000  celldm(3)=   0.000000
     celldm(4)=   0.000000  celldm(5)=   0.000000  celldm(6)=   0.000000

     crystal axes: (cart. coord. in units of alat)
               a(1) = (   1.000001   0.000000   0.001333 )  
               a(2) = (   0.000000   1.000001   0.000000 )  
               a(3) = (   0.001333   0.000000   1.000001 )  

     reciprocal axes: (cart. coord. in units 2 pi/alat)
               b(1) = (  1.000001  0.000000 -0.001333 )  
               b(2) = (  0.000000  0.999999  0.000000 )  
               b(3) = ( -0.001333  0.000000  1.000001 )  


     PseudoPot. # 1 for Fe read from file:
     /rds/homes/b/bxp912/pp/Fe.pbe-spn-kjpaw_psl.1.0.0.UPF
     MD5 check sum: 42f43b795421b414b0dc916aa790dbcb
     Pseudo is Projector augmented-wave + core cor, Zval = 16.0
     Generated using "atomic" code by A. Dal Corso v.6.3
     Shape of augmentation charge: PSQ
     Using radial grid of 1191 points,  6 beta functions with: 
                l(1) =   0
                l(2) =   0
                l(3) =   1
                l(4) =   1
                l(5) =   2
                l(6) =   2
     Q(r) pseudized with 0 coefficients 


     PseudoPot. # 2 for Fe read from file:
     /rds/homes/b/bxp912/pp/Fe.pbe-spn-kjpaw_psl.1.0.0.UPF
     MD5 check sum: 42f43b795421b414b0dc916aa790dbcb
     Pseudo is Projector augmented-wave + core cor, Zval = 16.0
     Generated using "atomic" code by A. Dal Corso v.6.3
     Shape of augmentation charge: PSQ
     Using radial grid of 1191 points,  6 beta functions with: 
                l(1) =   0
                l(2) =   0
                l(3) =   1
                l(4) =   1
                l(5) =   2
                l(6) =   2
     Q(r) pseudized with 0 coefficients 


     atomic species   valence    mass     pseudopotential
        Fe1           16.00    55.84500     Fe( 1.00)
        Fe2           16.00    55.84500     Fe( 1.00)

     Starting magnetic structure 
     atomic species   magnetization
        Fe1          0.100
        Fe2          0.100

      8 Sym. Ops., with inversion, found



   Cartesian axes

     site n.     atom                  positions (alat units)
         1           Fe1 tau(   1) = (   0.0000000   0.0000000   0.0000000  )
         2           Fe2 tau(   2) = (   0.2503339   0.2500006   0.2503339  )
         3           Fe1 tau(   3) = (   0.0006667   0.0000000   0.5000003  )
         4           Fe2 tau(   4) = (   0.2510006   0.2500006   0.7503333  )
         5           Fe1 tau(   5) = (   0.0000000   0.5000003   0.0000000  )
         6           Fe2 tau(   6) = (   0.2503339   0.7500000   0.2503339  )
         7           Fe1 tau(   7) = (   0.0006667   0.5000003   0.5000003  )
         8           Fe2 tau(   8) = (   0.2510006   0.7500000   0.7503333  )
         9           Fe1 tau(   9) = (   0.5000003   0.0000000   0.0006667  )
        10           Fe2 tau(  10) = (   0.7503333   0.2500006   0.2510006  )
        11           Fe1 tau(  11) = (   0.5006670   0.0000000   0.5006670  )
        12           Fe2 tau(  12) = (   0.7510000   0.2500006   0.7510000  )
        13           Fe1 tau(  13) = (   0.5000003   0.5000003   0.0006667  )
        14           Fe2 tau(  14) = (   0.7503333   0.7500000   0.2510006  )
        15           Fe1 tau(  15) = (   0.5006670   0.5000003   0.5006670  )
        16           Fe2 tau(  16) = (   0.7510000   0.7500000   0.7510000  )

     number of k points=   125  Marzari-Vanderbilt smearing, width (Ry)=  0.0400

     Number of k-points >= 100: set verbosity='high' to print them.

     Dense  grid:   178953 G-vectors     FFT dimensions: (  72,  72,  72)

     Smooth grid:    96097 G-vectors     FFT dimensions: (  60,  60,  60)

     Estimated max dynamical RAM per process >     215.38 MB

     Estimated total dynamical RAM >       8.41 GB
     Generating pointlists ...
     new r_m :   0.1785 (alat units)  1.8905 (a.u.) for type    1
     new r_m :   0.1785 (alat units)  1.8905 (a.u.) for type    2

     Check: negative/imaginary core charge=   -0.000006    0.000000

     Initial potential from superposition of free atoms

     starting charge  255.99300, renormalised to  256.00000
     Starting wfcs are  160 randomized atomic wfcs
     Checking if some PAW data can be deallocated... 

     total cpu time spent up to now is       23.3 secs

     Self-consistent Calculation

     iteration #  1     ecut=    71.00 Ry     beta= 0.10
     Davidson diagonalization with overlap
     ethr =  1.00E-02,  avg # of iterations =  3.4

     Threshold (ethr) on eigenvalues was too large:
     Diagonalizing with lowered threshold

     Davidson diagonalization with overlap
     ethr =  2.25E-04,  avg # of iterations =  3.5

     total cpu time spent up to now is      214.7 secs

     total energy              =   -5268.06218330 Ry
     Harris-Foulkes estimate   =   -5268.15192563 Ry
     estimated scf accuracy    <       0.65870072 Ry

     total magnetization       =    28.16 Bohr mag/cell
     absolute magnetization    =    28.30 Bohr mag/cell

     iteration #  2     ecut=    71.00 Ry     beta= 0.10
     Davidson diagonalization with overlap
     ethr =  2.57E-04,  avg # of iterations =  1.0

     total cpu time spent up to now is      269.7 secs

     total energy              =   -5268.00532904 Ry
     Harris-Foulkes estimate   =   -5268.07616506 Ry
     estimated scf accuracy    <       0.39592048 Ry

     total magnetization       =    28.76 Bohr mag/cell
     absolute magnetization    =    28.92 Bohr mag/cell

     iteration #  3     ecut=    71.00 Ry     beta= 0.10
     Davidson diagonalization with overlap
     ethr =  1.55E-04,  avg # of iterations =  2.8

     total cpu time spent up to now is      351.0 secs

     total energy              =   -5268.02666187 Ry
     Harris-Foulkes estimate   =   -5268.05147405 Ry
     estimated scf accuracy    <       0.53127828 Ry

     total magnetization       =    29.54 Bohr mag/cell
     absolute magnetization    =    29.84 Bohr mag/cell

     iteration #  4     ecut=    71.00 Ry     beta= 0.10
     Davidson diagonalization with overlap
     ethr =  1.55E-04,  avg # of iterations =  1.3

     total cpu time spent up to now is      409.3 secs

     total energy              =   -5268.05228899 Ry
     Harris-Foulkes estimate   =   -5268.05062728 Ry
     estimated scf accuracy    <       0.13914758 Ry

     total magnetization       =    30.21 Bohr mag/cell
     absolute magnetization    =    30.55 Bohr mag/cell

     iteration #  5     ecut=    71.00 Ry     beta= 0.10
     Davidson diagonalization with overlap
     ethr =  5.44E-05,  avg # of iterations =  1.3

     total cpu time spent up to now is      467.6 secs

     total energy              =   -5268.10352326 Ry
     Harris-Foulkes estimate   =   -5268.05493038 Ry
     estimated scf accuracy    <       0.10618122 Ry

     total magnetization       =    30.29 Bohr mag/cell
     absolute magnetization    =    30.65 Bohr mag/cell

     iteration #  6     ecut=    71.00 Ry     beta= 0.10
     Davidson diagonalization with overlap
     ethr =  4.15E-05,  avg # of iterations =  3.3

     negative rho (up, down):  0.000E+00 1.646E-04

     total cpu time spent up to now is      573.1 secs

     total energy              =   -5268.15895362 Ry
     Harris-Foulkes estimate   =   -5268.14350529 Ry
     estimated scf accuracy    <       0.15120266 Ry

     total magnetization       =    30.98 Bohr mag/cell
     absolute magnetization    =    31.71 Bohr mag/cell

     iteration #  7     ecut=    71.00 Ry     beta= 0.10
     Davidson diagonalization with overlap
     ethr =  4.15E-05,  avg # of iterations =  2.6

     negative rho (up, down):  0.000E+00 8.753E-04

     total cpu time spent up to now is      654.0 secs

     total energy              =   -5268.17561076 Ry
     Harris-Foulkes estimate   =   -5268.17172416 Ry
     estimated scf accuracy    <       0.05792304 Ry

     total magnetization       =    31.73 Bohr mag/cell
     absolute magnetization    =    32.80 Bohr mag/cell

     iteration #  8     ecut=    71.00 Ry     beta= 0.10
     Davidson diagonalization with overlap
     ethr =  2.26E-05,  avg # of iterations =  1.1

     negative rho (up, down):  0.000E+00 1.728E-03

     total cpu time spent up to now is      710.4 secs

     total energy              =   -5268.17986551 Ry
     Harris-Foulkes estimate   =   -5268.17763116 Ry
     estimated scf accuracy    <       0.04004626 Ry

     total magnetization       =    31.95 Bohr mag/cell
     absolute magnetization    =    33.11 Bohr mag/cell

     iteration #  9     ecut=    71.00 Ry     beta= 0.10
     Davidson diagonalization with overlap
     ethr =  1.56E-05,  avg # of iterations =  2.1

     negative rho (up, down):  0.000E+00 2.099E-03

     total cpu time spent up to now is      785.3 secs

     total energy              =   -5268.18702202 Ry
     Harris-Foulkes estimate   =   -5268.18475123 Ry
     estimated scf accuracy    <       0.01208511 Ry

     total magnetization       =    32.34 Bohr mag/cell
     absolute magnetization    =    33.75 Bohr mag/cell

     iteration # 10     ecut=    71.00 Ry     beta= 0.10
     Davidson diagonalization with overlap
     ethr =  4.72E-06,  avg # of iterations =  1.8

     negative rho (up, down):  0.000E+00 2.559E-03

     total cpu time spent up to now is      850.6 secs

     total energy              =   -5268.18802817 Ry
     Harris-Foulkes estimate   =   -5268.18756910 Ry
     estimated scf accuracy    <       0.00554241 Ry

     total magnetization       =    32.48 Bohr mag/cell
     absolute magnetization    =    33.97 Bohr mag/cell

     iteration # 11     ecut=    71.00 Ry     beta= 0.10
     Davidson diagonalization with overlap
     c_bands:  1 eigenvalues not converged
     ethr =  2.17E-06,  avg # of iterations =  3.4

     negative rho (up, down):  0.000E+00 2.445E-03

     total cpu time spent up to now is      944.3 secs

     total energy              =   -5268.18880932 Ry
     Harris-Foulkes estimate   =   -5268.18876815 Ry
     estimated scf accuracy    <       0.00092242 Ry

     total magnetization       =    32.67 Bohr mag/cell
     absolute magnetization    =    34.31 Bohr mag/cell

     iteration # 12     ecut=    71.00 Ry     beta= 0.10
     Davidson diagonalization with overlap
     ethr =  3.60E-07,  avg # of iterations =  2.0

     negative rho (up, down):  0.000E+00 2.367E-03

     total cpu time spent up to now is     1012.2 secs

     total energy              =   -5268.18904712 Ry
     Harris-Foulkes estimate   =   -5268.18885553 Ry
     estimated scf accuracy    <       0.00066575 Ry

     total magnetization       =    32.68 Bohr mag/cell
     absolute magnetization    =    34.33 Bohr mag/cell

     iteration # 13     ecut=    71.00 Ry     beta= 0.10
     Davidson diagonalization with overlap
     ethr =  2.60E-07,  avg # of iterations =  2.1

     negative rho (up, down):  0.000E+00 2.434E-03

     total cpu time spent up to now is     1085.4 secs

     total energy              =   -5268.18926503 Ry
     Harris-Foulkes estimate   =   -5268.18910877 Ry
     estimated scf accuracy    <       0.00063911 Ry

     total magnetization       =    32.72 Bohr mag/cell
     absolute magnetization    =    34.40 Bohr mag/cell

     iteration # 14     ecut=    71.00 Ry     beta= 0.10
     Davidson diagonalization with overlap
     ethr =  2.50E-07,  avg # of iterations =  2.9

     negative rho (up, down):  0.000E+00 2.433E-03

     total cpu time spent up to now is     1170.0 secs

     total energy              =   -5268.18936841 Ry
     Harris-Foulkes estimate   =   -5268.18937235 Ry
     estimated scf accuracy    <       0.00030111 Ry

     total magnetization       =    32.81 Bohr mag/cell
     absolute magnetization    =    34.55 Bohr mag/cell

     iteration # 15     ecut=    71.00 Ry     beta= 0.10
     Davidson diagonalization with overlap
     ethr =  1.18E-07,  avg # of iterations =  1.4

     negative rho (up, down):  0.000E+00 2.384E-03

     total cpu time spent up to now is     1230.7 secs

     total energy              =   -5268.18939802 Ry
     Harris-Foulkes estimate   =   -5268.18938601 Ry
     estimated scf accuracy    <       0.00007659 Ry

     total magnetization       =    32.83 Bohr mag/cell
     absolute magnetization    =    34.57 Bohr mag/cell

     iteration # 16     ecut=    71.00 Ry     beta= 0.10
     Davidson diagonalization with overlap
     ethr =  2.99E-08,  avg # of iterations =  2.9

     negative rho (up, down):  0.000E+00 2.446E-03

     total cpu time spent up to now is     1311.3 secs

     total energy              =   -5268.18940651 Ry
     Harris-Foulkes estimate   =   -5268.18940471 Ry
     estimated scf accuracy    <       0.00008184 Ry

     total magnetization       =    32.83 Bohr mag/cell
     absolute magnetization    =    34.57 Bohr mag/cell

     iteration # 17     ecut=    71.00 Ry     beta= 0.10
     Davidson diagonalization with overlap
     ethr =  2.99E-08,  avg # of iterations =  3.2

     negative rho (up, down):  0.000E+00 2.413E-03

     total cpu time spent up to now is     1405.0 secs

     total energy              =   -5268.18944186 Ry
     Harris-Foulkes estimate   =   -5268.18943865 Ry
     estimated scf accuracy    <       0.00002010 Ry

     total magnetization       =    32.88 Bohr mag/cell
     absolute magnetization    =    34.65 Bohr mag/cell

     iteration # 18     ecut=    71.00 Ry     beta= 0.10
     Davidson diagonalization with overlap
     ethr =  7.85E-09,  avg # of iterations =  2.5

     negative rho (up, down):  0.000E+00 2.434E-03

     total cpu time spent up to now is     1482.1 secs

     total energy              =   -5268.18944462 Ry
     Harris-Foulkes estimate   =   -5268.18944449 Ry
     estimated scf accuracy    <       0.00001257 Ry

     total magnetization       =    32.88 Bohr mag/cell
     absolute magnetization    =    34.64 Bohr mag/cell

     iteration # 19     ecut=    71.00 Ry     beta= 0.10
     Davidson diagonalization with overlap
     ethr =  4.91E-09,  avg # of iterations =  1.7

     negative rho (up, down):  0.000E+00 2.443E-03

     total cpu time spent up to now is     1547.1 secs

     total energy              =   -5268.18944648 Ry
     Harris-Foulkes estimate   =   -5268.18944568 Ry
     estimated scf accuracy    <       0.00000405 Ry

     total magnetization       =    32.89 Bohr mag/cell
     absolute magnetization    =    34.65 Bohr mag/cell

     iteration # 20     ecut=    71.00 Ry     beta= 0.10
     Davidson diagonalization with overlap
     ethr =  1.58E-09,  avg # of iterations =  2.5

     negative rho (up, down):  0.000E+00 2.455E-03

     total cpu time spent up to now is     1621.4 secs

     total energy              =   -5268.18944747 Ry
     Harris-Foulkes estimate   =   -5268.18944677 Ry
     estimated scf accuracy    <       0.00000257 Ry

     total magnetization       =    32.89 Bohr mag/cell
     absolute magnetization    =    34.66 Bohr mag/cell

     iteration # 21     ecut=    71.00 Ry     beta= 0.10
     Davidson diagonalization with overlap
     ethr =  1.00E-09,  avg # of iterations =  2.4

     negative rho (up, down):  0.000E+00 2.455E-03

     total cpu time spent up to now is     1696.3 secs

     total energy              =   -5268.18944862 Ry
     Harris-Foulkes estimate   =   -5268.18944774 Ry
     estimated scf accuracy    <       0.00000161 Ry

     total magnetization       =    32.90 Bohr mag/cell
     absolute magnetization    =    34.67 Bohr mag/cell

     iteration # 22     ecut=    71.00 Ry     beta= 0.10
     Davidson diagonalization with overlap
     ethr =  6.28E-10,  avg # of iterations =  1.0

     negative rho (up, down):  0.000E+00 2.454E-03

     total cpu time spent up to now is     1751.8 secs

     total energy              =   -5268.18944961 Ry
     Harris-Foulkes estimate   =   -5268.18944870 Ry
     estimated scf accuracy    <       0.00000125 Ry

     total magnetization       =    32.90 Bohr mag/cell
     absolute magnetization    =    34.67 Bohr mag/cell

     iteration # 23     ecut=    71.00 Ry     beta= 0.10
     Davidson diagonalization with overlap
     ethr =  4.89E-10,  avg # of iterations =  2.4

     negative rho (up, down):  0.000E+00 2.464E-03
 
     Magnetic moment per site:
     atom:    1    charge:   14.3610    magn:    2.0990    constr:    0.0000
     atom:    2    charge:   14.3610    magn:    2.1016    constr:    0.0000
     atom:    3    charge:   14.3611    magn:    2.0987    constr:    0.0000
     atom:    4    charge:   14.3609    magn:    2.1013    constr:    0.0000
     atom:    5    charge:   14.3610    magn:    2.1003    constr:    0.0000
     atom:    6    charge:   14.3610    magn:    2.1016    constr:    0.0000
     atom:    7    charge:   14.3609    magn:    2.0999    constr:    0.0000
     atom:    8    charge:   14.3609    magn:    2.1013    constr:    0.0000
     atom:    9    charge:   14.3611    magn:    2.0987    constr:    0.0000
     atom:   10    charge:   14.3609    magn:    2.1013    constr:    0.0000
     atom:   11    charge:   14.3609    magn:    2.0983    constr:    0.0000
     atom:   12    charge:   14.3610    magn:    2.1016    constr:    0.0000
     atom:   13    charge:   14.3609    magn:    2.0999    constr:    0.0000
     atom:   14    charge:   14.3609    magn:    2.1013    constr:    0.0000
     atom:   15    charge:   14.3610    magn:    2.0995    constr:    0.0000
     atom:   16    charge:   14.3610    magn:    2.1016    constr:    0.0000

     total cpu time spent up to now is     1827.8 secs

     End of self-consistent calculation

     Number of k-points >= 100: set verbosity='high' to print the bands.

     the Fermi energy is    18.9742 ev

!    total energy              =   -5268.18945074 Ry
     Harris-Foulkes estimate   =   -5268.18944972 Ry
     estimated scf accuracy    <       0.00000056 Ry

     total all-electron energy =    -40728.933980 Ry

     The total energy is the sum of the following terms:

     one-electron contribution =   -1707.43684591 Ry
     hartree contribution      =    1022.28270615 Ry
     xc contribution           =    -444.26046013 Ry
     ewald contribution        =   -2814.22794148 Ry
     one-center paw contrib.   =   -1324.67107666 Ry
     smearing contrib. (-TS)   =       0.12416728 Ry

     total magnetization       =    32.90 Bohr mag/cell
     absolute magnetization    =    34.66 Bohr mag/cell

     convergence has been achieved in  23 iterations

     negative rho (up, down):  0.000E+00 2.464E-03

     Forces acting on atoms (cartesian axes, Ry/au):

     atom    1 type  1   force =     0.00000000    0.00000000    0.00000000
     atom    2 type  2   force =     0.00006274    0.00018023    0.00006274
     atom    3 type  1   force =     0.00000000    0.00000000    0.00000000
     atom    4 type  2   force =    -0.00006317    0.00008924    0.00006317
     atom    5 type  1   force =     0.00000000    0.00000000    0.00000000
     atom    6 type  2   force =     0.00006274   -0.00018023    0.00006274
     atom    7 type  1   force =     0.00000000    0.00000000    0.00000000
     atom    8 type  2   force =    -0.00006317   -0.00008924    0.00006317
     atom    9 type  1   force =     0.00000000    0.00000000    0.00000000
     atom   10 type  2   force =     0.00006317    0.00008924   -0.00006317
     atom   11 type  1   force =     0.00000000    0.00000000    0.00000000
     atom   12 type  2   force =    -0.00006274    0.00018023   -0.00006274
     atom   13 type  1   force =     0.00000000    0.00000000    0.00000000
     atom   14 type  2   force =     0.00006317   -0.00008924   -0.00006317
     atom   15 type  1   force =     0.00000000    0.00000000    0.00000000
     atom   16 type  2   force =    -0.00006274   -0.00018023   -0.00006274

     Total force =     0.000475     Total SCF correction =     0.004610
     SCF correction compared to forces is large: reduce conv_thr to get better values


     Computing stress (Cartesian axis) and pressure


     negative rho (up, down):  0.000E+00 2.464E-03
          total   stress  (Ry/bohr**3)                   (kbar)     P=   -2.26
  -0.00001539   0.00000000  -0.00002491         -2.26      0.00     -3.66
   0.00000000  -0.00001530   0.00000000          0.00     -2.25      0.00
  -0.00002491   0.00000000  -0.00001539         -3.66      0.00     -2.26


     Writing output data file TzgbxGkLgErtcwMz.save/
 
     init_run     :     21.05s CPU     21.98s WALL (       1 calls)
     electrons    :   1751.43s CPU   1804.45s WALL (       1 calls)
     forces       :      7.88s CPU      8.56s WALL (       1 calls)
     stress       :     20.88s CPU     21.13s WALL (       1 calls)

     Called by init_run:
     wfcinit      :     20.48s CPU     21.35s WALL (       1 calls)
     potinit      :      0.23s CPU      0.25s WALL (       1 calls)
     hinit0       :      0.23s CPU      0.25s WALL (       1 calls)

     Called by electrons:
     c_bands      :   1581.92s CPU   1626.04s WALL (      24 calls)
     sum_band     :    164.61s CPU    172.99s WALL (      24 calls)
     v_of_rho     :      0.37s CPU      0.37s WALL (      24 calls)
     newd         :      0.77s CPU      0.98s WALL (      24 calls)
     PAW_pot      :      3.69s CPU      3.94s WALL (      24 calls)
     mix_rho      :      0.14s CPU      0.14s WALL (      24 calls)

     Called by c_bands:
     init_us_2    :      8.14s CPU      8.22s WALL (   12750 calls)
     cegterg      :   1538.95s CPU   1582.61s WALL (    6000 calls)

     Called by sum_band:
     sum_band:bec :      2.28s CPU      2.32s WALL (    6000 calls)
     addusdens    :      1.26s CPU      1.44s WALL (      24 calls)

     Called by *egterg:
     h_psi        :    649.81s CPU    676.94s WALL (   19927 calls)
     s_psi        :     33.68s CPU     33.93s WALL (   19927 calls)
     g_psi        :      1.34s CPU      1.37s WALL (   13677 calls)
     cdiaghg      :    699.95s CPU    702.32s WALL (   19427 calls)

     Called by h_psi:
     h_psi:pot    :    646.04s CPU    673.12s WALL (   19927 calls)
     h_psi:calbec :     54.23s CPU     62.37s WALL (   19927 calls)
     vloc_psi     :    557.84s CPU    576.50s WALL (   19927 calls)
     add_vuspsi   :     33.81s CPU     34.12s WALL (   19927 calls)

     General routines
     calbec       :     83.36s CPU     96.18s WALL (   27177 calls)
     fft          :      0.42s CPU      0.44s WALL (     642 calls)
     ffts         :      0.05s CPU      0.23s WALL (      96 calls)
     fftw         :    650.87s CPU    672.50s WALL ( 4951990 calls)
     interpolate  :      0.08s CPU      0.15s WALL (      48 calls)
 
     Parallel routines
     fft_scatt_xy :     42.32s CPU     43.67s WALL ( 4952728 calls)
     fft_scatt_yz :    440.26s CPU    455.31s WALL ( 4952728 calls)
 
     PWSCF        : 30m16.23s CPU    31m59.25s WALL

 
   This run was terminated on:  12:17:58   2Nov2020            

=------------------------------------------------------------------------------=
   JOB DONE.
=------------------------------------------------------------------------------=
