--------------------------------------------------------------------------
WARNING: No preset parameters were found for the device that Open MPI
detected:

  Local host:            bear-pg0206u26a
  Device name:           mlx5_0
  Device vendor ID:      0x02c9
  Device vendor part ID: 4123

Default device parameters will be used, which may result in lower
performance.  You can edit any of the files specified by the
btl_openib_device_param_files MCA parameter to set values for your
device.

NOTE: You can turn off this warning by setting the MCA parameter
      btl_openib_warn_no_device_params_found to 0.
--------------------------------------------------------------------------
--------------------------------------------------------------------------
WARNING: There was an error initializing an OpenFabrics device.

  Local host:   bear-pg0206u26a
  Local device: mlx5_0
--------------------------------------------------------------------------

     Program PWSCF v.6.3 starts on  2Nov2020 at 12:50: 6 

     This program is part of the open-source Quantum ESPRESSO suite
     for quantum simulation of materials; please cite
         "P. Giannozzi et al., J. Phys.:Condens. Matter 21 395502 (2009);
         "P. Giannozzi et al., J. Phys.:Condens. Matter 29 465901 (2017);
          URL http://www.quantum-espresso.org", 
     in publications or presentations arising from this work. More details at
     http://www.quantum-espresso.org/quote

     Parallel version (MPI & OpenMP), running on      40 processor cores
     Number of MPI processes:                40
     Threads/MPI process:                     1

     MPI processes distributed on     1 nodes
     R & G space division:  proc/nbgrp/npool/nimage =      40
     Reading input from wd/ec/ec_5_005.in
Warning: card &IONS ignored
Warning: card ION_DYNAMICS = 'BFGS', ignored
Warning: card / ignored
Warning: card &CELL ignored
Warning: card CELL_DYNAMICS = 'BFGS', ignored
Warning: card CELL_FACTOR = 2.0, ignored
Warning: card PRESS = 0.0, ignored
Warning: card / ignored

     Current dimensions of program PWSCF are:
     Max number of different atomic species (ntypx) = 10
     Max number of k-points (npk) =  40000
     Max angular momentum in pseudopotentials (lmaxx) =  3
               file Fe.pbe-spn-kjpaw_psl.1.0.0.UPF: wavefunction(s)  3P 3D renormalized
               file Fe.pbe-spn-kjpaw_psl.1.0.0.UPF: wavefunction(s)  3P 3D renormalized

     Subspace diagonalization in iterative solution of the eigenvalue problem:
     a serial algorithm will be used

     Found symmetry operation: I + (  0.0000  0.0000 -0.5000)
     This is a supercell, fractional translations are disabled
 
     Parallelization info
     --------------------
     sticks:   dense  smooth     PW     G-vecs:    dense   smooth      PW
     Min          95      63     17                 4472     2401     355
     Max          96      64     18                 4477     2406     359
     Sum        3833    2537    717               179001    96109   14299
 


     bravais-lattice index     =            0
     lattice parameter (alat)  =      10.5935  a.u.
     unit-cell volume          =    1188.8329 (a.u.)^3
     number of atoms/cell      =           16
     number of atomic types    =            2
     number of electrons       =       256.00
     number of Kohn-Sham states=          154
     kinetic-energy cutoff     =      71.0000  Ry
     charge density cutoff     =     430.0000  Ry
     convergence threshold     =      1.0E-06
     mixing beta               =       0.1000
     number of iterations used =           10  plain     mixing
     Exchange-correlation      = SLA PW PBX PBC ( 1  4  3  4 0 0)

     celldm(1)=  10.593520  celldm(2)=   0.000000  celldm(3)=   0.000000
     celldm(4)=   0.000000  celldm(5)=   0.000000  celldm(6)=   0.000000

     crystal axes: (cart. coord. in units of alat)
               a(1) = (   1.000002   0.000000   0.002667 )  
               a(2) = (   0.000000   1.000002   0.000000 )  
               a(3) = (   0.002667   0.000000   1.000002 )  

     reciprocal axes: (cart. coord. in units 2 pi/alat)
               b(1) = (  1.000005  0.000000 -0.002667 )  
               b(2) = (  0.000000  0.999998  0.000000 )  
               b(3) = ( -0.002667  0.000000  1.000005 )  


     PseudoPot. # 1 for Fe read from file:
     /rds/homes/b/bxp912/pp/Fe.pbe-spn-kjpaw_psl.1.0.0.UPF
     MD5 check sum: 42f43b795421b414b0dc916aa790dbcb
     Pseudo is Projector augmented-wave + core cor, Zval = 16.0
     Generated using "atomic" code by A. Dal Corso v.6.3
     Shape of augmentation charge: PSQ
     Using radial grid of 1191 points,  6 beta functions with: 
                l(1) =   0
                l(2) =   0
                l(3) =   1
                l(4) =   1
                l(5) =   2
                l(6) =   2
     Q(r) pseudized with 0 coefficients 


     PseudoPot. # 2 for Fe read from file:
     /rds/homes/b/bxp912/pp/Fe.pbe-spn-kjpaw_psl.1.0.0.UPF
     MD5 check sum: 42f43b795421b414b0dc916aa790dbcb
     Pseudo is Projector augmented-wave + core cor, Zval = 16.0
     Generated using "atomic" code by A. Dal Corso v.6.3
     Shape of augmentation charge: PSQ
     Using radial grid of 1191 points,  6 beta functions with: 
                l(1) =   0
                l(2) =   0
                l(3) =   1
                l(4) =   1
                l(5) =   2
                l(6) =   2
     Q(r) pseudized with 0 coefficients 


     atomic species   valence    mass     pseudopotential
        Fe1           16.00    55.84500     Fe( 1.00)
        Fe2           16.00    55.84500     Fe( 1.00)

     Starting magnetic structure 
     atomic species   magnetization
        Fe1          0.100
        Fe2          0.100

      8 Sym. Ops., with inversion, found



   Cartesian axes

     site n.     atom                  positions (alat units)
         1           Fe1 tau(   1) = (   0.0000000   0.0000000   0.0000000  )
         2           Fe2 tau(   2) = (   0.2506677   0.2500010   0.2506677  )
         3           Fe1 tau(   3) = (   0.0013333   0.0000000   0.5000012  )
         4           Fe2 tau(   4) = (   0.2520010   0.2500010   0.7506680  )
         5           Fe1 tau(   5) = (   0.0000000   0.5000012   0.0000000  )
         6           Fe2 tau(   6) = (   0.2506677   0.7500013   0.2506677  )
         7           Fe1 tau(   7) = (   0.0013333   0.5000012   0.5000012  )
         8           Fe2 tau(   8) = (   0.2520010   0.7500013   0.7506680  )
         9           Fe1 tau(   9) = (   0.5000012   0.0000000   0.0013333  )
        10           Fe2 tau(  10) = (   0.7506680   0.2500010   0.2520010  )
        11           Fe1 tau(  11) = (   0.5013345   0.0000000   0.5013345  )
        12           Fe2 tau(  12) = (   0.7520014   0.2500010   0.7520014  )
        13           Fe1 tau(  13) = (   0.5000012   0.5000012   0.0013333  )
        14           Fe2 tau(  14) = (   0.7506680   0.7500013   0.2520010  )
        15           Fe1 tau(  15) = (   0.5013345   0.5000012   0.5013345  )
        16           Fe2 tau(  16) = (   0.7520014   0.7500013   0.7520014  )

     number of k points=   125  Marzari-Vanderbilt smearing, width (Ry)=  0.0400

     Number of k-points >= 100: set verbosity='high' to print them.

     Dense  grid:   179001 G-vectors     FFT dimensions: (  72,  72,  72)

     Smooth grid:    96109 G-vectors     FFT dimensions: (  60,  60,  60)

     Estimated max dynamical RAM per process >     215.38 MB

     Estimated total dynamical RAM >       8.41 GB
     Generating pointlists ...
     new r_m :   0.1783 (alat units)  1.8888 (a.u.) for type    1
     new r_m :   0.1783 (alat units)  1.8888 (a.u.) for type    2

     Check: negative/imaginary core charge=   -0.000006    0.000000

     Initial potential from superposition of free atoms

     starting charge  255.99300, renormalised to  256.00000
     Starting wfcs are  160 randomized atomic wfcs
     Checking if some PAW data can be deallocated... 

     total cpu time spent up to now is       23.4 secs

     Self-consistent Calculation

     iteration #  1     ecut=    71.00 Ry     beta= 0.10
     Davidson diagonalization with overlap
     ethr =  1.00E-02,  avg # of iterations =  3.4

     Threshold (ethr) on eigenvalues was too large:
     Diagonalizing with lowered threshold

     Davidson diagonalization with overlap
     ethr =  2.24E-04,  avg # of iterations =  3.7

     total cpu time spent up to now is      216.6 secs

     total energy              =   -5268.06208347 Ry
     Harris-Foulkes estimate   =   -5268.15180108 Ry
     estimated scf accuracy    <       0.65859873 Ry

     total magnetization       =    28.16 Bohr mag/cell
     absolute magnetization    =    28.30 Bohr mag/cell

     iteration #  2     ecut=    71.00 Ry     beta= 0.10
     Davidson diagonalization with overlap
     ethr =  2.57E-04,  avg # of iterations =  1.0

     total cpu time spent up to now is      271.9 secs

     total energy              =   -5268.00522016 Ry
     Harris-Foulkes estimate   =   -5268.07605229 Ry
     estimated scf accuracy    <       0.39581251 Ry

     total magnetization       =    28.76 Bohr mag/cell
     absolute magnetization    =    28.92 Bohr mag/cell

     iteration #  3     ecut=    71.00 Ry     beta= 0.10
     Davidson diagonalization with overlap
     ethr =  1.55E-04,  avg # of iterations =  2.8

     total cpu time spent up to now is      353.0 secs

     total energy              =   -5268.02658332 Ry
     Harris-Foulkes estimate   =   -5268.05135702 Ry
     estimated scf accuracy    <       0.53081772 Ry

     total magnetization       =    29.55 Bohr mag/cell
     absolute magnetization    =    29.84 Bohr mag/cell

     iteration #  4     ecut=    71.00 Ry     beta= 0.10
     Davidson diagonalization with overlap
     ethr =  1.55E-04,  avg # of iterations =  1.3

     total cpu time spent up to now is      411.7 secs

     total energy              =   -5268.05218018 Ry
     Harris-Foulkes estimate   =   -5268.05051725 Ry
     estimated scf accuracy    <       0.13913662 Ry

     total magnetization       =    30.21 Bohr mag/cell
     absolute magnetization    =    30.55 Bohr mag/cell

     iteration #  5     ecut=    71.00 Ry     beta= 0.10
     Davidson diagonalization with overlap
     ethr =  5.44E-05,  avg # of iterations =  1.3

     total cpu time spent up to now is      470.1 secs

     total energy              =   -5268.10346491 Ry
     Harris-Foulkes estimate   =   -5268.05481431 Ry
     estimated scf accuracy    <       0.10617841 Ry

     total magnetization       =    30.29 Bohr mag/cell
     absolute magnetization    =    30.65 Bohr mag/cell

     iteration #  6     ecut=    71.00 Ry     beta= 0.10
     Davidson diagonalization with overlap
     ethr =  4.15E-05,  avg # of iterations =  3.4

     negative rho (up, down):  0.000E+00 1.634E-04

     total cpu time spent up to now is      575.7 secs

     total energy              =   -5268.15886027 Ry
     Harris-Foulkes estimate   =   -5268.14348543 Ry
     estimated scf accuracy    <       0.15114696 Ry

     total magnetization       =    30.98 Bohr mag/cell
     absolute magnetization    =    31.71 Bohr mag/cell

     iteration #  7     ecut=    71.00 Ry     beta= 0.10
     Davidson diagonalization with overlap
     ethr =  4.15E-05,  avg # of iterations =  2.7

     negative rho (up, down):  0.000E+00 8.710E-04

     total cpu time spent up to now is      657.7 secs

     total energy              =   -5268.17541649 Ry
     Harris-Foulkes estimate   =   -5268.17159475 Ry
     estimated scf accuracy    <       0.05792477 Ry

     total magnetization       =    31.73 Bohr mag/cell
     absolute magnetization    =    32.80 Bohr mag/cell

     iteration #  8     ecut=    71.00 Ry     beta= 0.10
     Davidson diagonalization with overlap
     ethr =  2.26E-05,  avg # of iterations =  1.1

     negative rho (up, down):  0.000E+00 1.726E-03

     total cpu time spent up to now is      714.8 secs

     total energy              =   -5268.17980353 Ry
     Harris-Foulkes estimate   =   -5268.17744082 Ry
     estimated scf accuracy    <       0.03997190 Ry

     total magnetization       =    31.95 Bohr mag/cell
     absolute magnetization    =    33.11 Bohr mag/cell

     iteration #  9     ecut=    71.00 Ry     beta= 0.10
     Davidson diagonalization with overlap
     ethr =  1.56E-05,  avg # of iterations =  2.1

     negative rho (up, down):  0.000E+00 2.083E-03

     total cpu time spent up to now is      790.6 secs

     total energy              =   -5268.18683503 Ry
     Harris-Foulkes estimate   =   -5268.18463727 Ry
     estimated scf accuracy    <       0.01238943 Ry

     total magnetization       =    32.34 Bohr mag/cell
     absolute magnetization    =    33.74 Bohr mag/cell

     iteration # 10     ecut=    71.00 Ry     beta= 0.10
     Davidson diagonalization with overlap
     ethr =  4.84E-06,  avg # of iterations =  1.7

     negative rho (up, down):  0.000E+00 2.558E-03

     total cpu time spent up to now is      855.2 secs

     total energy              =   -5268.18788058 Ry
     Harris-Foulkes estimate   =   -5268.18737211 Ry
     estimated scf accuracy    <       0.00568587 Ry

     total magnetization       =    32.48 Bohr mag/cell
     absolute magnetization    =    33.96 Bohr mag/cell

     iteration # 11     ecut=    71.00 Ry     beta= 0.10
     Davidson diagonalization with overlap
     ethr =  2.22E-06,  avg # of iterations =  3.5

     negative rho (up, down):  0.000E+00 2.464E-03

     total cpu time spent up to now is      950.4 secs

     total energy              =   -5268.18869893 Ry
     Harris-Foulkes estimate   =   -5268.18865909 Ry
     estimated scf accuracy    <       0.00092332 Ry

     total magnetization       =    32.67 Bohr mag/cell
     absolute magnetization    =    34.31 Bohr mag/cell

     iteration # 12     ecut=    71.00 Ry     beta= 0.10
     Davidson diagonalization with overlap
     ethr =  3.61E-07,  avg # of iterations =  1.9

     negative rho (up, down):  0.000E+00 2.370E-03

     total cpu time spent up to now is     1016.5 secs

     total energy              =   -5268.18893062 Ry
     Harris-Foulkes estimate   =   -5268.18873832 Ry
     estimated scf accuracy    <       0.00065878 Ry

     total magnetization       =    32.68 Bohr mag/cell
     absolute magnetization    =    34.33 Bohr mag/cell

     iteration # 13     ecut=    71.00 Ry     beta= 0.10
     Davidson diagonalization with overlap
     ethr =  2.57E-07,  avg # of iterations =  2.3

     negative rho (up, down):  0.000E+00 2.434E-03

     total cpu time spent up to now is     1092.8 secs

     total energy              =   -5268.18915731 Ry
     Harris-Foulkes estimate   =   -5268.18899925 Ry
     estimated scf accuracy    <       0.00064835 Ry

     total magnetization       =    32.73 Bohr mag/cell
     absolute magnetization    =    34.40 Bohr mag/cell

     iteration # 14     ecut=    71.00 Ry     beta= 0.10
     Davidson diagonalization with overlap
     ethr =  2.53E-07,  avg # of iterations =  2.9

     negative rho (up, down):  0.000E+00 2.444E-03

     total cpu time spent up to now is     1177.6 secs

     total energy              =   -5268.18926045 Ry
     Harris-Foulkes estimate   =   -5268.18926384 Ry
     estimated scf accuracy    <       0.00029914 Ry

     total magnetization       =    32.81 Bohr mag/cell
     absolute magnetization    =    34.55 Bohr mag/cell

     iteration # 15     ecut=    71.00 Ry     beta= 0.10
     Davidson diagonalization with overlap
     ethr =  1.17E-07,  avg # of iterations =  1.4

     negative rho (up, down):  0.000E+00 2.384E-03

     total cpu time spent up to now is     1238.3 secs

     total energy              =   -5268.18928890 Ry
     Harris-Foulkes estimate   =   -5268.18927714 Ry
     estimated scf accuracy    <       0.00007374 Ry

     total magnetization       =    32.83 Bohr mag/cell
     absolute magnetization    =    34.58 Bohr mag/cell

     iteration # 16     ecut=    71.00 Ry     beta= 0.10
     Davidson diagonalization with overlap
     ethr =  2.88E-08,  avg # of iterations =  3.0

     negative rho (up, down):  0.000E+00 2.448E-03

     total cpu time spent up to now is     1325.0 secs

     total energy              =   -5268.18929886 Ry
     Harris-Foulkes estimate   =   -5268.18929708 Ry
     estimated scf accuracy    <       0.00007968 Ry

     total magnetization       =    32.83 Bohr mag/cell
     absolute magnetization    =    34.57 Bohr mag/cell

     iteration # 17     ecut=    71.00 Ry     beta= 0.10
     Davidson diagonalization with overlap
     ethr =  2.88E-08,  avg # of iterations =  3.2

     negative rho (up, down):  0.000E+00 2.408E-03

     total cpu time spent up to now is     1419.8 secs

     total energy              =   -5268.18933329 Ry
     Harris-Foulkes estimate   =   -5268.18933003 Ry
     estimated scf accuracy    <       0.00002420 Ry

     total magnetization       =    32.88 Bohr mag/cell
     absolute magnetization    =    34.65 Bohr mag/cell

     iteration # 18     ecut=    71.00 Ry     beta= 0.10
     Davidson diagonalization with overlap
     ethr =  9.45E-09,  avg # of iterations =  2.5

     negative rho (up, down):  0.000E+00 2.431E-03

     total cpu time spent up to now is     1497.1 secs

     total energy              =   -5268.18933671 Ry
     Harris-Foulkes estimate   =   -5268.18933671 Ry
     estimated scf accuracy    <       0.00001474 Ry

     total magnetization       =    32.88 Bohr mag/cell
     absolute magnetization    =    34.64 Bohr mag/cell

     iteration # 19     ecut=    71.00 Ry     beta= 0.10
     Davidson diagonalization with overlap
     ethr =  5.76E-09,  avg # of iterations =  1.9

     negative rho (up, down):  0.000E+00 2.444E-03

     total cpu time spent up to now is     1563.6 secs

     total energy              =   -5268.18933859 Ry
     Harris-Foulkes estimate   =   -5268.18933804 Ry
     estimated scf accuracy    <       0.00000404 Ry

     total magnetization       =    32.89 Bohr mag/cell
     absolute magnetization    =    34.66 Bohr mag/cell

     iteration # 20     ecut=    71.00 Ry     beta= 0.10
     Davidson diagonalization with overlap
     ethr =  1.58E-09,  avg # of iterations =  2.8

     negative rho (up, down):  0.000E+00 2.455E-03

     total cpu time spent up to now is     1643.8 secs

     total energy              =   -5268.18933997 Ry
     Harris-Foulkes estimate   =   -5268.18933897 Ry
     estimated scf accuracy    <       0.00000245 Ry

     total magnetization       =    32.90 Bohr mag/cell
     absolute magnetization    =    34.66 Bohr mag/cell

     iteration # 21     ecut=    71.00 Ry     beta= 0.10
     Davidson diagonalization with overlap
     ethr =  9.57E-10,  avg # of iterations =  2.1

     negative rho (up, down):  0.000E+00 2.452E-03

     total cpu time spent up to now is     1715.5 secs

     total energy              =   -5268.18934115 Ry
     Harris-Foulkes estimate   =   -5268.18934030 Ry
     estimated scf accuracy    <       0.00000140 Ry

     total magnetization       =    32.90 Bohr mag/cell
     absolute magnetization    =    34.67 Bohr mag/cell

     iteration # 22     ecut=    71.00 Ry     beta= 0.10
     Davidson diagonalization with overlap
     ethr =  5.46E-10,  avg # of iterations =  1.9

     negative rho (up, down):  0.000E+00 2.451E-03

     total cpu time spent up to now is     1782.1 secs

     total energy              =   -5268.18934192 Ry
     Harris-Foulkes estimate   =   -5268.18934125 Ry
     estimated scf accuracy    <       0.00000109 Ry

     total magnetization       =    32.90 Bohr mag/cell
     absolute magnetization    =    34.67 Bohr mag/cell

     iteration # 23     ecut=    71.00 Ry     beta= 0.10
     Davidson diagonalization with overlap
     ethr =  4.27E-10,  avg # of iterations =  2.6

     negative rho (up, down):  0.000E+00 2.463E-03
 
     Magnetic moment per site:
     atom:    1    charge:   14.3556    magn:    2.0990    constr:    0.0000
     atom:    2    charge:   14.3556    magn:    2.1015    constr:    0.0000
     atom:    3    charge:   14.3557    magn:    2.0987    constr:    0.0000
     atom:    4    charge:   14.3555    magn:    2.1012    constr:    0.0000
     atom:    5    charge:   14.3557    magn:    2.1003    constr:    0.0000
     atom:    6    charge:   14.3556    magn:    2.1015    constr:    0.0000
     atom:    7    charge:   14.3555    magn:    2.0998    constr:    0.0000
     atom:    8    charge:   14.3555    magn:    2.1012    constr:    0.0000
     atom:    9    charge:   14.3557    magn:    2.0987    constr:    0.0000
     atom:   10    charge:   14.3555    magn:    2.1012    constr:    0.0000
     atom:   11    charge:   14.3555    magn:    2.0983    constr:    0.0000
     atom:   12    charge:   14.3556    magn:    2.1015    constr:    0.0000
     atom:   13    charge:   14.3555    magn:    2.0998    constr:    0.0000
     atom:   14    charge:   14.3555    magn:    2.1012    constr:    0.0000
     atom:   15    charge:   14.3556    magn:    2.0995    constr:    0.0000
     atom:   16    charge:   14.3556    magn:    2.1015    constr:    0.0000

     total cpu time spent up to now is     1858.7 secs

     End of self-consistent calculation

     Number of k-points >= 100: set verbosity='high' to print the bands.

     the Fermi energy is    18.9743 ev

!    total energy              =   -5268.18934296 Ry
     Harris-Foulkes estimate   =   -5268.18934203 Ry
     estimated scf accuracy    <       0.00000046 Ry

     total all-electron energy =    -40728.933872 Ry

     The total energy is the sum of the following terms:

     one-electron contribution =   -1707.44883453 Ry
     hartree contribution      =    1022.28895150 Ry
     xc contribution           =    -444.26076881 Ry
     ewald contribution        =   -2814.22181764 Ry
     one-center paw contrib.   =   -1324.67103102 Ry
     smearing contrib. (-TS)   =       0.12415754 Ry

     total magnetization       =    32.90 Bohr mag/cell
     absolute magnetization    =    34.67 Bohr mag/cell

     convergence has been achieved in  23 iterations

     negative rho (up, down):  0.000E+00 2.463E-03

     Forces acting on atoms (cartesian axes, Ry/au):

     atom    1 type  1   force =     0.00000000    0.00000000    0.00000000
     atom    2 type  2   force =     0.00007649    0.00022477    0.00007649
     atom    3 type  1   force =     0.00000000    0.00000000    0.00000000
     atom    4 type  2   force =    -0.00007168    0.00012582    0.00007168
     atom    5 type  1   force =     0.00000000    0.00000000    0.00000000
     atom    6 type  2   force =     0.00007649   -0.00022477    0.00007649
     atom    7 type  1   force =     0.00000000   -0.00000000    0.00000000
     atom    8 type  2   force =    -0.00007168   -0.00012582    0.00007168
     atom    9 type  1   force =     0.00000000    0.00000000    0.00000000
     atom   10 type  2   force =     0.00007168    0.00012582   -0.00007168
     atom   11 type  1   force =     0.00000000    0.00000000    0.00000000
     atom   12 type  2   force =    -0.00007649    0.00022477   -0.00007649
     atom   13 type  1   force =     0.00000000    0.00000000    0.00000000
     atom   14 type  2   force =     0.00007168   -0.00012582   -0.00007168
     atom   15 type  1   force =     0.00000000    0.00000000    0.00000000
     atom   16 type  2   force =    -0.00007649   -0.00022477   -0.00007649

     Total force =     0.000594     Total SCF correction =     0.004389
     SCF correction compared to forces is large: reduce conv_thr to get better values


     Computing stress (Cartesian axis) and pressure


     negative rho (up, down):  0.000E+00 2.463E-03
          total   stress  (Ry/bohr**3)                   (kbar)     P=   -2.32
  -0.00001586   0.00000000  -0.00004972         -2.33      0.00     -7.31
   0.00000000  -0.00001561   0.00000000          0.00     -2.30      0.00
  -0.00004972   0.00000000  -0.00001586         -7.31      0.00     -2.33


     Writing output data file EnpRmLrxugReUcpB.save/
 
     init_run     :     21.20s CPU     22.13s WALL (       1 calls)
     electrons    :   1780.82s CPU   1835.32s WALL (       1 calls)
     forces       :      7.67s CPU      8.41s WALL (       1 calls)
     stress       :     20.39s CPU     20.62s WALL (       1 calls)

     Called by init_run:
     wfcinit      :     20.68s CPU     21.53s WALL (       1 calls)
     potinit      :      0.23s CPU      0.25s WALL (       1 calls)
     hinit0       :      0.19s CPU      0.23s WALL (       1 calls)

     Called by electrons:
     c_bands      :   1610.02s CPU   1655.39s WALL (      24 calls)
     sum_band     :    166.01s CPU    174.49s WALL (      24 calls)
     v_of_rho     :      0.36s CPU      0.37s WALL (      24 calls)
     newd         :      0.75s CPU      0.97s WALL (      24 calls)
     PAW_pot      :      3.61s CPU      3.92s WALL (      24 calls)
     mix_rho      :      0.13s CPU      0.15s WALL (      24 calls)

     Called by c_bands:
     init_us_2    :      8.42s CPU      8.60s WALL (   12750 calls)
     cegterg      :   1567.15s CPU   1611.87s WALL (    6000 calls)

     Called by sum_band:
     sum_band:bec :      2.28s CPU      2.32s WALL (    6000 calls)
     addusdens    :      1.35s CPU      1.54s WALL (      24 calls)

     Called by *egterg:
     h_psi        :    653.71s CPU    681.17s WALL (   20316 calls)
     s_psi        :     34.05s CPU     34.26s WALL (   20316 calls)
     g_psi        :      1.35s CPU      1.37s WALL (   14066 calls)
     cdiaghg      :    724.21s CPU    726.44s WALL (   19816 calls)

     Called by h_psi:
     h_psi:pot    :    650.07s CPU    677.49s WALL (   20316 calls)
     h_psi:calbec :     54.01s CPU     62.48s WALL (   20316 calls)
     vloc_psi     :    561.38s CPU    580.10s WALL (   20316 calls)
     add_vuspsi   :     34.52s CPU     34.78s WALL (   20316 calls)

     General routines
     calbec       :     82.48s CPU     95.65s WALL (   27566 calls)
     fft          :      0.43s CPU      0.45s WALL (     642 calls)
     ffts         :      0.04s CPU      0.23s WALL (      96 calls)
     fftw         :    655.53s CPU    677.11s WALL ( 4967682 calls)
     interpolate  :      0.10s CPU      0.19s WALL (      48 calls)
 
     Parallel routines
     fft_scatt_xy :     42.79s CPU     44.19s WALL ( 4968420 calls)
     fft_scatt_yz :    442.98s CPU    457.95s WALL ( 4968420 calls)
 
     PWSCF        : 30m45.25s CPU    32m30.75s WALL

 
   This run was terminated on:  13:22:37   2Nov2020            

=------------------------------------------------------------------------------=
   JOB DONE.
=------------------------------------------------------------------------------=
