--------------------------------------------------------------------------
WARNING: No preset parameters were found for the device that Open MPI
detected:

  Local host:            bear-pg0206u26a
  Device name:           mlx5_0
  Device vendor ID:      0x02c9
  Device vendor part ID: 4123

Default device parameters will be used, which may result in lower
performance.  You can edit any of the files specified by the
btl_openib_device_param_files MCA parameter to set values for your
device.

NOTE: You can turn off this warning by setting the MCA parameter
      btl_openib_warn_no_device_params_found to 0.
--------------------------------------------------------------------------
--------------------------------------------------------------------------
WARNING: There was an error initializing an OpenFabrics device.

  Local host:   bear-pg0206u26a
  Local device: mlx5_0
--------------------------------------------------------------------------

     Program PWSCF v.6.3 starts on  2Nov2020 at 20:18: 3 

     This program is part of the open-source Quantum ESPRESSO suite
     for quantum simulation of materials; please cite
         "P. Giannozzi et al., J. Phys.:Condens. Matter 21 395502 (2009);
         "P. Giannozzi et al., J. Phys.:Condens. Matter 29 465901 (2017);
          URL http://www.quantum-espresso.org", 
     in publications or presentations arising from this work. More details at
     http://www.quantum-espresso.org/quote

     Parallel version (MPI & OpenMP), running on      40 processor cores
     Number of MPI processes:                40
     Threads/MPI process:                     1

     MPI processes distributed on     1 nodes
     R & G space division:  proc/nbgrp/npool/nimage =      40
     Reading input from wd/ec/ec_8_004.in
Warning: card &IONS ignored
Warning: card ION_DYNAMICS = 'BFGS', ignored
Warning: card / ignored
Warning: card &CELL ignored
Warning: card CELL_DYNAMICS = 'BFGS', ignored
Warning: card CELL_FACTOR = 2.0, ignored
Warning: card PRESS = 0.0, ignored
Warning: card / ignored

     Current dimensions of program PWSCF are:
     Max number of different atomic species (ntypx) = 10
     Max number of k-points (npk) =  40000
     Max angular momentum in pseudopotentials (lmaxx) =  3
               file Fe.pbe-spn-kjpaw_psl.1.0.0.UPF: wavefunction(s)  3P 3D renormalized
               file Fe.pbe-spn-kjpaw_psl.1.0.0.UPF: wavefunction(s)  3P 3D renormalized

     Subspace diagonalization in iterative solution of the eigenvalue problem:
     a serial algorithm will be used

     Found symmetry operation: I + (  0.0000  0.0000 -0.5000)
     This is a supercell, fractional translations are disabled
 
     Parallelization info
     --------------------
     sticks:   dense  smooth     PW     G-vecs:    dense   smooth      PW
     Min          96      63     17                 4472     2401     355
     Max          97      64     18                 4476     2406     360
     Sum        3847    2553    717               178971    96125   14323
 


     bravais-lattice index     =            0
     lattice parameter (alat)  =      10.5935  a.u.
     unit-cell volume          =    1188.8329 (a.u.)^3
     number of atoms/cell      =           16
     number of atomic types    =            2
     number of electrons       =       256.00
     number of Kohn-Sham states=          154
     kinetic-energy cutoff     =      71.0000  Ry
     charge density cutoff     =     430.0000  Ry
     convergence threshold     =      1.0E-06
     mixing beta               =       0.1000
     number of iterations used =           10  plain     mixing
     Exchange-correlation      = SLA PW PBX PBC ( 1  4  3  4 0 0)

     celldm(1)=  10.593520  celldm(2)=   0.000000  celldm(3)=   0.000000
     celldm(4)=   0.000000  celldm(5)=   0.000000  celldm(6)=   0.000000

     crystal axes: (cart. coord. in units of alat)
               a(1) = (   1.002001   0.000000   0.000000 )  
               a(2) = (   0.000000   1.000001   0.000000 )  
               a(3) = (   0.000000   0.000000   0.998001 )  

     reciprocal axes: (cart. coord. in units 2 pi/alat)
               b(1) = (  0.998003  0.000000  0.000000 )  
               b(2) = (  0.000000  0.999999  0.000000 )  
               b(3) = (  0.000000  0.000000  1.002003 )  


     PseudoPot. # 1 for Fe read from file:
     /rds/homes/b/bxp912/pp/Fe.pbe-spn-kjpaw_psl.1.0.0.UPF
     MD5 check sum: 42f43b795421b414b0dc916aa790dbcb
     Pseudo is Projector augmented-wave + core cor, Zval = 16.0
     Generated using "atomic" code by A. Dal Corso v.6.3
     Shape of augmentation charge: PSQ
     Using radial grid of 1191 points,  6 beta functions with: 
                l(1) =   0
                l(2) =   0
                l(3) =   1
                l(4) =   1
                l(5) =   2
                l(6) =   2
     Q(r) pseudized with 0 coefficients 


     PseudoPot. # 2 for Fe read from file:
     /rds/homes/b/bxp912/pp/Fe.pbe-spn-kjpaw_psl.1.0.0.UPF
     MD5 check sum: 42f43b795421b414b0dc916aa790dbcb
     Pseudo is Projector augmented-wave + core cor, Zval = 16.0
     Generated using "atomic" code by A. Dal Corso v.6.3
     Shape of augmentation charge: PSQ
     Using radial grid of 1191 points,  6 beta functions with: 
                l(1) =   0
                l(2) =   0
                l(3) =   1
                l(4) =   1
                l(5) =   2
                l(6) =   2
     Q(r) pseudized with 0 coefficients 


     atomic species   valence    mass     pseudopotential
        Fe1           16.00    55.84500     Fe( 1.00)
        Fe2           16.00    55.84500     Fe( 1.00)

     Starting magnetic structure 
     atomic species   magnetization
        Fe1          0.100
        Fe2          0.100

      8 Sym. Ops., with inversion, found



   Cartesian axes

     site n.     atom                  positions (alat units)
         1           Fe1 tau(   1) = (   0.0000000   0.0000000   0.0000000  )
         2           Fe2 tau(   2) = (   0.2505008   0.2500008   0.2495008  )
         3           Fe1 tau(   3) = (   0.0000000   0.0000000   0.4990007  )
         4           Fe2 tau(   4) = (   0.2505008   0.2500008   0.7485006  )
         5           Fe1 tau(   5) = (   0.0000000   0.5000007   0.0000000  )
         6           Fe2 tau(   6) = (   0.2505008   0.7500006   0.2495008  )
         7           Fe1 tau(   7) = (   0.0000000   0.5000007   0.4990007  )
         8           Fe2 tau(   8) = (   0.2505008   0.7500006   0.7485006  )
         9           Fe1 tau(   9) = (   0.5010007   0.0000000   0.0000000  )
        10           Fe2 tau(  10) = (   0.7515006   0.2500008   0.2495008  )
        11           Fe1 tau(  11) = (   0.5010007   0.0000000   0.4990007  )
        12           Fe2 tau(  12) = (   0.7515006   0.2500008   0.7485006  )
        13           Fe1 tau(  13) = (   0.5010007   0.5000007   0.0000000  )
        14           Fe2 tau(  14) = (   0.7515006   0.7500006   0.2495008  )
        15           Fe1 tau(  15) = (   0.5010007   0.5000007   0.4990007  )
        16           Fe2 tau(  16) = (   0.7515006   0.7500006   0.7485006  )

     number of k points=   125  Marzari-Vanderbilt smearing, width (Ry)=  0.0400

     Number of k-points >= 100: set verbosity='high' to print them.

     Dense  grid:   178971 G-vectors     FFT dimensions: (  72,  72,  72)

     Smooth grid:    96125 G-vectors     FFT dimensions: (  60,  60,  60)

     Estimated max dynamical RAM per process >     215.38 MB

     Estimated total dynamical RAM >       8.41 GB
     Generating pointlists ...
     new r_m :   0.1786 (alat units)  1.8922 (a.u.) for type    1
     new r_m :   0.1786 (alat units)  1.8922 (a.u.) for type    2

     Check: negative/imaginary core charge=   -0.000006    0.000000

     Initial potential from superposition of free atoms

     starting charge  255.99300, renormalised to  256.00000
     Starting wfcs are  160 randomized atomic wfcs
     Checking if some PAW data can be deallocated... 

     total cpu time spent up to now is       23.4 secs

     Self-consistent Calculation

     iteration #  1     ecut=    71.00 Ry     beta= 0.10
     Davidson diagonalization with overlap
     ethr =  1.00E-02,  avg # of iterations =  3.4

     Threshold (ethr) on eigenvalues was too large:
     Diagonalizing with lowered threshold

     Davidson diagonalization with overlap
     ethr =  2.83E-04,  avg # of iterations =  3.4

     total cpu time spent up to now is      209.3 secs

     total energy              =   -5268.17611094 Ry
     Harris-Foulkes estimate   =   -5268.32780869 Ry
     estimated scf accuracy    <       0.82053644 Ry

     total magnetization       =    28.04 Bohr mag/cell
     absolute magnetization    =    28.41 Bohr mag/cell

     iteration #  2     ecut=    71.00 Ry     beta= 0.10
     Davidson diagonalization with overlap
     ethr =  3.21E-04,  avg # of iterations =  1.0

     total cpu time spent up to now is      264.8 secs

     total energy              =   -5268.07004683 Ry
     Harris-Foulkes estimate   =   -5268.19491969 Ry
     estimated scf accuracy    <       0.49785866 Ry

     total magnetization       =    28.67 Bohr mag/cell
     absolute magnetization    =    28.95 Bohr mag/cell

     iteration #  3     ecut=    71.00 Ry     beta= 0.10
     Davidson diagonalization with overlap
     ethr =  1.94E-04,  avg # of iterations =  2.5

     total cpu time spent up to now is      340.6 secs

     total energy              =   -5268.03732115 Ry
     Harris-Foulkes estimate   =   -5268.11681162 Ry
     estimated scf accuracy    <       0.57575157 Ry

     total magnetization       =    29.37 Bohr mag/cell
     absolute magnetization    =    29.71 Bohr mag/cell

     iteration #  4     ecut=    71.00 Ry     beta= 0.10
     Davidson diagonalization with overlap
     ethr =  1.94E-04,  avg # of iterations =  2.1

     total cpu time spent up to now is      408.8 secs

     total energy              =   -5268.06926379 Ry
     Harris-Foulkes estimate   =   -5268.07308972 Ry
     estimated scf accuracy    <       0.17903610 Ry

     total magnetization       =    30.20 Bohr mag/cell
     absolute magnetization    =    30.58 Bohr mag/cell

     iteration #  5     ecut=    71.00 Ry     beta= 0.10
     Davidson diagonalization with overlap
     ethr =  6.99E-05,  avg # of iterations =  1.3

     total cpu time spent up to now is      467.6 secs

     total energy              =   -5268.08814728 Ry
     Harris-Foulkes estimate   =   -5268.07352743 Ry
     estimated scf accuracy    <       0.11151955 Ry

     total magnetization       =    30.30 Bohr mag/cell
     absolute magnetization    =    30.69 Bohr mag/cell

     iteration #  6     ecut=    71.00 Ry     beta= 0.10
     Davidson diagonalization with overlap
     ethr =  4.36E-05,  avg # of iterations =  3.2

     total cpu time spent up to now is      570.1 secs

     total energy              =   -5268.14465194 Ry
     Harris-Foulkes estimate   =   -5268.12682558 Ry
     estimated scf accuracy    <       0.13282275 Ry

     total magnetization       =    30.92 Bohr mag/cell
     absolute magnetization    =    31.62 Bohr mag/cell

     iteration #  7     ecut=    71.00 Ry     beta= 0.10
     Davidson diagonalization with overlap
     ethr =  4.36E-05,  avg # of iterations =  2.0

     total cpu time spent up to now is      640.9 secs

     total energy              =   -5268.15334060 Ry
     Harris-Foulkes estimate   =   -5268.15264075 Ry
     estimated scf accuracy    <       0.09923917 Ry

     total magnetization       =    31.45 Bohr mag/cell
     absolute magnetization    =    32.36 Bohr mag/cell

     iteration #  8     ecut=    71.00 Ry     beta= 0.10
     Davidson diagonalization with overlap
     ethr =  3.88E-05,  avg # of iterations =  1.0

     negative rho (up, down):  0.000E+00 1.809E-03

     total cpu time spent up to now is      696.1 secs

     total energy              =   -5268.17025542 Ry
     Harris-Foulkes estimate   =   -5268.15469038 Ry
     estimated scf accuracy    <       0.07711292 Ry

     total magnetization       =    31.60 Bohr mag/cell
     absolute magnetization    =    32.58 Bohr mag/cell

     iteration #  9     ecut=    71.00 Ry     beta= 0.10
     Davidson diagonalization with overlap
     ethr =  3.01E-05,  avg # of iterations =  2.7

     negative rho (up, down):  0.000E+00 2.150E-03

     total cpu time spent up to now is      787.1 secs

     total energy              =   -5268.18948098 Ry
     Harris-Foulkes estimate   =   -5268.18774142 Ry
     estimated scf accuracy    <       0.03023794 Ry

     total magnetization       =    32.35 Bohr mag/cell
     absolute magnetization    =    33.76 Bohr mag/cell

     iteration # 10     ecut=    71.00 Ry     beta= 0.10
     Davidson diagonalization with overlap
     ethr =  1.18E-05,  avg # of iterations =  1.0

     negative rho (up, down):  0.000E+00 2.511E-03

     total cpu time spent up to now is      842.9 secs

     total energy              =   -5268.18790137 Ry
     Harris-Foulkes estimate   =   -5268.19010900 Ry
     estimated scf accuracy    <       0.01626526 Ry

     total magnetization       =    32.48 Bohr mag/cell
     absolute magnetization    =    33.94 Bohr mag/cell

     iteration # 11     ecut=    71.00 Ry     beta= 0.10
     Davidson diagonalization with overlap
     ethr =  6.35E-06,  avg # of iterations =  2.4

     negative rho (up, down):  0.000E+00 2.558E-03

     total cpu time spent up to now is      918.7 secs

     total energy              =   -5268.18867763 Ry
     Harris-Foulkes estimate   =   -5268.18890102 Ry
     estimated scf accuracy    <       0.00171532 Ry

     total magnetization       =    32.65 Bohr mag/cell
     absolute magnetization    =    34.26 Bohr mag/cell

     iteration # 12     ecut=    71.00 Ry     beta= 0.10
     Davidson diagonalization with overlap
     ethr =  6.70E-07,  avg # of iterations =  2.9

     negative rho (up, down):  0.000E+00 2.578E-03

     total cpu time spent up to now is     1000.3 secs

     total energy              =   -5268.18897831 Ry
     Harris-Foulkes estimate   =   -5268.18882073 Ry
     estimated scf accuracy    <       0.00079840 Ry

     total magnetization       =    32.70 Bohr mag/cell
     absolute magnetization    =    34.34 Bohr mag/cell

     iteration # 13     ecut=    71.00 Ry     beta= 0.10
     Davidson diagonalization with overlap
     ethr =  3.12E-07,  avg # of iterations =  2.1

     negative rho (up, down):  0.000E+00 2.549E-03

     total cpu time spent up to now is     1069.2 secs

     total energy              =   -5268.18893023 Ry
     Harris-Foulkes estimate   =   -5268.18905758 Ry
     estimated scf accuracy    <       0.00118694 Ry

     total magnetization       =    32.74 Bohr mag/cell
     absolute magnetization    =    34.42 Bohr mag/cell

     iteration # 14     ecut=    71.00 Ry     beta= 0.10
     Davidson diagonalization with overlap
     ethr =  3.12E-07,  avg # of iterations =  2.7

     negative rho (up, down):  0.000E+00 2.480E-03

     total cpu time spent up to now is     1152.0 secs

     total energy              =   -5268.18919740 Ry
     Harris-Foulkes estimate   =   -5268.18905950 Ry
     estimated scf accuracy    <       0.00069269 Ry

     total magnetization       =    32.78 Bohr mag/cell
     absolute magnetization    =    34.50 Bohr mag/cell

     iteration # 15     ecut=    71.00 Ry     beta= 0.10
     Davidson diagonalization with overlap
     ethr =  2.71E-07,  avg # of iterations =  1.5

     negative rho (up, down):  0.000E+00 2.481E-03

     total cpu time spent up to now is     1214.3 secs

     total energy              =   -5268.18927944 Ry
     Harris-Foulkes estimate   =   -5268.18924053 Ry
     estimated scf accuracy    <       0.00020096 Ry

     total magnetization       =    32.78 Bohr mag/cell
     absolute magnetization    =    34.50 Bohr mag/cell

     iteration # 16     ecut=    71.00 Ry     beta= 0.10
     Davidson diagonalization with overlap
     ethr =  7.85E-08,  avg # of iterations =  2.5

     negative rho (up, down):  0.000E+00 2.458E-03

     total cpu time spent up to now is     1295.9 secs

     total energy              =   -5268.18934666 Ry
     Harris-Foulkes estimate   =   -5268.18930413 Ry
     estimated scf accuracy    <       0.00010308 Ry

     total magnetization       =    32.82 Bohr mag/cell
     absolute magnetization    =    34.56 Bohr mag/cell

     iteration # 17     ecut=    71.00 Ry     beta= 0.10
     Davidson diagonalization with overlap
     ethr =  4.03E-08,  avg # of iterations =  2.1

     negative rho (up, down):  0.000E+00 2.396E-03

     total cpu time spent up to now is     1367.1 secs

     total energy              =   -5268.18937966 Ry
     Harris-Foulkes estimate   =   -5268.18935536 Ry
     estimated scf accuracy    <       0.00006888 Ry

     total magnetization       =    32.83 Bohr mag/cell
     absolute magnetization    =    34.58 Bohr mag/cell

     iteration # 18     ecut=    71.00 Ry     beta= 0.10
     Davidson diagonalization with overlap
     ethr =  2.69E-08,  avg # of iterations =  2.6

     negative rho (up, down):  0.000E+00 2.421E-03

     total cpu time spent up to now is     1452.7 secs

     total energy              =   -5268.18940686 Ry
     Harris-Foulkes estimate   =   -5268.18940018 Ry
     estimated scf accuracy    <       0.00003930 Ry

     total magnetization       =    32.85 Bohr mag/cell
     absolute magnetization    =    34.60 Bohr mag/cell

     iteration # 19     ecut=    71.00 Ry     beta= 0.10
     Davidson diagonalization with overlap
     ethr =  1.54E-08,  avg # of iterations =  2.2

     negative rho (up, down):  0.000E+00 2.426E-03

     total cpu time spent up to now is     1526.5 secs

     total energy              =   -5268.18941132 Ry
     Harris-Foulkes estimate   =   -5268.18941120 Ry
     estimated scf accuracy    <       0.00002126 Ry

     total magnetization       =    32.87 Bohr mag/cell
     absolute magnetization    =    34.63 Bohr mag/cell

     iteration # 20     ecut=    71.00 Ry     beta= 0.10
     Davidson diagonalization with overlap
     ethr =  8.30E-09,  avg # of iterations =  1.1

     negative rho (up, down):  0.000E+00 2.465E-03

     total cpu time spent up to now is     1583.4 secs

     total energy              =   -5268.18941049 Ry
     Harris-Foulkes estimate   =   -5268.18941220 Ry
     estimated scf accuracy    <       0.00001902 Ry

     total magnetization       =    32.87 Bohr mag/cell
     absolute magnetization    =    34.63 Bohr mag/cell

     iteration # 21     ecut=    71.00 Ry     beta= 0.10
     Davidson diagonalization with overlap
     ethr =  7.43E-09,  avg # of iterations =  3.0

     negative rho (up, down):  0.000E+00 2.465E-03

     total cpu time spent up to now is     1672.1 secs

     total energy              =   -5268.18941595 Ry
     Harris-Foulkes estimate   =   -5268.18941392 Ry
     estimated scf accuracy    <       0.00000719 Ry

     total magnetization       =    32.89 Bohr mag/cell
     absolute magnetization    =    34.66 Bohr mag/cell

     iteration # 22     ecut=    71.00 Ry     beta= 0.10
     Davidson diagonalization with overlap
     ethr =  2.81E-09,  avg # of iterations =  1.0

     negative rho (up, down):  0.000E+00 2.460E-03

     total cpu time spent up to now is     1727.3 secs

     total energy              =   -5268.18941901 Ry
     Harris-Foulkes estimate   =   -5268.18941636 Ry
     estimated scf accuracy    <       0.00000465 Ry

     total magnetization       =    32.89 Bohr mag/cell
     absolute magnetization    =    34.66 Bohr mag/cell

     iteration # 23     ecut=    71.00 Ry     beta= 0.10
     Davidson diagonalization with overlap
     ethr =  1.82E-09,  avg # of iterations =  2.5

     negative rho (up, down):  0.000E+00 2.452E-03

     total cpu time spent up to now is     1805.8 secs

     total energy              =   -5268.18942072 Ry
     Harris-Foulkes estimate   =   -5268.18941985 Ry
     estimated scf accuracy    <       0.00000210 Ry

     total magnetization       =    32.90 Bohr mag/cell
     absolute magnetization    =    34.67 Bohr mag/cell

     iteration # 24     ecut=    71.00 Ry     beta= 0.10
     Davidson diagonalization with overlap
     ethr =  8.22E-10,  avg # of iterations =  2.6

     negative rho (up, down):  0.000E+00 2.450E-03

     total cpu time spent up to now is     1885.4 secs

     total energy              =   -5268.18942149 Ry
     Harris-Foulkes estimate   =   -5268.18942101 Ry
     estimated scf accuracy    <       0.00000150 Ry

     total magnetization       =    32.90 Bohr mag/cell
     absolute magnetization    =    34.66 Bohr mag/cell

     iteration # 25     ecut=    71.00 Ry     beta= 0.10
     Davidson diagonalization with overlap
     ethr =  5.84E-10,  avg # of iterations =  1.4

     negative rho (up, down):  0.000E+00 2.464E-03
 
     Magnetic moment per site:
     atom:    1    charge:   14.3665    magn:    2.0995    constr:    0.0000
     atom:    2    charge:   14.3664    magn:    2.1016    constr:    0.0000
     atom:    3    charge:   14.3664    magn:    2.1002    constr:    0.0000
     atom:    4    charge:   14.3664    magn:    2.1016    constr:    0.0000
     atom:    5    charge:   14.3665    magn:    2.1002    constr:    0.0000
     atom:    6    charge:   14.3664    magn:    2.1016    constr:    0.0000
     atom:    7    charge:   14.3664    magn:    2.1004    constr:    0.0000
     atom:    8    charge:   14.3664    magn:    2.1016    constr:    0.0000
     atom:    9    charge:   14.3665    magn:    2.0984    constr:    0.0000
     atom:   10    charge:   14.3664    magn:    2.1016    constr:    0.0000
     atom:   11    charge:   14.3664    magn:    2.0987    constr:    0.0000
     atom:   12    charge:   14.3664    magn:    2.1016    constr:    0.0000
     atom:   13    charge:   14.3666    magn:    2.0989    constr:    0.0000
     atom:   14    charge:   14.3664    magn:    2.1016    constr:    0.0000
     atom:   15    charge:   14.3664    magn:    2.0993    constr:    0.0000
     atom:   16    charge:   14.3664    magn:    2.1016    constr:    0.0000

     total cpu time spent up to now is     1945.0 secs

     End of self-consistent calculation

     Number of k-points >= 100: set verbosity='high' to print the bands.

     the Fermi energy is    18.9744 ev

!    total energy              =   -5268.18942331 Ry
     Harris-Foulkes estimate   =   -5268.18942157 Ry
     estimated scf accuracy    <       0.00000073 Ry

     total all-electron energy =    -40728.933952 Ry

     The total energy is the sum of the following terms:

     one-electron contribution =   -1707.42880196 Ry
     hartree contribution      =    1022.27513020 Ry
     xc contribution           =    -444.25947445 Ry
     ewald contribution        =   -2814.22936729 Ry
     one-center paw contrib.   =   -1324.67104352 Ry
     smearing contrib. (-TS)   =       0.12413370 Ry

     total magnetization       =    32.90 Bohr mag/cell
     absolute magnetization    =    34.66 Bohr mag/cell

     convergence has been achieved in  25 iterations

     negative rho (up, down):  0.000E+00 2.464E-03

     Forces acting on atoms (cartesian axes, Ry/au):

     atom    1 type  1   force =     0.00000000    0.00000000    0.00000000
     atom    2 type  2   force =    -0.00007723    0.00026252    0.00009594
     atom    3 type  1   force =     0.00000000    0.00000000    0.00000000
     atom    4 type  2   force =    -0.00007723    0.00026252   -0.00009594
     atom    5 type  1   force =     0.00000000    0.00000000    0.00000000
     atom    6 type  2   force =    -0.00007723   -0.00026252    0.00009594
     atom    7 type  1   force =     0.00000000    0.00000000    0.00000000
     atom    8 type  2   force =    -0.00007723   -0.00026252   -0.00009594
     atom    9 type  1   force =     0.00000000    0.00000000    0.00000000
     atom   10 type  2   force =     0.00007723    0.00026252    0.00009594
     atom   11 type  1   force =     0.00000000    0.00000000    0.00000000
     atom   12 type  2   force =     0.00007723    0.00026252   -0.00009594
     atom   13 type  1   force =     0.00000000    0.00000000    0.00000000
     atom   14 type  2   force =     0.00007723   -0.00026252    0.00009594
     atom   15 type  1   force =     0.00000000    0.00000000    0.00000000
     atom   16 type  2   force =     0.00007723   -0.00026252   -0.00009594

     Total force =     0.000820     Total SCF correction =     0.005221
     SCF correction compared to forces is large: reduce conv_thr to get better values


     Computing stress (Cartesian axis) and pressure


     negative rho (up, down):  0.000E+00 2.464E-03
          total   stress  (Ry/bohr**3)                   (kbar)     P=   -3.23
  -0.00003964   0.00000000   0.00000000         -5.83      0.00      0.00
   0.00000000  -0.00002215   0.00000000          0.00     -3.26      0.00
   0.00000000   0.00000000  -0.00000409          0.00      0.00     -0.60


     Writing output data file pJqlxdelfyrxhWmH.save/
 
     init_run     :     21.13s CPU     22.09s WALL (       1 calls)
     electrons    :   1862.72s CPU   1921.67s WALL (       1 calls)
     forces       :      7.66s CPU      8.36s WALL (       1 calls)
     stress       :     20.77s CPU     20.97s WALL (       1 calls)

     Called by init_run:
     wfcinit      :     20.61s CPU     21.47s WALL (       1 calls)
     potinit      :      0.27s CPU      0.30s WALL (       1 calls)
     hinit0       :      0.15s CPU      0.16s WALL (       1 calls)

     Called by electrons:
     c_bands      :   1679.17s CPU   1728.03s WALL (      26 calls)
     sum_band     :    178.29s CPU    187.74s WALL (      26 calls)
     v_of_rho     :      0.40s CPU      0.41s WALL (      26 calls)
     newd         :      0.80s CPU      1.05s WALL (      26 calls)
     PAW_pot      :      4.00s CPU      4.28s WALL (      26 calls)
     mix_rho      :      0.15s CPU      0.16s WALL (      26 calls)

     Called by c_bands:
     init_us_2    :      8.70s CPU      8.81s WALL (   13750 calls)
     cegterg      :   1632.61s CPU   1681.00s WALL (    6500 calls)

     Called by sum_band:
     sum_band:bec :      2.53s CPU      2.57s WALL (    6500 calls)
     addusdens    :      1.26s CPU      1.47s WALL (      26 calls)

     Called by *egterg:
     h_psi        :    707.28s CPU    737.09s WALL (   20769 calls)
     s_psi        :     37.31s CPU     37.55s WALL (   20769 calls)
     g_psi        :      1.49s CPU      1.51s WALL (   14019 calls)
     cdiaghg      :    723.22s CPU    725.71s WALL (   20269 calls)

     Called by h_psi:
     h_psi:pot    :    703.48s CPU    733.25s WALL (   20769 calls)
     h_psi:calbec :     57.52s CPU     66.83s WALL (   20769 calls)
     vloc_psi     :    607.34s CPU    627.58s WALL (   20769 calls)
     add_vuspsi   :     38.45s CPU     38.72s WALL (   20769 calls)

     General routines
     calbec       :     87.97s CPU    102.44s WALL (   28519 calls)
     fft          :      0.44s CPU      0.47s WALL (     692 calls)
     ffts         :      0.08s CPU      0.27s WALL (     104 calls)
     fftw         :    707.62s CPU    731.14s WALL ( 5389450 calls)
     interpolate  :      0.07s CPU      0.17s WALL (      52 calls)
 
     Parallel routines
     fft_scatt_xy :     46.45s CPU     48.00s WALL ( 5390246 calls)
     fft_scatt_yz :    475.10s CPU    491.27s WALL ( 5390246 calls)
 
     PWSCF        : 32m 7.18s CPU    33m55.21s WALL

 
   This run was terminated on:  20:51:58   2Nov2020            

=------------------------------------------------------------------------------=
   JOB DONE.
=------------------------------------------------------------------------------=
