--------------------------------------------------------------------------
WARNING: No preset parameters were found for the device that Open MPI
detected:

  Local host:            bear-pg0206u13b
  Device name:           mlx5_0
  Device vendor ID:      0x02c9
  Device vendor part ID: 4123

Default device parameters will be used, which may result in lower
performance.  You can edit any of the files specified by the
btl_openib_device_param_files MCA parameter to set values for your
device.

NOTE: You can turn off this warning by setting the MCA parameter
      btl_openib_warn_no_device_params_found to 0.
--------------------------------------------------------------------------
--------------------------------------------------------------------------
WARNING: There was an error initializing an OpenFabrics device.

  Local host:   bear-pg0206u13b
  Local device: mlx5_0
--------------------------------------------------------------------------

     Program PWSCF v.6.3 starts on 12Oct2020 at 14:54:28 

     This program is part of the open-source Quantum ESPRESSO suite
     for quantum simulation of materials; please cite
         "P. Giannozzi et al., J. Phys.:Condens. Matter 21 395502 (2009);
         "P. Giannozzi et al., J. Phys.:Condens. Matter 29 465901 (2017);
          URL http://www.quantum-espresso.org", 
     in publications or presentations arising from this work. More details at
     http://www.quantum-espresso.org/quote

     Parallel version (MPI & OpenMP), running on      40 processor cores
     Number of MPI processes:                40
     Threads/MPI process:                     1

     MPI processes distributed on     1 nodes
     R & G space division:  proc/nbgrp/npool/nimage =      40
     Reading input from wd/ec/ec_3_007.in
Warning: card &IONS ignored
Warning: card ION_DYNAMICS = 'BFGS', ignored
Warning: card / ignored
Warning: card &CELL ignored
Warning: card CELL_DYNAMICS = 'BFGS', ignored
Warning: card CELL_FACTOR = 2.0, ignored
Warning: card PRESS = 0.0, ignored
Warning: card / ignored

     Current dimensions of program PWSCF are:
     Max number of different atomic species (ntypx) = 10
     Max number of k-points (npk) =  40000
     Max angular momentum in pseudopotentials (lmaxx) =  3
               file Fe.pbe-spn-kjpaw_psl.1.0.0.UPF: wavefunction(s)  3P 3D renormalized
               file Fe.pbe-spn-kjpaw_psl.1.0.0.UPF: wavefunction(s)  3P 3D renormalized
               file Fe.pbe-spn-kjpaw_psl.1.0.0.UPF: wavefunction(s)  3P 3D renormalized
               file Fe.pbe-spn-kjpaw_psl.1.0.0.UPF: wavefunction(s)  3P 3D renormalized

     Subspace diagonalization in iterative solution of the eigenvalue problem:
     a serial algorithm will be used

     Found symmetry operation: I + (  0.0000  0.0000 -0.5000)
     This is a supercell, fractional translations are disabled
 
     Parallelization info
     --------------------
     sticks:   dense  smooth     PW     G-vecs:    dense   smooth      PW
     Min         150      99     27                 8680     4657     671
     Max         151     100     28                 8687     4664     674
     Sum        6035    3993   1103               347357   186423   26911
 


     bravais-lattice index     =            0
     lattice parameter (alat)  =      12.9382  a.u.
     unit-cell volume          =    2306.5969 (a.u.)^3
     number of atoms/cell      =           32
     number of atomic types    =            4
     number of electrons       =       512.00
     number of Kohn-Sham states=          307
     kinetic-energy cutoff     =      71.0000  Ry
     charge density cutoff     =     430.0000  Ry
     convergence threshold     =      1.0E-06
     mixing beta               =       0.1000
     number of iterations used =           10  plain     mixing
     Exchange-correlation      = SLA PW PBX PBC ( 1  4  3  4 0 0)

     celldm(1)=  12.938187  celldm(2)=   0.000000  celldm(3)=   0.000000
     celldm(4)=   0.000000  celldm(5)=   0.000000  celldm(6)=   0.000000

     crystal axes: (cart. coord. in units of alat)
               a(1) = (   1.000000   0.000000   0.000000 )  
               a(2) = (   0.000000   1.054474   0.000000 )  
               a(3) = (   0.000000   0.000000   1.009987 )  

     reciprocal axes: (cart. coord. in units 2 pi/alat)
               b(1) = (  1.000000  0.000000  0.000000 )  
               b(2) = (  0.000000  0.948340  0.000000 )  
               b(3) = (  0.000000  0.000000  0.990112 )  


     PseudoPot. # 1 for Fe read from file:
     /rds/homes/b/bxp912/pp/Fe.pbe-spn-kjpaw_psl.1.0.0.UPF
     MD5 check sum: 42f43b795421b414b0dc916aa790dbcb
     Pseudo is Projector augmented-wave + core cor, Zval = 16.0
     Generated using "atomic" code by A. Dal Corso v.6.3
     Shape of augmentation charge: PSQ
     Using radial grid of 1191 points,  6 beta functions with: 
                l(1) =   0
                l(2) =   0
                l(3) =   1
                l(4) =   1
                l(5) =   2
                l(6) =   2
     Q(r) pseudized with 0 coefficients 


     PseudoPot. # 2 for Fe read from file:
     /rds/homes/b/bxp912/pp/Fe.pbe-spn-kjpaw_psl.1.0.0.UPF
     MD5 check sum: 42f43b795421b414b0dc916aa790dbcb
     Pseudo is Projector augmented-wave + core cor, Zval = 16.0
     Generated using "atomic" code by A. Dal Corso v.6.3
     Shape of augmentation charge: PSQ
     Using radial grid of 1191 points,  6 beta functions with: 
                l(1) =   0
                l(2) =   0
                l(3) =   1
                l(4) =   1
                l(5) =   2
                l(6) =   2
     Q(r) pseudized with 0 coefficients 


     PseudoPot. # 3 for Fe read from file:
     /rds/homes/b/bxp912/pp/Fe.pbe-spn-kjpaw_psl.1.0.0.UPF
     MD5 check sum: 42f43b795421b414b0dc916aa790dbcb
     Pseudo is Projector augmented-wave + core cor, Zval = 16.0
     Generated using "atomic" code by A. Dal Corso v.6.3
     Shape of augmentation charge: PSQ
     Using radial grid of 1191 points,  6 beta functions with: 
                l(1) =   0
                l(2) =   0
                l(3) =   1
                l(4) =   1
                l(5) =   2
                l(6) =   2
     Q(r) pseudized with 0 coefficients 


     PseudoPot. # 4 for Fe read from file:
     /rds/homes/b/bxp912/pp/Fe.pbe-spn-kjpaw_psl.1.0.0.UPF
     MD5 check sum: 42f43b795421b414b0dc916aa790dbcb
     Pseudo is Projector augmented-wave + core cor, Zval = 16.0
     Generated using "atomic" code by A. Dal Corso v.6.3
     Shape of augmentation charge: PSQ
     Using radial grid of 1191 points,  6 beta functions with: 
                l(1) =   0
                l(2) =   0
                l(3) =   1
                l(4) =   1
                l(5) =   2
                l(6) =   2
     Q(r) pseudized with 0 coefficients 


     atomic species   valence    mass     pseudopotential
        Fe1           16.00    55.84500     Fe( 1.00)
        Fe2           16.00    55.84500     Fe( 1.00)
        Fe3           16.00    55.84500     Fe( 1.00)
        Fe4           16.00    55.84500     Fe( 1.00)

     Starting magnetic structure 
     atomic species   magnetization
        Fe1          0.100
        Fe2         -0.100
        Fe3          0.100
        Fe4         -0.100

      8 Sym. Ops., with inversion, found



   Cartesian axes

     site n.     atom                  positions (alat units)
         1           Fe1 tau(   1) = (   0.0000000   0.0000000   0.0000000  )
         2           Fe2 tau(   2) = (   0.2499968   0.2636211   0.0000000  )
         3           Fe3 tau(   3) = (   0.2499981   0.0000000   0.2524947  )
         4           Fe4 tau(   4) = (   0.0000000   0.2636197   0.2525008  )
         5           Fe1 tau(   5) = (   0.0000000   0.0000000   0.5049934  )
         6           Fe2 tau(   6) = (   0.2499996   0.2636239   0.5049934  )
         7           Fe3 tau(   7) = (   0.2499981   0.0000000   0.7574911  )
         8           Fe4 tau(   8) = (   0.0000000   0.2636197   0.7574851  )
         9           Fe1 tau(   9) = (   0.0000000   0.5272369   0.0000000  )
        10           Fe2 tau(  10) = (   0.2499968   0.7908529   0.0000000  )
        11           Fe3 tau(  11) = (   0.2500004   0.5272369   0.2524987  )
        12           Fe4 tau(  12) = (   0.0000000   0.7908543   0.2525008  )
        13           Fe1 tau(  13) = (   0.0000000   0.5272369   0.5049934  )
        14           Fe2 tau(  14) = (   0.2499996   0.7908501   0.5049934  )
        15           Fe3 tau(  15) = (   0.2500004   0.5272369   0.7574881  )
        16           Fe4 tau(  16) = (   0.0000000   0.7908543   0.7574851  )
        17           Fe1 tau(  17) = (   0.4999998   0.0000000   0.0000000  )
        18           Fe2 tau(  18) = (   0.7500027   0.2636211   0.0000000  )
        19           Fe3 tau(  19) = (   0.7500015   0.0000000   0.2524947  )
        20           Fe4 tau(  20) = (   0.4999998   0.2636187   0.2524987  )
        21           Fe1 tau(  21) = (   0.4999998   0.0000000   0.5049934  )
        22           Fe2 tau(  22) = (   0.7499998   0.2636239   0.5049934  )
        23           Fe3 tau(  23) = (   0.7500015   0.0000000   0.7574911  )
        24           Fe4 tau(  24) = (   0.4999998   0.2636187   0.7574871  )
        25           Fe1 tau(  25) = (   0.4999998   0.5272369   0.0000000  )
        26           Fe2 tau(  26) = (   0.7500027   0.7908529   0.0000000  )
        27           Fe3 tau(  27) = (   0.7499992   0.5272369   0.2524987  )
        28           Fe4 tau(  28) = (   0.4999998   0.7908553   0.2524987  )
        29           Fe1 tau(  29) = (   0.4999998   0.5272369   0.5049934  )
        30           Fe2 tau(  30) = (   0.7499998   0.7908501   0.5049934  )
        31           Fe3 tau(  31) = (   0.7499992   0.5272369   0.7574881  )
        32           Fe4 tau(  32) = (   0.4999998   0.7908553   0.7574871  )

     number of k points=   125  Marzari-Vanderbilt smearing, width (Ry)=  0.0400

     Number of k-points >= 100: set verbosity='high' to print them.

     Dense  grid:   347357 G-vectors     FFT dimensions: (  90,  96,  90)

     Smooth grid:   186423 G-vectors     FFT dimensions: (  72,  75,  72)

     Estimated max dynamical RAM per process >     818.42 MB

     Estimated total dynamical RAM >      31.97 GB
     Generating pointlists ...
     new r_m :   0.1466 (alat units)  1.8963 (a.u.) for type    1
     new r_m :   0.1466 (alat units)  1.8963 (a.u.) for type    2
     new r_m :   0.1466 (alat units)  1.8963 (a.u.) for type    3
     new r_m :   0.1466 (alat units)  1.8963 (a.u.) for type    4

     Check: negative/imaginary core charge=   -0.000006    0.000000

     Initial potential from superposition of free atoms

     starting charge  511.98600, renormalised to  512.00000
     Starting wfcs are  320 randomized atomic wfcs
     Checking if some PAW data can be deallocated... 

     total cpu time spent up to now is       85.5 secs

     Self-consistent Calculation

     iteration #  1     ecut=    71.00 Ry     beta= 0.10
     Davidson diagonalization with overlap
     ethr =  1.00E-02,  avg # of iterations =  3.5

     Threshold (ethr) on eigenvalues was too large:
     Diagonalizing with lowered threshold

     Davidson diagonalization with overlap
     ethr =  3.11E-04,  avg # of iterations =  4.0

     total cpu time spent up to now is     1045.4 secs

     total energy              =  -10536.43138221 Ry
     Harris-Foulkes estimate   =  -10536.76716773 Ry
     estimated scf accuracy    <       1.84338959 Ry

     total magnetization       =     0.24 Bohr mag/cell
     absolute magnetization    =    44.55 Bohr mag/cell

     iteration #  2     ecut=    71.00 Ry     beta= 0.10
     Davidson diagonalization with overlap
     ethr =  3.60E-04,  avg # of iterations =  1.1

     total cpu time spent up to now is     1275.7 secs

     total energy              =  -10536.21952689 Ry
     Harris-Foulkes estimate   =  -10536.47661785 Ry
     estimated scf accuracy    <       1.09653269 Ry

     total magnetization       =    -0.12 Bohr mag/cell
     absolute magnetization    =    45.29 Bohr mag/cell

     iteration #  3     ecut=    71.00 Ry     beta= 0.10
     Davidson diagonalization with overlap
     ethr =  2.14E-04,  avg # of iterations =  2.3

     total cpu time spent up to now is     1606.6 secs

     total energy              =  -10536.08486873 Ry
     Harris-Foulkes estimate   =  -10536.35535882 Ry
     estimated scf accuracy    <       2.66053922 Ry

     total magnetization       =     0.25 Bohr mag/cell
     absolute magnetization    =    45.69 Bohr mag/cell

     iteration #  4     ecut=    71.00 Ry     beta= 0.10
     Davidson diagonalization with overlap
     ethr =  2.14E-04,  avg # of iterations =  2.5

     total cpu time spent up to now is     1933.9 secs

     total energy              =  -10536.18524586 Ry
     Harris-Foulkes estimate   =  -10536.21705030 Ry
     estimated scf accuracy    <       0.52722614 Ry

     total magnetization       =     0.37 Bohr mag/cell
     absolute magnetization    =    46.73 Bohr mag/cell

     iteration #  5     ecut=    71.00 Ry     beta= 0.10
     Davidson diagonalization with overlap
     ethr =  1.03E-04,  avg # of iterations =  1.3

     total cpu time spent up to now is     2182.0 secs

     total energy              =  -10536.19619548 Ry
     Harris-Foulkes estimate   =  -10536.20482687 Ry
     estimated scf accuracy    <       0.08345670 Ry

     total magnetization       =     0.03 Bohr mag/cell
     absolute magnetization    =    46.88 Bohr mag/cell

     iteration #  6     ecut=    71.00 Ry     beta= 0.10
     Davidson diagonalization with overlap
     ethr =  1.63E-05,  avg # of iterations =  3.3

     total cpu time spent up to now is     2569.6 secs

     total energy              =  -10536.18744656 Ry
     Harris-Foulkes estimate   =  -10536.19959584 Ry
     estimated scf accuracy    <       0.06925536 Ry

     total magnetization       =    -0.11 Bohr mag/cell
     absolute magnetization    =    46.85 Bohr mag/cell

     iteration #  7     ecut=    71.00 Ry     beta= 0.10
     Davidson diagonalization with overlap
     ethr =  1.35E-05,  avg # of iterations =  3.8

     total cpu time spent up to now is     3127.8 secs

     total energy              =  -10536.20439019 Ry
     Harris-Foulkes estimate   =  -10536.20723106 Ry
     estimated scf accuracy    <       0.09995096 Ry

     total magnetization       =     0.04 Bohr mag/cell
     absolute magnetization    =    47.03 Bohr mag/cell

     iteration #  8     ecut=    71.00 Ry     beta= 0.10
     Davidson diagonalization with overlap
     ethr =  1.35E-05,  avg # of iterations =  2.0

     total cpu time spent up to now is     3441.0 secs

     total energy              =  -10536.20527776 Ry
     Harris-Foulkes estimate   =  -10536.20846579 Ry
     estimated scf accuracy    <       0.07370472 Ry

     total magnetization       =     0.06 Bohr mag/cell
     absolute magnetization    =    47.29 Bohr mag/cell

     iteration #  9     ecut=    71.00 Ry     beta= 0.10
     Davidson diagonalization with overlap
     ethr =  1.35E-05,  avg # of iterations =  1.0

     total cpu time spent up to now is     3669.3 secs

     total energy              =  -10536.21361264 Ry
     Harris-Foulkes estimate   =  -10536.20675911 Ry
     estimated scf accuracy    <       0.03879638 Ry

     total magnetization       =     0.02 Bohr mag/cell
     absolute magnetization    =    47.45 Bohr mag/cell

     iteration # 10     ecut=    71.00 Ry     beta= 0.10
     Davidson diagonalization with overlap
     ethr =  7.58E-06,  avg # of iterations =  2.3

     total cpu time spent up to now is     3988.3 secs

     total energy              =  -10536.23717452 Ry
     Harris-Foulkes estimate   =  -10536.21541010 Ry
     estimated scf accuracy    <       0.03266442 Ry

     total magnetization       =    -0.07 Bohr mag/cell
     absolute magnetization    =    47.71 Bohr mag/cell

     iteration # 11     ecut=    71.00 Ry     beta= 0.10
     Davidson diagonalization with overlap
     ethr =  6.38E-06,  avg # of iterations =  3.8

     total cpu time spent up to now is     4559.8 secs

     total energy              =  -10536.25209952 Ry
     Harris-Foulkes estimate   =  -10536.24858535 Ry
     estimated scf accuracy    <       0.03323462 Ry

     total magnetization       =    -0.14 Bohr mag/cell
     absolute magnetization    =    48.56 Bohr mag/cell

     iteration # 12     ecut=    71.00 Ry     beta= 0.10
     Davidson diagonalization with overlap
     ethr =  6.38E-06,  avg # of iterations =  1.0

     total cpu time spent up to now is     4794.6 secs

     total energy              =  -10536.25295480 Ry
     Harris-Foulkes estimate   =  -10536.25323258 Ry
     estimated scf accuracy    <       0.02218277 Ry

     total magnetization       =    -0.08 Bohr mag/cell
     absolute magnetization    =    48.78 Bohr mag/cell

     iteration # 13     ecut=    71.00 Ry     beta= 0.10
     Davidson diagonalization with overlap
     ethr =  4.33E-06,  avg # of iterations =  1.9

     total cpu time spent up to now is     5095.7 secs

     total energy              =  -10536.25418858 Ry
     Harris-Foulkes estimate   =  -10536.25417773 Ry
     estimated scf accuracy    <       0.00320365 Ry

     total magnetization       =    -0.01 Bohr mag/cell
     absolute magnetization    =    49.02 Bohr mag/cell

     iteration # 14     ecut=    71.00 Ry     beta= 0.10
     Davidson diagonalization with overlap
     ethr =  6.26E-07,  avg # of iterations =  3.3

     total cpu time spent up to now is     5520.1 secs

     total energy              =  -10536.25451560 Ry
     Harris-Foulkes estimate   =  -10536.25444527 Ry
     estimated scf accuracy    <       0.00136298 Ry

     total magnetization       =    -0.02 Bohr mag/cell
     absolute magnetization    =    49.09 Bohr mag/cell

     iteration # 15     ecut=    71.00 Ry     beta= 0.10
     Davidson diagonalization with overlap
     ethr =  2.66E-07,  avg # of iterations =  1.1

     total cpu time spent up to now is     5756.3 secs

     total energy              =  -10536.25471978 Ry
     Harris-Foulkes estimate   =  -10536.25456273 Ry
     estimated scf accuracy    <       0.00095071 Ry

     total magnetization       =    -0.01 Bohr mag/cell
     absolute magnetization    =    49.18 Bohr mag/cell

     iteration # 16     ecut=    71.00 Ry     beta= 0.10
     Davidson diagonalization with overlap
     ethr =  1.86E-07,  avg # of iterations =  1.7

     total cpu time spent up to now is     6035.7 secs

     total energy              =  -10536.25480583 Ry
     Harris-Foulkes estimate   =  -10536.25477564 Ry
     estimated scf accuracy    <       0.00089334 Ry

     total magnetization       =     0.00 Bohr mag/cell
     absolute magnetization    =    49.29 Bohr mag/cell

     iteration # 17     ecut=    71.00 Ry     beta= 0.10
     Davidson diagonalization with overlap
     ethr =  1.74E-07,  avg # of iterations =  1.2

     total cpu time spent up to now is     6285.5 secs

     total energy              =  -10536.25491892 Ry
     Harris-Foulkes estimate   =  -10536.25484955 Ry
     estimated scf accuracy    <       0.00067117 Ry

     total magnetization       =    -0.03 Bohr mag/cell
     absolute magnetization    =    49.34 Bohr mag/cell

     iteration # 18     ecut=    71.00 Ry     beta= 0.10
     Davidson diagonalization with overlap
     ethr =  1.31E-07,  avg # of iterations =  2.0

     total cpu time spent up to now is     6585.3 secs

     total energy              =  -10536.25509480 Ry
     Harris-Foulkes estimate   =  -10536.25495053 Ry
     estimated scf accuracy    <       0.00048170 Ry

     total magnetization       =    -0.01 Bohr mag/cell
     absolute magnetization    =    49.40 Bohr mag/cell

     iteration # 19     ecut=    71.00 Ry     beta= 0.10
     Davidson diagonalization with overlap
     ethr =  9.41E-08,  avg # of iterations =  2.3

     total cpu time spent up to now is     6910.7 secs

     total energy              =  -10536.25526083 Ry
     Harris-Foulkes estimate   =  -10536.25512086 Ry
     estimated scf accuracy    <       0.00036008 Ry

     total magnetization       =    -0.01 Bohr mag/cell
     absolute magnetization    =    49.49 Bohr mag/cell

     iteration # 20     ecut=    71.00 Ry     beta= 0.10
     Davidson diagonalization with overlap
     ethr =  7.03E-08,  avg # of iterations =  2.8

     total cpu time spent up to now is     7274.4 secs

     total energy              =  -10536.25538659 Ry
     Harris-Foulkes estimate   =  -10536.25530142 Ry
     estimated scf accuracy    <       0.00059677 Ry

     total magnetization       =    -0.01 Bohr mag/cell
     absolute magnetization    =    49.62 Bohr mag/cell

     iteration # 21     ecut=    71.00 Ry     beta= 0.10
     Davidson diagonalization with overlap
     ethr =  7.03E-08,  avg # of iterations =  2.4

     total cpu time spent up to now is     7606.4 secs

     total energy              =  -10536.25546073 Ry
     Harris-Foulkes estimate   =  -10536.25543170 Ry
     estimated scf accuracy    <       0.00025833 Ry

     total magnetization       =    -0.01 Bohr mag/cell
     absolute magnetization    =    49.76 Bohr mag/cell

     iteration # 22     ecut=    71.00 Ry     beta= 0.10
     Davidson diagonalization with overlap
     ethr =  5.05E-08,  avg # of iterations =  1.2

     total cpu time spent up to now is     7863.3 secs

     total energy              =  -10536.25550649 Ry
     Harris-Foulkes estimate   =  -10536.25547551 Ry
     estimated scf accuracy    <       0.00013455 Ry

     total magnetization       =    -0.01 Bohr mag/cell
     absolute magnetization    =    49.83 Bohr mag/cell

     iteration # 23     ecut=    71.00 Ry     beta= 0.10
     Davidson diagonalization with overlap
     ethr =  2.63E-08,  avg # of iterations =  2.9

     total cpu time spent up to now is     8231.3 secs

     total energy              =  -10536.25552853 Ry
     Harris-Foulkes estimate   =  -10536.25551736 Ry
     estimated scf accuracy    <       0.00008963 Ry

     total magnetization       =    -0.01 Bohr mag/cell
     absolute magnetization    =    49.90 Bohr mag/cell

     iteration # 24     ecut=    71.00 Ry     beta= 0.10
     Davidson diagonalization with overlap
     ethr =  1.75E-08,  avg # of iterations =  2.1

     total cpu time spent up to now is     8529.9 secs

     total energy              =  -10536.25552826 Ry
     Harris-Foulkes estimate   =  -10536.25553286 Ry
     estimated scf accuracy    <       0.00010998 Ry

     total magnetization       =    -0.01 Bohr mag/cell
     absolute magnetization    =    49.94 Bohr mag/cell

     iteration # 25     ecut=    71.00 Ry     beta= 0.10
     Davidson diagonalization with overlap
     ethr =  1.75E-08,  avg # of iterations =  3.2

     total cpu time spent up to now is     9009.4 secs

     total energy              =  -10536.25557511 Ry
     Harris-Foulkes estimate   =  -10536.25558188 Ry
     estimated scf accuracy    <       0.00004276 Ry

     total magnetization       =    -0.00 Bohr mag/cell
     absolute magnetization    =    50.14 Bohr mag/cell

     iteration # 26     ecut=    71.00 Ry     beta= 0.10
     Davidson diagonalization with overlap
     ethr =  8.35E-09,  avg # of iterations =  2.2

     total cpu time spent up to now is     9331.1 secs

     total energy              =  -10536.25558129 Ry
     Harris-Foulkes estimate   =  -10536.25557973 Ry
     estimated scf accuracy    <       0.00002978 Ry

     total magnetization       =    -0.00 Bohr mag/cell
     absolute magnetization    =    50.16 Bohr mag/cell

     iteration # 27     ecut=    71.00 Ry     beta= 0.10
     Davidson diagonalization with overlap
     ethr =  5.82E-09,  avg # of iterations =  1.0

     total cpu time spent up to now is     9559.5 secs

     total energy              =  -10536.25558468 Ry
     Harris-Foulkes estimate   =  -10536.25558240 Ry
     estimated scf accuracy    <       0.00001557 Ry

     total magnetization       =    -0.00 Bohr mag/cell
     absolute magnetization    =    50.17 Bohr mag/cell

     iteration # 28     ecut=    71.00 Ry     beta= 0.10
     Davidson diagonalization with overlap
     ethr =  3.04E-09,  avg # of iterations =  1.0

     total cpu time spent up to now is     9800.8 secs

     total energy              =  -10536.25558759 Ry
     Harris-Foulkes estimate   =  -10536.25558517 Ry
     estimated scf accuracy    <       0.00001280 Ry

     total magnetization       =    -0.00 Bohr mag/cell
     absolute magnetization    =    50.18 Bohr mag/cell

     iteration # 29     ecut=    71.00 Ry     beta= 0.10
     Davidson diagonalization with overlap
     ethr =  2.50E-09,  avg # of iterations =  1.0

     total cpu time spent up to now is    10032.9 secs

     total energy              =  -10536.25558965 Ry
     Harris-Foulkes estimate   =  -10536.25558803 Ry
     estimated scf accuracy    <       0.00001180 Ry

     total magnetization       =    -0.00 Bohr mag/cell
     absolute magnetization    =    50.19 Bohr mag/cell

     iteration # 30     ecut=    71.00 Ry     beta= 0.10
     Davidson diagonalization with overlap
     ethr =  2.31E-09,  avg # of iterations =  1.1

     total cpu time spent up to now is    10268.8 secs

     total energy              =  -10536.25559326 Ry
     Harris-Foulkes estimate   =  -10536.25559010 Ry
     estimated scf accuracy    <       0.00001051 Ry

     total magnetization       =    -0.00 Bohr mag/cell
     absolute magnetization    =    50.20 Bohr mag/cell

     iteration # 31     ecut=    71.00 Ry     beta= 0.10
     Davidson diagonalization with overlap
     ethr =  2.05E-09,  avg # of iterations =  3.1

     total cpu time spent up to now is    10665.3 secs

     total energy              =  -10536.25559632 Ry
     Harris-Foulkes estimate   =  -10536.25559532 Ry
     estimated scf accuracy    <       0.00000450 Ry

     total magnetization       =    -0.00 Bohr mag/cell
     absolute magnetization    =    50.23 Bohr mag/cell

     iteration # 32     ecut=    71.00 Ry     beta= 0.10
     Davidson diagonalization with overlap
     ethr =  8.80E-10,  avg # of iterations =  2.6

     total cpu time spent up to now is    11020.2 secs

     total energy              =  -10536.25559734 Ry
     Harris-Foulkes estimate   =  -10536.25559698 Ry
     estimated scf accuracy    <       0.00000279 Ry

     total magnetization       =    -0.00 Bohr mag/cell
     absolute magnetization    =    50.25 Bohr mag/cell

     iteration # 33     ecut=    71.00 Ry     beta= 0.10
     Davidson diagonalization with overlap
     ethr =  5.45E-10,  avg # of iterations =  1.6

     total cpu time spent up to now is    11292.6 secs

     total energy              =  -10536.25559739 Ry
     Harris-Foulkes estimate   =  -10536.25559751 Ry
     estimated scf accuracy    <       0.00000329 Ry

     total magnetization       =    -0.00 Bohr mag/cell
     absolute magnetization    =    50.26 Bohr mag/cell

     iteration # 34     ecut=    71.00 Ry     beta= 0.10
     Davidson diagonalization with overlap
     ethr =  5.45E-10,  avg # of iterations =  3.0

     total cpu time spent up to now is    11719.7 secs

     total energy              =  -10536.25559836 Ry
     Harris-Foulkes estimate   =  -10536.25559812 Ry
     estimated scf accuracy    <       0.00000108 Ry

     total magnetization       =    -0.00 Bohr mag/cell
     absolute magnetization    =    50.28 Bohr mag/cell

     iteration # 35     ecut=    71.00 Ry     beta= 0.10
     Davidson diagonalization with overlap
     ethr =  2.10E-10,  avg # of iterations =  1.1
 
     Magnetic moment per site:
     atom:    1    charge:   14.4093    magn:    1.5141    constr:    0.0000
     atom:    2    charge:   14.4097    magn:   -1.5138    constr:    0.0000
     atom:    3    charge:   14.4091    magn:    1.5164    constr:    0.0000
     atom:    4    charge:   14.4097    magn:   -1.5181    constr:    0.0000
     atom:    5    charge:   14.4095    magn:    1.5146    constr:    0.0000
     atom:    6    charge:   14.4098    magn:   -1.5131    constr:    0.0000
     atom:    7    charge:   14.4091    magn:    1.5164    constr:    0.0000
     atom:    8    charge:   14.4097    magn:   -1.5181    constr:    0.0000
     atom:    9    charge:   14.4096    magn:    1.5148    constr:    0.0000
     atom:   10    charge:   14.4097    magn:   -1.5138    constr:    0.0000
     atom:   11    charge:   14.4092    magn:    1.5158    constr:    0.0000
     atom:   12    charge:   14.4097    magn:   -1.5181    constr:    0.0000
     atom:   13    charge:   14.4097    magn:    1.5153    constr:    0.0000
     atom:   14    charge:   14.4098    magn:   -1.5131    constr:    0.0000
     atom:   15    charge:   14.4092    magn:    1.5158    constr:    0.0000
     atom:   16    charge:   14.4097    magn:   -1.5181    constr:    0.0000
     atom:   17    charge:   14.4096    magn:    1.5151    constr:    0.0000
     atom:   18    charge:   14.4097    magn:   -1.5138    constr:    0.0000
     atom:   19    charge:   14.4091    magn:    1.5164    constr:    0.0000
     atom:   20    charge:   14.4097    magn:   -1.5171    constr:    0.0000
     atom:   21    charge:   14.4096    magn:    1.5155    constr:    0.0000
     atom:   22    charge:   14.4098    magn:   -1.5131    constr:    0.0000
     atom:   23    charge:   14.4091    magn:    1.5164    constr:    0.0000
     atom:   24    charge:   14.4097    magn:   -1.5171    constr:    0.0000
     atom:   25    charge:   14.4095    magn:    1.5142    constr:    0.0000
     atom:   26    charge:   14.4097    magn:   -1.5138    constr:    0.0000
     atom:   27    charge:   14.4092    magn:    1.5158    constr:    0.0000
     atom:   28    charge:   14.4097    magn:   -1.5171    constr:    0.0000
     atom:   29    charge:   14.4095    magn:    1.5142    constr:    0.0000
     atom:   30    charge:   14.4098    magn:   -1.5131    constr:    0.0000
     atom:   31    charge:   14.4092    magn:    1.5158    constr:    0.0000
     atom:   32    charge:   14.4097    magn:   -1.5171    constr:    0.0000

     total cpu time spent up to now is    11954.6 secs

     End of self-consistent calculation

     Number of k-points >= 100: set verbosity='high' to print the bands.

     the Fermi energy is    19.8901 ev

!    total energy              =  -10536.25559888 Ry
     Harris-Foulkes estimate   =  -10536.25559839 Ry
     estimated scf accuracy    <       0.00000096 Ry

     total all-electron energy =    -81457.744657 Ry

     The total energy is the sum of the following terms:

     one-electron contribution =   -3321.93782501 Ry
     hartree contribution      =    2007.02875137 Ry
     xc contribution           =    -886.73332649 Ry
     ewald contribution        =   -5685.06362191 Ry
     one-center paw contrib.   =   -2649.55822943 Ry
     smearing contrib. (-TS)   =       0.00865259 Ry

     total magnetization       =    -0.00 Bohr mag/cell
     absolute magnetization    =    50.28 Bohr mag/cell

     convergence has been achieved in  35 iterations

     Forces acting on atoms (cartesian axes, Ry/au):

     atom    1 type  1   force =     0.00000000    0.00000000    0.00000000
     atom    2 type  2   force =    -0.00002952    0.00001913    0.00000000
     atom    3 type  3   force =     0.00002437    0.00000000   -0.00005728
     atom    4 type  4   force =     0.00000000   -0.00009483   -0.00001456
     atom    5 type  1   force =     0.00000000    0.00000000    0.00000000
     atom    6 type  2   force =     0.00001769    0.00000974    0.00000000
     atom    7 type  3   force =     0.00002437    0.00000000    0.00005728
     atom    8 type  4   force =     0.00000000   -0.00009483    0.00001456
     atom    9 type  1   force =     0.00000000    0.00000000    0.00000000
     atom   10 type  2   force =    -0.00002952   -0.00001913    0.00000000
     atom   11 type  3   force =     0.00003106    0.00000000   -0.00001645
     atom   12 type  4   force =     0.00000000    0.00009483   -0.00001456
     atom   13 type  1   force =     0.00000000    0.00000000    0.00000000
     atom   14 type  2   force =     0.00001769   -0.00000974    0.00000000
     atom   15 type  3   force =     0.00003106   -0.00000000    0.00001645
     atom   16 type  4   force =     0.00000000    0.00009483    0.00001456
     atom   17 type  1   force =     0.00000000    0.00000000    0.00000000
     atom   18 type  2   force =     0.00002952    0.00001913    0.00000000
     atom   19 type  3   force =    -0.00002437    0.00000000   -0.00005728
     atom   20 type  4   force =     0.00000000    0.00000760   -0.00000766
     atom   21 type  1   force =     0.00000000    0.00000000    0.00000000
     atom   22 type  2   force =    -0.00001769    0.00000974    0.00000000
     atom   23 type  3   force =    -0.00002437    0.00000000    0.00005728
     atom   24 type  4   force =     0.00000000    0.00000760    0.00000766
     atom   25 type  1   force =     0.00000000    0.00000000    0.00000000
     atom   26 type  2   force =     0.00002952   -0.00001913    0.00000000
     atom   27 type  3   force =    -0.00003106   -0.00000000   -0.00001645
     atom   28 type  4   force =     0.00000000   -0.00000760   -0.00000766
     atom   29 type  1   force =     0.00000000    0.00000000    0.00000000
     atom   30 type  2   force =    -0.00001769   -0.00000974    0.00000000
     atom   31 type  3   force =    -0.00003106    0.00000000    0.00001645
     atom   32 type  4   force =     0.00000000   -0.00000760    0.00000766

     Total force =     0.000254     Total SCF correction =     0.003271
     SCF correction compared to forces is large: reduce conv_thr to get better values


     Computing stress (Cartesian axis) and pressure

          total   stress  (Ry/bohr**3)                   (kbar)     P=  -23.11
  -0.00015361   0.00000000   0.00000000        -22.60      0.00      0.00
   0.00000000  -0.00007997   0.00000000          0.00    -11.76      0.00
   0.00000000   0.00000000  -0.00023769          0.00      0.00    -34.96


     Writing output data file rgVHFfekyboQTUpY.save/
-------------------------------------------------------
Primary job  terminated normally, but 1 process returned
a non-zero exit code.. Per user-direction, the job has been aborted.
-------------------------------------------------------
--------------------------------------------------------------------------
mpirun detected that one or more processes exited with non-zero status, thus causing
the job to be terminated. The first process to do so was:

  Process name: [[44185,1],0]
  Exit code:    38
--------------------------------------------------------------------------
