--------------------------------------------------------------------------
WARNING: There was an error initializing an OpenFabrics device.

  Local host:   bear-pg0211u36a
  Local device: mlx5_0
--------------------------------------------------------------------------

     Program PWSCF v.6.3 starts on 18Oct2020 at 19: 0:34 

     This program is part of the open-source Quantum ESPRESSO suite
     for quantum simulation of materials; please cite
         "P. Giannozzi et al., J. Phys.:Condens. Matter 21 395502 (2009);
         "P. Giannozzi et al., J. Phys.:Condens. Matter 29 465901 (2017);
          URL http://www.quantum-espresso.org", 
     in publications or presentations arising from this work. More details at
     http://www.quantum-espresso.org/quote

     Parallel version (MPI & OpenMP), running on      40 processor cores
     Number of MPI processes:                40
     Threads/MPI process:                     1

     MPI processes distributed on     1 nodes
     R & G space division:  proc/nbgrp/npool/nimage =      40
     Reading input from wd/ec/ec_7_003.in
Warning: card &IONS ignored
Warning: card ION_DYNAMICS = 'BFGS', ignored
Warning: card / ignored
Warning: card &CELL ignored
Warning: card CELL_DYNAMICS = 'BFGS', ignored
Warning: card CELL_FACTOR = 2.0, ignored
Warning: card PRESS = 0.0, ignored
Warning: card / ignored

     Current dimensions of program PWSCF are:
     Max number of different atomic species (ntypx) = 10
     Max number of k-points (npk) =  40000
     Max angular momentum in pseudopotentials (lmaxx) =  3
               file Fe.pbe-spn-kjpaw_psl.1.0.0.UPF: wavefunction(s)  3P 3D renormalized
               file Fe.pbe-spn-kjpaw_psl.1.0.0.UPF: wavefunction(s)  3P 3D renormalized
               file Fe.pbe-spn-kjpaw_psl.1.0.0.UPF: wavefunction(s)  3P 3D renormalized
               file Fe.pbe-spn-kjpaw_psl.1.0.0.UPF: wavefunction(s)  3P 3D renormalized

     Subspace diagonalization in iterative solution of the eigenvalue problem:
     a serial algorithm will be used

     Found symmetry operation: I + (  0.0000  0.0000  0.5000)
     This is a supercell, fractional translations are disabled
 
     Parallelization info
     --------------------
     sticks:   dense  smooth     PW     G-vecs:    dense   smooth      PW
     Min         150      99     27                 8594     4611     663
     Max         151     100     28                 8599     4618     666
     Sum        6033    3989   1107               343861   184613   26579
 


     bravais-lattice index     =            0
     lattice parameter (alat)  =      12.9382  a.u.
     unit-cell volume          =    2283.7593 (a.u.)^3
     number of atoms/cell      =           32
     number of atomic types    =            4
     number of electrons       =       512.00
     number of Kohn-Sham states=          307
     kinetic-energy cutoff     =      71.0000  Ry
     charge density cutoff     =     430.0000  Ry
     convergence threshold     =      1.0E-06
     mixing beta               =       0.1000
     number of iterations used =           10  plain     mixing
     Exchange-correlation      = SLA PW PBX PBC ( 1  4  3  4 0 0)

     celldm(1)=  12.938187  celldm(2)=   0.000000  celldm(3)=   0.000000
     celldm(4)=   0.000000  celldm(5)=   0.000000  celldm(6)=   0.000000

     crystal axes: (cart. coord. in units of alat)
               a(1) = (   1.003337   0.000000   0.000000 )  
               a(2) = (   0.000000   1.050963   0.000000 )  
               a(3) = (   0.000000   0.000000   0.999991 )  

     reciprocal axes: (cart. coord. in units 2 pi/alat)
               b(1) = (  0.996674  0.000000  0.000000 )  
               b(2) = (  0.000000  0.951509  0.000000 )  
               b(3) = (  0.000000  0.000000  1.000009 )  


     PseudoPot. # 1 for Fe read from file:
     /rds/homes/b/bxp912/pp/Fe.pbe-spn-kjpaw_psl.1.0.0.UPF
     MD5 check sum: 42f43b795421b414b0dc916aa790dbcb
     Pseudo is Projector augmented-wave + core cor, Zval = 16.0
     Generated using "atomic" code by A. Dal Corso v.6.3
     Shape of augmentation charge: PSQ
     Using radial grid of 1191 points,  6 beta functions with: 
                l(1) =   0
                l(2) =   0
                l(3) =   1
                l(4) =   1
                l(5) =   2
                l(6) =   2
     Q(r) pseudized with 0 coefficients 


     PseudoPot. # 2 for Fe read from file:
     /rds/homes/b/bxp912/pp/Fe.pbe-spn-kjpaw_psl.1.0.0.UPF
     MD5 check sum: 42f43b795421b414b0dc916aa790dbcb
     Pseudo is Projector augmented-wave + core cor, Zval = 16.0
     Generated using "atomic" code by A. Dal Corso v.6.3
     Shape of augmentation charge: PSQ
     Using radial grid of 1191 points,  6 beta functions with: 
                l(1) =   0
                l(2) =   0
                l(3) =   1
                l(4) =   1
                l(5) =   2
                l(6) =   2
     Q(r) pseudized with 0 coefficients 


     PseudoPot. # 3 for Fe read from file:
     /rds/homes/b/bxp912/pp/Fe.pbe-spn-kjpaw_psl.1.0.0.UPF
     MD5 check sum: 42f43b795421b414b0dc916aa790dbcb
     Pseudo is Projector augmented-wave + core cor, Zval = 16.0
     Generated using "atomic" code by A. Dal Corso v.6.3
     Shape of augmentation charge: PSQ
     Using radial grid of 1191 points,  6 beta functions with: 
                l(1) =   0
                l(2) =   0
                l(3) =   1
                l(4) =   1
                l(5) =   2
                l(6) =   2
     Q(r) pseudized with 0 coefficients 


     PseudoPot. # 4 for Fe read from file:
     /rds/homes/b/bxp912/pp/Fe.pbe-spn-kjpaw_psl.1.0.0.UPF
     MD5 check sum: 42f43b795421b414b0dc916aa790dbcb
     Pseudo is Projector augmented-wave + core cor, Zval = 16.0
     Generated using "atomic" code by A. Dal Corso v.6.3
     Shape of augmentation charge: PSQ
     Using radial grid of 1191 points,  6 beta functions with: 
                l(1) =   0
                l(2) =   0
                l(3) =   1
                l(4) =   1
                l(5) =   2
                l(6) =   2
     Q(r) pseudized with 0 coefficients 


     atomic species   valence    mass     pseudopotential
        Fe1           16.00    55.84500     Fe( 1.00)
        Fe2           16.00    55.84500     Fe( 1.00)
        Fe3           16.00    55.84500     Fe( 1.00)
        Fe4           16.00    55.84500     Fe( 1.00)

     Starting magnetic structure 
     atomic species   magnetization
        Fe1          0.100
        Fe2         -0.100
        Fe3          0.100
        Fe4         -0.100

      8 Sym. Ops., with inversion, found



   Cartesian axes

     site n.     atom                  positions (alat units)
         1           Fe1 tau(   1) = (   0.0000000   0.0000000   0.0000000  )
         2           Fe2 tau(   2) = (   0.2508311   0.2627433   0.0000000  )
         3           Fe3 tau(   3) = (   0.2508324   0.0000000   0.2499957  )
         4           Fe4 tau(   4) = (   0.0000000   0.2627419   0.2500017  )
         5           Fe1 tau(   5) = (   0.0000000   0.0000000   0.4999953  )
         6           Fe2 tau(   6) = (   0.2508339   0.2627461   0.4999953  )
         7           Fe3 tau(   7) = (   0.2508324   0.0000000   0.7499940  )
         8           Fe4 tau(   8) = (   0.0000000   0.2627419   0.7499880  )
         9           Fe1 tau(   9) = (   0.0000000   0.5254814   0.0000000  )
        10           Fe2 tau(  10) = (   0.2508311   0.7882197   0.0000000  )
        11           Fe3 tau(  11) = (   0.2508346   0.5254814   0.2499997  )
        12           Fe4 tau(  12) = (   0.0000000   0.7882211   0.2500017  )
        13           Fe1 tau(  13) = (   0.0000000   0.5254814   0.4999953  )
        14           Fe2 tau(  14) = (   0.2508339   0.7882169   0.4999953  )
        15           Fe3 tau(  15) = (   0.2508346   0.5254814   0.7499910  )
        16           Fe4 tau(  16) = (   0.0000000   0.7882211   0.7499880  )
        17           Fe1 tau(  17) = (   0.5016683   0.0000000   0.0000000  )
        18           Fe2 tau(  18) = (   0.7525054   0.2627433   0.0000000  )
        19           Fe3 tau(  19) = (   0.7525042   0.0000000   0.2499957  )
        20           Fe4 tau(  20) = (   0.5016683   0.2627409   0.2499997  )
        21           Fe1 tau(  21) = (   0.5016683   0.0000000   0.4999953  )
        22           Fe2 tau(  22) = (   0.7525026   0.2627461   0.4999953  )
        23           Fe3 tau(  23) = (   0.7525042   0.0000000   0.7499940  )
        24           Fe4 tau(  24) = (   0.5016683   0.2627409   0.7499900  )
        25           Fe1 tau(  25) = (   0.5016683   0.5254814   0.0000000  )
        26           Fe2 tau(  26) = (   0.7525054   0.7882197   0.0000000  )
        27           Fe3 tau(  27) = (   0.7525020   0.5254814   0.2499997  )
        28           Fe4 tau(  28) = (   0.5016683   0.7882221   0.2499997  )
        29           Fe1 tau(  29) = (   0.5016683   0.5254814   0.4999953  )
        30           Fe2 tau(  30) = (   0.7525026   0.7882169   0.4999953  )
        31           Fe3 tau(  31) = (   0.7525020   0.5254814   0.7499910  )
        32           Fe4 tau(  32) = (   0.5016683   0.7882221   0.7499900  )

     number of k points=   125  Marzari-Vanderbilt smearing, width (Ry)=  0.0400

     Number of k-points >= 100: set verbosity='high' to print them.

     Dense  grid:   343861 G-vectors     FFT dimensions: (  90,  90,  90)

     Smooth grid:   184613 G-vectors     FFT dimensions: (  72,  75,  72)

     Estimated max dynamical RAM per process >     810.72 MB

     Estimated total dynamical RAM >      31.67 GB
     Generating pointlists ...
     new r_m :   0.1461 (alat units)  1.8900 (a.u.) for type    1
     new r_m :   0.1461 (alat units)  1.8900 (a.u.) for type    2
     new r_m :   0.1461 (alat units)  1.8900 (a.u.) for type    3
     new r_m :   0.1461 (alat units)  1.8900 (a.u.) for type    4

     Check: negative/imaginary core charge=   -0.000006    0.000000

     Initial potential from superposition of free atoms

     starting charge  511.98600, renormalised to  512.00000
     Starting wfcs are  320 randomized atomic wfcs
     Checking if some PAW data can be deallocated... 

     total cpu time spent up to now is       86.3 secs

     Self-consistent Calculation

     iteration #  1     ecut=    71.00 Ry     beta= 0.10
     Davidson diagonalization with overlap
     ethr =  1.00E-02,  avg # of iterations =  3.5

     Threshold (ethr) on eigenvalues was too large:
     Diagonalizing with lowered threshold

     Davidson diagonalization with overlap
     ethr =  3.20E-04,  avg # of iterations =  3.9

     total cpu time spent up to now is     1039.1 secs

     total energy              =  -10536.43460822 Ry
     Harris-Foulkes estimate   =  -10536.77717854 Ry
     estimated scf accuracy    <       1.88747344 Ry

     total magnetization       =     0.24 Bohr mag/cell
     absolute magnetization    =    44.05 Bohr mag/cell

     iteration #  2     ecut=    71.00 Ry     beta= 0.10
     Davidson diagonalization with overlap
     ethr =  3.69E-04,  avg # of iterations =  1.0

     total cpu time spent up to now is     1272.9 secs

     total energy              =  -10536.21368577 Ry
     Harris-Foulkes estimate   =  -10536.48029301 Ry
     estimated scf accuracy    <       1.11786490 Ry

     total magnetization       =    -0.12 Bohr mag/cell
     absolute magnetization    =    44.76 Bohr mag/cell

     iteration #  3     ecut=    71.00 Ry     beta= 0.10
     Davidson diagonalization with overlap
     ethr =  2.18E-04,  avg # of iterations =  2.3

     total cpu time spent up to now is     1595.6 secs

     total energy              =  -10536.07952694 Ry
     Harris-Foulkes estimate   =  -10536.35391806 Ry
     estimated scf accuracy    <       2.72336717 Ry

     total magnetization       =     0.24 Bohr mag/cell
     absolute magnetization    =    45.12 Bohr mag/cell

     iteration #  4     ecut=    71.00 Ry     beta= 0.10
     Davidson diagonalization with overlap
     ethr =  2.18E-04,  avg # of iterations =  2.4

     total cpu time spent up to now is     1920.8 secs

     total energy              =  -10536.18186589 Ry
     Harris-Foulkes estimate   =  -10536.21326968 Ry
     estimated scf accuracy    <       0.51825606 Ry

     total magnetization       =     0.36 Bohr mag/cell
     absolute magnetization    =    46.12 Bohr mag/cell

     iteration #  5     ecut=    71.00 Ry     beta= 0.10
     Davidson diagonalization with overlap
     ethr =  1.01E-04,  avg # of iterations =  1.4

     total cpu time spent up to now is     2183.6 secs

     total energy              =  -10536.19267670 Ry
     Harris-Foulkes estimate   =  -10536.20137958 Ry
     estimated scf accuracy    <       0.08310434 Ry

     total magnetization       =     0.02 Bohr mag/cell
     absolute magnetization    =    46.25 Bohr mag/cell

     iteration #  6     ecut=    71.00 Ry     beta= 0.10
     Davidson diagonalization with overlap
     ethr =  1.62E-05,  avg # of iterations =  3.6

     total cpu time spent up to now is     2587.0 secs

     total energy              =  -10536.18306219 Ry
     Harris-Foulkes estimate   =  -10536.19603154 Ry
     estimated scf accuracy    <       0.06790248 Ry

     total magnetization       =    -0.10 Bohr mag/cell
     absolute magnetization    =    46.20 Bohr mag/cell

     iteration #  7     ecut=    71.00 Ry     beta= 0.10
     Davidson diagonalization with overlap
     ethr =  1.33E-05,  avg # of iterations =  3.7

     total cpu time spent up to now is     3144.5 secs

     total energy              =  -10536.19891545 Ry
     Harris-Foulkes estimate   =  -10536.20399774 Ry
     estimated scf accuracy    <       0.08877860 Ry

     total magnetization       =     0.06 Bohr mag/cell
     absolute magnetization    =    46.32 Bohr mag/cell

     iteration #  8     ecut=    71.00 Ry     beta= 0.10
     Davidson diagonalization with overlap
     ethr =  1.33E-05,  avg # of iterations =  2.0

     total cpu time spent up to now is     3454.4 secs

     total energy              =  -10536.20138586 Ry
     Harris-Foulkes estimate   =  -10536.20290160 Ry
     estimated scf accuracy    <       0.06089479 Ry

     total magnetization       =     0.04 Bohr mag/cell
     absolute magnetization    =    46.59 Bohr mag/cell

     iteration #  9     ecut=    71.00 Ry     beta= 0.10
     Davidson diagonalization with overlap
     ethr =  1.19E-05,  avg # of iterations =  1.0

     total cpu time spent up to now is     3687.5 secs

     total energy              =  -10536.21065444 Ry
     Harris-Foulkes estimate   =  -10536.20240353 Ry
     estimated scf accuracy    <       0.03777227 Ry

     total magnetization       =     0.01 Bohr mag/cell
     absolute magnetization    =    46.67 Bohr mag/cell

     iteration # 10     ecut=    71.00 Ry     beta= 0.10
     Davidson diagonalization with overlap
     ethr =  7.38E-06,  avg # of iterations =  2.4

     total cpu time spent up to now is     4027.7 secs

     total energy              =  -10536.23390674 Ry
     Harris-Foulkes estimate   =  -10536.21281612 Ry
     estimated scf accuracy    <       0.03197019 Ry

     total magnetization       =    -0.07 Bohr mag/cell
     absolute magnetization    =    46.94 Bohr mag/cell

     iteration # 11     ecut=    71.00 Ry     beta= 0.10
     Davidson diagonalization with overlap
     ethr =  6.24E-06,  avg # of iterations =  3.7

     total cpu time spent up to now is     4589.4 secs

     total energy              =  -10536.24727794 Ry
     Harris-Foulkes estimate   =  -10536.24568683 Ry
     estimated scf accuracy    <       0.02809324 Ry

     total magnetization       =    -0.12 Bohr mag/cell
     absolute magnetization    =    47.69 Bohr mag/cell

     iteration # 12     ecut=    71.00 Ry     beta= 0.10
     Davidson diagonalization with overlap
     ethr =  5.49E-06,  avg # of iterations =  1.2

     total cpu time spent up to now is     4838.1 secs

     total energy              =  -10536.24827200 Ry
     Harris-Foulkes estimate   =  -10536.24867088 Ry
     estimated scf accuracy    <       0.01106267 Ry

     total magnetization       =    -0.04 Bohr mag/cell
     absolute magnetization    =    47.90 Bohr mag/cell

     iteration # 13     ecut=    71.00 Ry     beta= 0.10
     Davidson diagonalization with overlap
     ethr =  2.16E-06,  avg # of iterations =  2.6

     total cpu time spent up to now is     5201.6 secs

     total energy              =  -10536.24912072 Ry
     Harris-Foulkes estimate   =  -10536.24913496 Ry
     estimated scf accuracy    <       0.00240339 Ry

     total magnetization       =    -0.01 Bohr mag/cell
     absolute magnetization    =    48.05 Bohr mag/cell

     iteration # 14     ecut=    71.00 Ry     beta= 0.10
     Davidson diagonalization with overlap
     ethr =  4.69E-07,  avg # of iterations =  1.3

     total cpu time spent up to now is     5456.7 secs

     total energy              =  -10536.24921769 Ry
     Harris-Foulkes estimate   =  -10536.24918134 Ry
     estimated scf accuracy    <       0.00114987 Ry

     total magnetization       =    -0.01 Bohr mag/cell
     absolute magnetization    =    48.08 Bohr mag/cell

     iteration # 15     ecut=    71.00 Ry     beta= 0.10
     Davidson diagonalization with overlap
     ethr =  2.25E-07,  avg # of iterations =  1.1

     total cpu time spent up to now is     5698.3 secs

     total energy              =  -10536.24939659 Ry
     Harris-Foulkes estimate   =  -10536.24925142 Ry
     estimated scf accuracy    <       0.00080403 Ry

     total magnetization       =    -0.01 Bohr mag/cell
     absolute magnetization    =    48.15 Bohr mag/cell

     iteration # 16     ecut=    71.00 Ry     beta= 0.10
     Davidson diagonalization with overlap
     ethr =  1.57E-07,  avg # of iterations =  1.6

     total cpu time spent up to now is     5973.0 secs

     total energy              =  -10536.24946442 Ry
     Harris-Foulkes estimate   =  -10536.24945025 Ry
     estimated scf accuracy    <       0.00067434 Ry

     total magnetization       =     0.01 Bohr mag/cell
     absolute magnetization    =    48.25 Bohr mag/cell

     iteration # 17     ecut=    71.00 Ry     beta= 0.10
     Davidson diagonalization with overlap
     ethr =  1.32E-07,  avg # of iterations =  1.4

     total cpu time spent up to now is     6237.3 secs

     total energy              =  -10536.24958770 Ry
     Harris-Foulkes estimate   =  -10536.24950135 Ry
     estimated scf accuracy    <       0.00051348 Ry

     total magnetization       =    -0.02 Bohr mag/cell
     absolute magnetization    =    48.29 Bohr mag/cell

     iteration # 18     ecut=    71.00 Ry     beta= 0.10
     Davidson diagonalization with overlap
     ethr =  1.00E-07,  avg # of iterations =  1.5

     total cpu time spent up to now is     6504.0 secs

     total energy              =  -10536.24971481 Ry
     Harris-Foulkes estimate   =  -10536.24961243 Ry
     estimated scf accuracy    <       0.00037474 Ry

     total magnetization       =    -0.01 Bohr mag/cell
     absolute magnetization    =    48.36 Bohr mag/cell

     iteration # 19     ecut=    71.00 Ry     beta= 0.10
     Davidson diagonalization with overlap
     ethr =  7.32E-08,  avg # of iterations =  2.4

     total cpu time spent up to now is     6832.9 secs

     total energy              =  -10536.24981496 Ry
     Harris-Foulkes estimate   =  -10536.24973548 Ry
     estimated scf accuracy    <       0.00029520 Ry

     total magnetization       =    -0.00 Bohr mag/cell
     absolute magnetization    =    48.43 Bohr mag/cell

     iteration # 20     ecut=    71.00 Ry     beta= 0.10
     Davidson diagonalization with overlap
     ethr =  5.77E-08,  avg # of iterations =  2.1

     total cpu time spent up to now is     7135.9 secs

     total energy              =  -10536.24994219 Ry
     Harris-Foulkes estimate   =  -10536.24983206 Ry
     estimated scf accuracy    <       0.00035420 Ry

     total magnetization       =    -0.01 Bohr mag/cell
     absolute magnetization    =    48.51 Bohr mag/cell

     iteration # 21     ecut=    71.00 Ry     beta= 0.10
     Davidson diagonalization with overlap
     ethr =  5.77E-08,  avg # of iterations =  2.9

     total cpu time spent up to now is     7526.7 secs

     total energy              =  -10536.25000998 Ry
     Harris-Foulkes estimate   =  -10536.24999640 Ry
     estimated scf accuracy    <       0.00014930 Ry

     total magnetization       =    -0.01 Bohr mag/cell
     absolute magnetization    =    48.68 Bohr mag/cell

     iteration # 22     ecut=    71.00 Ry     beta= 0.10
     Davidson diagonalization with overlap
     ethr =  2.92E-08,  avg # of iterations =  1.1

     total cpu time spent up to now is     7767.9 secs

     total energy              =  -10536.25003749 Ry
     Harris-Foulkes estimate   =  -10536.25001690 Ry
     estimated scf accuracy    <       0.00012110 Ry

     total magnetization       =    -0.00 Bohr mag/cell
     absolute magnetization    =    48.71 Bohr mag/cell

     iteration # 23     ecut=    71.00 Ry     beta= 0.10
     Davidson diagonalization with overlap
     ethr =  2.37E-08,  avg # of iterations =  1.0

     total cpu time spent up to now is     8003.8 secs

     total energy              =  -10536.25005568 Ry
     Harris-Foulkes estimate   =  -10536.25004365 Ry
     estimated scf accuracy    <       0.00007563 Ry

     total magnetization       =    -0.00 Bohr mag/cell
     absolute magnetization    =    48.77 Bohr mag/cell

     iteration # 24     ecut=    71.00 Ry     beta= 0.10
     Davidson diagonalization with overlap
     ethr =  1.48E-08,  avg # of iterations =  2.2

     total cpu time spent up to now is     8317.6 secs

     total energy              =  -10536.25007000 Ry
     Harris-Foulkes estimate   =  -10536.25006071 Ry
     estimated scf accuracy    <       0.00008707 Ry

     total magnetization       =    -0.01 Bohr mag/cell
     absolute magnetization    =    48.81 Bohr mag/cell

     iteration # 25     ecut=    71.00 Ry     beta= 0.10
     Davidson diagonalization with overlap
     ethr =  1.48E-08,  avg # of iterations =  3.0

     total cpu time spent up to now is     8715.9 secs

     total energy              =  -10536.25007843 Ry
     Harris-Foulkes estimate   =  -10536.25008904 Ry
     estimated scf accuracy    <       0.00008456 Ry

     total magnetization       =    -0.00 Bohr mag/cell
     absolute magnetization    =    48.93 Bohr mag/cell

     iteration # 26     ecut=    71.00 Ry     beta= 0.10
     Davidson diagonalization with overlap
     ethr =  1.48E-08,  avg # of iterations =  1.0

     total cpu time spent up to now is     8948.5 secs

     total energy              =  -10536.25008470 Ry
     Harris-Foulkes estimate   =  -10536.25008553 Ry
     estimated scf accuracy    <       0.00009014 Ry

     total magnetization       =    -0.00 Bohr mag/cell
     absolute magnetization    =    48.91 Bohr mag/cell

     iteration # 27     ecut=    71.00 Ry     beta= 0.10
     Davidson diagonalization with overlap
     ethr =  1.48E-08,  avg # of iterations =  2.5

     total cpu time spent up to now is     9287.4 secs

     total energy              =  -10536.25010304 Ry
     Harris-Foulkes estimate   =  -10536.25009960 Ry
     estimated scf accuracy    <       0.00001566 Ry

     total magnetization       =    -0.00 Bohr mag/cell
     absolute magnetization    =    49.02 Bohr mag/cell

     iteration # 28     ecut=    71.00 Ry     beta= 0.10
     Davidson diagonalization with overlap
     ethr =  3.06E-09,  avg # of iterations =  2.7

     total cpu time spent up to now is     9645.7 secs

     total energy              =  -10536.25010619 Ry
     Harris-Foulkes estimate   =  -10536.25010391 Ry
     estimated scf accuracy    <       0.00001436 Ry

     total magnetization       =    -0.00 Bohr mag/cell
     absolute magnetization    =    49.03 Bohr mag/cell

     iteration # 29     ecut=    71.00 Ry     beta= 0.10
     Davidson diagonalization with overlap
     ethr =  2.81E-09,  avg # of iterations =  1.2

     total cpu time spent up to now is     9893.4 secs

     total energy              =  -10536.25010919 Ry
     Harris-Foulkes estimate   =  -10536.25010677 Ry
     estimated scf accuracy    <       0.00001054 Ry

     total magnetization       =    -0.00 Bohr mag/cell
     absolute magnetization    =    49.04 Bohr mag/cell

     iteration # 30     ecut=    71.00 Ry     beta= 0.10
     Davidson diagonalization with overlap
     ethr =  2.06E-09,  avg # of iterations =  1.8

     total cpu time spent up to now is    10184.0 secs

     total energy              =  -10536.25011154 Ry
     Harris-Foulkes estimate   =  -10536.25010981 Ry
     estimated scf accuracy    <       0.00000891 Ry

     total magnetization       =    -0.00 Bohr mag/cell
     absolute magnetization    =    49.05 Bohr mag/cell

     iteration # 31     ecut=    71.00 Ry     beta= 0.10
     Davidson diagonalization with overlap
     ethr =  1.74E-09,  avg # of iterations =  2.4

     total cpu time spent up to now is    10514.8 secs

     total energy              =  -10536.25011284 Ry
     Harris-Foulkes estimate   =  -10536.25011220 Ry
     estimated scf accuracy    <       0.00000712 Ry

     total magnetization       =    -0.00 Bohr mag/cell
     absolute magnetization    =    49.07 Bohr mag/cell

     iteration # 32     ecut=    71.00 Ry     beta= 0.10
     Davidson diagonalization with overlap
     ethr =  1.39E-09,  avg # of iterations =  2.1

     total cpu time spent up to now is    10827.2 secs

     total energy              =  -10536.25011430 Ry
     Harris-Foulkes estimate   =  -10536.25011333 Ry
     estimated scf accuracy    <       0.00000457 Ry

     total magnetization       =    -0.00 Bohr mag/cell
     absolute magnetization    =    49.09 Bohr mag/cell

     iteration # 33     ecut=    71.00 Ry     beta= 0.10
     Davidson diagonalization with overlap
     ethr =  8.93E-10,  avg # of iterations =  3.0

     total cpu time spent up to now is    11217.6 secs

     total energy              =  -10536.25011556 Ry
     Harris-Foulkes estimate   =  -10536.25011501 Ry
     estimated scf accuracy    <       0.00000277 Ry

     total magnetization       =    -0.00 Bohr mag/cell
     absolute magnetization    =    49.11 Bohr mag/cell

     iteration # 34     ecut=    71.00 Ry     beta= 0.10
     Davidson diagonalization with overlap
     ethr =  5.41E-10,  avg # of iterations =  1.4

     total cpu time spent up to now is    11477.2 secs

     total energy              =  -10536.25011571 Ry
     Harris-Foulkes estimate   =  -10536.25011565 Ry
     estimated scf accuracy    <       0.00000238 Ry

     total magnetization       =    -0.00 Bohr mag/cell
     absolute magnetization    =    49.12 Bohr mag/cell

     iteration # 35     ecut=    71.00 Ry     beta= 0.10
     Davidson diagonalization with overlap
     ethr =  4.64E-10,  avg # of iterations =  2.3

     total cpu time spent up to now is    11806.4 secs

     total energy              =  -10536.25011647 Ry
     Harris-Foulkes estimate   =  -10536.25011592 Ry
     estimated scf accuracy    <       0.00000200 Ry

     total magnetization       =    -0.00 Bohr mag/cell
     absolute magnetization    =    49.13 Bohr mag/cell

     iteration # 36     ecut=    71.00 Ry     beta= 0.10
     Davidson diagonalization with overlap
     ethr =  3.90E-10,  avg # of iterations =  2.7

     total cpu time spent up to now is    12163.0 secs

     total energy              =  -10536.25011715 Ry
     Harris-Foulkes estimate   =  -10536.25011668 Ry
     estimated scf accuracy    <       0.00000155 Ry

     total magnetization       =    -0.00 Bohr mag/cell
     absolute magnetization    =    49.14 Bohr mag/cell

     iteration # 37     ecut=    71.00 Ry     beta= 0.10
     Davidson diagonalization with overlap
     ethr =  3.02E-10,  avg # of iterations =  2.2
 
     Magnetic moment per site:
     atom:    1    charge:   14.4023    magn:    1.4789    constr:    0.0000
     atom:    2    charge:   14.4019    magn:   -1.4789    constr:    0.0000
     atom:    3    charge:   14.4013    magn:    1.4816    constr:    0.0000
     atom:    4    charge:   14.4020    magn:   -1.4829    constr:    0.0000
     atom:    5    charge:   14.4021    magn:    1.4796    constr:    0.0000
     atom:    6    charge:   14.4020    magn:   -1.4784    constr:    0.0000
     atom:    7    charge:   14.4013    magn:    1.4816    constr:    0.0000
     atom:    8    charge:   14.4020    magn:   -1.4829    constr:    0.0000
     atom:    9    charge:   14.4023    magn:    1.4795    constr:    0.0000
     atom:   10    charge:   14.4019    magn:   -1.4789    constr:    0.0000
     atom:   11    charge:   14.4014    magn:    1.4812    constr:    0.0000
     atom:   12    charge:   14.4020    magn:   -1.4829    constr:    0.0000
     atom:   13    charge:   14.4024    magn:    1.4800    constr:    0.0000
     atom:   14    charge:   14.4020    magn:   -1.4784    constr:    0.0000
     atom:   15    charge:   14.4014    magn:    1.4812    constr:    0.0000
     atom:   16    charge:   14.4020    magn:   -1.4829    constr:    0.0000
     atom:   17    charge:   14.4023    magn:    1.4801    constr:    0.0000
     atom:   18    charge:   14.4019    magn:   -1.4789    constr:    0.0000
     atom:   19    charge:   14.4013    magn:    1.4816    constr:    0.0000
     atom:   20    charge:   14.4018    magn:   -1.4822    constr:    0.0000
     atom:   21    charge:   14.4021    magn:    1.4804    constr:    0.0000
     atom:   22    charge:   14.4020    magn:   -1.4784    constr:    0.0000
     atom:   23    charge:   14.4013    magn:    1.4816    constr:    0.0000
     atom:   24    charge:   14.4018    magn:   -1.4822    constr:    0.0000
     atom:   25    charge:   14.4021    magn:    1.4793    constr:    0.0000
     atom:   26    charge:   14.4019    magn:   -1.4789    constr:    0.0000
     atom:   27    charge:   14.4014    magn:    1.4812    constr:    0.0000
     atom:   28    charge:   14.4018    magn:   -1.4822    constr:    0.0000
     atom:   29    charge:   14.4023    magn:    1.4792    constr:    0.0000
     atom:   30    charge:   14.4020    magn:   -1.4784    constr:    0.0000
     atom:   31    charge:   14.4014    magn:    1.4812    constr:    0.0000
     atom:   32    charge:   14.4018    magn:   -1.4822    constr:    0.0000

     total cpu time spent up to now is    12476.3 secs

     End of self-consistent calculation

     Number of k-points >= 100: set verbosity='high' to print the bands.

     the Fermi energy is    20.1187 ev

!    total energy              =  -10536.25011749 Ry
     Harris-Foulkes estimate   =  -10536.25011733 Ry
     estimated scf accuracy    <       0.00000042 Ry

     total all-electron energy =    -81457.739175 Ry

     The total energy is the sum of the following terms:

     one-electron contribution =   -3292.22303509 Ry
     hartree contribution      =    1996.39485181 Ry
     xc contribution           =    -886.91847915 Ry
     ewald contribution        =   -5703.95230634 Ry
     one-center paw contrib.   =   -2649.56171839 Ry
     smearing contrib. (-TS)   =       0.01056967 Ry

     total magnetization       =    -0.00 Bohr mag/cell
     absolute magnetization    =    49.13 Bohr mag/cell

     convergence has been achieved in  37 iterations

     Forces acting on atoms (cartesian axes, Ry/au):

     atom    1 type  1   force =     0.00000000    0.00000000    0.00000000
     atom    2 type  2   force =     0.00002216    0.00003151    0.00000000
     atom    3 type  3   force =     0.00004258   -0.00000000   -0.00001704
     atom    4 type  4   force =     0.00000000   -0.00002059   -0.00000339
     atom    5 type  1   force =     0.00000000    0.00000000    0.00000000
     atom    6 type  2   force =     0.00002270    0.00000641    0.00000000
     atom    7 type  3   force =     0.00004258    0.00000000    0.00001704
     atom    8 type  4   force =     0.00000000   -0.00002059    0.00000339
     atom    9 type  1   force =     0.00000000    0.00000000    0.00000000
     atom   10 type  2   force =     0.00002216   -0.00003151    0.00000000
     atom   11 type  3   force =     0.00003135    0.00000000   -0.00001967
     atom   12 type  4   force =     0.00000000    0.00002059   -0.00000339
     atom   13 type  1   force =     0.00000000    0.00000000    0.00000000
     atom   14 type  2   force =     0.00002270   -0.00000641    0.00000000
     atom   15 type  3   force =     0.00003135    0.00000000    0.00001967
     atom   16 type  4   force =     0.00000000    0.00002059    0.00000339
     atom   17 type  1   force =     0.00000000    0.00000000    0.00000000
     atom   18 type  2   force =    -0.00002216    0.00003151    0.00000000
     atom   19 type  3   force =    -0.00004258    0.00000000   -0.00001704
     atom   20 type  4   force =     0.00000000    0.00001717   -0.00000486
     atom   21 type  1   force =     0.00000000    0.00000000    0.00000000
     atom   22 type  2   force =    -0.00002270    0.00000641    0.00000000
     atom   23 type  3   force =    -0.00004258   -0.00000000    0.00001704
     atom   24 type  4   force =     0.00000000    0.00001717    0.00000486
     atom   25 type  1   force =     0.00000000    0.00000000    0.00000000
     atom   26 type  2   force =    -0.00002216   -0.00003151    0.00000000
     atom   27 type  3   force =    -0.00003135    0.00000000   -0.00001967
     atom   28 type  4   force =     0.00000000   -0.00001717   -0.00000486
     atom   29 type  1   force =     0.00000000    0.00000000    0.00000000
     atom   30 type  2   force =    -0.00002270   -0.00000641    0.00000000
     atom   31 type  3   force =    -0.00003135    0.00000000    0.00001967
     atom   32 type  4   force =     0.00000000   -0.00001717    0.00000486

     Total force =     0.000158     Total SCF correction =     0.003035
     SCF correction compared to forces is large: reduce conv_thr to get better values


     Computing stress (Cartesian axis) and pressure

          total   stress  (Ry/bohr**3)                   (kbar)     P=   -3.15
  -0.00006183   0.00000000   0.00000000         -9.10      0.00      0.00
   0.00000000   0.00003010   0.00000000          0.00      4.43      0.00
   0.00000000   0.00000000  -0.00003256          0.00      0.00     -4.79


     Writing output data file VUJYfRWoIxmMqqGH.save/
-------------------------------------------------------
Primary job  terminated normally, but 1 process returned
a non-zero exit code.. Per user-direction, the job has been aborted.
-------------------------------------------------------
--------------------------------------------------------------------------
mpirun detected that one or more processes exited with non-zero status, thus causing
the job to be terminated. The first process to do so was:

  Process name: [[15356,1],0]
  Exit code:    38
--------------------------------------------------------------------------
