--------------------------------------------------------------------------
WARNING: There was an error initializing an OpenFabrics device.

  Local host:   bear-pg0211u05b
  Local device: mlx5_0
--------------------------------------------------------------------------

     Program PWSCF v.6.3 starts on 23Oct2020 at 13:49:47 

     This program is part of the open-source Quantum ESPRESSO suite
     for quantum simulation of materials; please cite
         "P. Giannozzi et al., J. Phys.:Condens. Matter 21 395502 (2009);
         "P. Giannozzi et al., J. Phys.:Condens. Matter 29 465901 (2017);
          URL http://www.quantum-espresso.org", 
     in publications or presentations arising from this work. More details at
     http://www.quantum-espresso.org/quote

     Parallel version (MPI & OpenMP), running on      40 processor cores
     Number of MPI processes:                40
     Threads/MPI process:                     1

     MPI processes distributed on     1 nodes
     R & G space division:  proc/nbgrp/npool/nimage =      40
     Reading input from wd/ec/ec_9_007.in
Warning: card &IONS ignored
Warning: card ION_DYNAMICS = 'BFGS', ignored
Warning: card / ignored
Warning: card &CELL ignored
Warning: card CELL_DYNAMICS = 'BFGS', ignored
Warning: card CELL_FACTOR = 2.0, ignored
Warning: card PRESS = 0.0, ignored
Warning: card / ignored

     Current dimensions of program PWSCF are:
     Max number of different atomic species (ntypx) = 10
     Max number of k-points (npk) =  40000
     Max angular momentum in pseudopotentials (lmaxx) =  3
               file Fe.pbe-spn-kjpaw_psl.1.0.0.UPF: wavefunction(s)  3P 3D renormalized
               file Fe.pbe-spn-kjpaw_psl.1.0.0.UPF: wavefunction(s)  3P 3D renormalized
               file Fe.pbe-spn-kjpaw_psl.1.0.0.UPF: wavefunction(s)  3P 3D renormalized
               file Fe.pbe-spn-kjpaw_psl.1.0.0.UPF: wavefunction(s)  3P 3D renormalized

     Subspace diagonalization in iterative solution of the eigenvalue problem:
     a serial algorithm will be used

     Found symmetry operation: I + (  0.0000  0.0000  0.5000)
     This is a supercell, fractional translations are disabled
 
     Parallelization info
     --------------------
     sticks:   dense  smooth     PW     G-vecs:    dense   smooth      PW
     Min         152     100     27                 8594     4612     663
     Max         153     101     28                 8601     4617     668
     Sum        6103    4021   1107               343879   184557   26611
 


     bravais-lattice index     =            0
     lattice parameter (alat)  =      12.9382  a.u.
     unit-cell volume          =    2283.7593 (a.u.)^3
     number of atoms/cell      =           32
     number of atomic types    =            4
     number of electrons       =       512.00
     number of Kohn-Sham states=          307
     kinetic-energy cutoff     =      71.0000  Ry
     charge density cutoff     =     430.0000  Ry
     convergence threshold     =      1.0E-06
     mixing beta               =       0.1000
     number of iterations used =           10  plain     mixing
     Exchange-correlation      = SLA PW PBX PBC ( 1  4  3  4 0 0)

     celldm(1)=  12.938187  celldm(2)=   0.000000  celldm(3)=   0.000000
     celldm(4)=   0.000000  celldm(5)=   0.000000  celldm(6)=   0.000000

     crystal axes: (cart. coord. in units of alat)
               a(1) = (   1.000033   0.000000   0.000000 )  
               a(2) = (   0.000000   1.065054   0.000000 )  
               a(3) = (   0.000000   0.000000   0.990020 )  

     reciprocal axes: (cart. coord. in units 2 pi/alat)
               b(1) = (  0.999967  0.000000  0.000000 )  
               b(2) = (  0.000000  0.938920  0.000000 )  
               b(3) = (  0.000000  0.000000  1.010080 )  


     PseudoPot. # 1 for Fe read from file:
     /rds/homes/b/bxp912/pp/Fe.pbe-spn-kjpaw_psl.1.0.0.UPF
     MD5 check sum: 42f43b795421b414b0dc916aa790dbcb
     Pseudo is Projector augmented-wave + core cor, Zval = 16.0
     Generated using "atomic" code by A. Dal Corso v.6.3
     Shape of augmentation charge: PSQ
     Using radial grid of 1191 points,  6 beta functions with: 
                l(1) =   0
                l(2) =   0
                l(3) =   1
                l(4) =   1
                l(5) =   2
                l(6) =   2
     Q(r) pseudized with 0 coefficients 


     PseudoPot. # 2 for Fe read from file:
     /rds/homes/b/bxp912/pp/Fe.pbe-spn-kjpaw_psl.1.0.0.UPF
     MD5 check sum: 42f43b795421b414b0dc916aa790dbcb
     Pseudo is Projector augmented-wave + core cor, Zval = 16.0
     Generated using "atomic" code by A. Dal Corso v.6.3
     Shape of augmentation charge: PSQ
     Using radial grid of 1191 points,  6 beta functions with: 
                l(1) =   0
                l(2) =   0
                l(3) =   1
                l(4) =   1
                l(5) =   2
                l(6) =   2
     Q(r) pseudized with 0 coefficients 


     PseudoPot. # 3 for Fe read from file:
     /rds/homes/b/bxp912/pp/Fe.pbe-spn-kjpaw_psl.1.0.0.UPF
     MD5 check sum: 42f43b795421b414b0dc916aa790dbcb
     Pseudo is Projector augmented-wave + core cor, Zval = 16.0
     Generated using "atomic" code by A. Dal Corso v.6.3
     Shape of augmentation charge: PSQ
     Using radial grid of 1191 points,  6 beta functions with: 
                l(1) =   0
                l(2) =   0
                l(3) =   1
                l(4) =   1
                l(5) =   2
                l(6) =   2
     Q(r) pseudized with 0 coefficients 


     PseudoPot. # 4 for Fe read from file:
     /rds/homes/b/bxp912/pp/Fe.pbe-spn-kjpaw_psl.1.0.0.UPF
     MD5 check sum: 42f43b795421b414b0dc916aa790dbcb
     Pseudo is Projector augmented-wave + core cor, Zval = 16.0
     Generated using "atomic" code by A. Dal Corso v.6.3
     Shape of augmentation charge: PSQ
     Using radial grid of 1191 points,  6 beta functions with: 
                l(1) =   0
                l(2) =   0
                l(3) =   1
                l(4) =   1
                l(5) =   2
                l(6) =   2
     Q(r) pseudized with 0 coefficients 


     atomic species   valence    mass     pseudopotential
        Fe1           16.00    55.84500     Fe( 1.00)
        Fe2           16.00    55.84500     Fe( 1.00)
        Fe3           16.00    55.84500     Fe( 1.00)
        Fe4           16.00    55.84500     Fe( 1.00)

     Starting magnetic structure 
     atomic species   magnetization
        Fe1          0.100
        Fe2         -0.100
        Fe3          0.100
        Fe4         -0.100

      8 Sym. Ops., with inversion, found



   Cartesian axes

     site n.     atom                  positions (alat units)
         1           Fe1 tau(   1) = (   0.0000000   0.0000000   0.0000000  )
         2           Fe2 tau(   2) = (   0.2500052   0.2662662   0.0000000  )
         3           Fe3 tau(   3) = (   0.2500065   0.0000000   0.2475030  )
         4           Fe4 tau(   4) = (   0.0000000   0.2662647   0.2475090  )
         5           Fe1 tau(   5) = (   0.0000000   0.0000000   0.4950101  )
         6           Fe2 tau(   6) = (   0.2500080   0.2662690   0.4950101  )
         7           Fe3 tau(   7) = (   0.2500065   0.0000000   0.7425161  )
         8           Fe4 tau(   8) = (   0.0000000   0.2662647   0.7425101  )
         9           Fe1 tau(   9) = (   0.0000000   0.5325271   0.0000000  )
        10           Fe2 tau(  10) = (   0.2500052   0.7987881   0.0000000  )
        11           Fe3 tau(  11) = (   0.2500087   0.5325271   0.2475070  )
        12           Fe4 tau(  12) = (   0.0000000   0.7987895   0.2475090  )
        13           Fe1 tau(  13) = (   0.0000000   0.5325271   0.4950101  )
        14           Fe2 tau(  14) = (   0.2500080   0.7987852   0.4950101  )
        15           Fe3 tau(  15) = (   0.2500087   0.5325271   0.7425131  )
        16           Fe4 tau(  16) = (   0.0000000   0.7987895   0.7425101  )
        17           Fe1 tau(  17) = (   0.5000165   0.0000000   0.0000000  )
        18           Fe2 tau(  18) = (   0.7500277   0.2662662   0.0000000  )
        19           Fe3 tau(  19) = (   0.7500265   0.0000000   0.2475030  )
        20           Fe4 tau(  20) = (   0.5000165   0.2662637   0.2475070  )
        21           Fe1 tau(  21) = (   0.5000165   0.0000000   0.4950101  )
        22           Fe2 tau(  22) = (   0.7500249   0.2662690   0.4950101  )
        23           Fe3 tau(  23) = (   0.7500265   0.0000000   0.7425161  )
        24           Fe4 tau(  24) = (   0.5000165   0.2662637   0.7425121  )
        25           Fe1 tau(  25) = (   0.5000165   0.5325271   0.0000000  )
        26           Fe2 tau(  26) = (   0.7500277   0.7987881   0.0000000  )
        27           Fe3 tau(  27) = (   0.7500243   0.5325271   0.2475070  )
        28           Fe4 tau(  28) = (   0.5000165   0.7987905   0.2475070  )
        29           Fe1 tau(  29) = (   0.5000165   0.5325271   0.4950101  )
        30           Fe2 tau(  30) = (   0.7500249   0.7987852   0.4950101  )
        31           Fe3 tau(  31) = (   0.7500243   0.5325271   0.7425131  )
        32           Fe4 tau(  32) = (   0.5000165   0.7987905   0.7425121  )

     number of k points=   125  Marzari-Vanderbilt smearing, width (Ry)=  0.0400

     Number of k-points >= 100: set verbosity='high' to print them.

     Dense  grid:   343879 G-vectors     FFT dimensions: (  90,  96,  90)

     Smooth grid:   184557 G-vectors     FFT dimensions: (  72,  75,  72)

     Estimated max dynamical RAM per process >     810.89 MB

     Estimated total dynamical RAM >      31.68 GB
     Generating pointlists ...
     new r_m :   0.1451 (alat units)  1.8775 (a.u.) for type    1
     new r_m :   0.1451 (alat units)  1.8775 (a.u.) for type    2
     new r_m :   0.1451 (alat units)  1.8775 (a.u.) for type    3
     new r_m :   0.1451 (alat units)  1.8775 (a.u.) for type    4

     Check: negative/imaginary core charge=   -0.000006    0.000000

     Initial potential from superposition of free atoms

     starting charge  511.98600, renormalised to  512.00000
     Starting wfcs are  320 randomized atomic wfcs
     Checking if some PAW data can be deallocated... 

     total cpu time spent up to now is       86.2 secs

     Self-consistent Calculation

     iteration #  1     ecut=    71.00 Ry     beta= 0.10
     Davidson diagonalization with overlap
     ethr =  1.00E-02,  avg # of iterations =  3.6

     Threshold (ethr) on eigenvalues was too large:
     Diagonalizing with lowered threshold

     Davidson diagonalization with overlap
     ethr =  3.17E-04,  avg # of iterations =  3.9

     total cpu time spent up to now is     1033.2 secs

     total energy              =  -10536.42113160 Ry
     Harris-Foulkes estimate   =  -10536.75975371 Ry
     estimated scf accuracy    <       1.86806502 Ry

     total magnetization       =     0.23 Bohr mag/cell
     absolute magnetization    =    44.67 Bohr mag/cell

     iteration #  2     ecut=    71.00 Ry     beta= 0.10
     Davidson diagonalization with overlap
     ethr =  3.65E-04,  avg # of iterations =  1.0

     total cpu time spent up to now is     1264.5 secs

     total energy              =  -10536.20355444 Ry
     Harris-Foulkes estimate   =  -10536.46640948 Ry
     estimated scf accuracy    <       1.10928960 Ry

     total magnetization       =    -0.10 Bohr mag/cell
     absolute magnetization    =    45.42 Bohr mag/cell

     iteration #  3     ecut=    71.00 Ry     beta= 0.10
     Davidson diagonalization with overlap
     ethr =  2.17E-04,  avg # of iterations =  2.2

     total cpu time spent up to now is     1580.9 secs

     total energy              =  -10536.06968312 Ry
     Harris-Foulkes estimate   =  -10536.34250588 Ry
     estimated scf accuracy    <       2.73427360 Ry

     total magnetization       =     0.20 Bohr mag/cell
     absolute magnetization    =    45.79 Bohr mag/cell

     iteration #  4     ecut=    71.00 Ry     beta= 0.10
     Davidson diagonalization with overlap
     ethr =  2.17E-04,  avg # of iterations =  2.4

     total cpu time spent up to now is     1903.9 secs

     total energy              =  -10536.17220837 Ry
     Harris-Foulkes estimate   =  -10536.20358169 Ry
     estimated scf accuracy    <       0.52162404 Ry

     total magnetization       =     0.33 Bohr mag/cell
     absolute magnetization    =    46.89 Bohr mag/cell

     iteration #  5     ecut=    71.00 Ry     beta= 0.10
     Davidson diagonalization with overlap
     ethr =  1.02E-04,  avg # of iterations =  1.3

     total cpu time spent up to now is     2155.4 secs

     total energy              =  -10536.18368165 Ry
     Harris-Foulkes estimate   =  -10536.19173398 Ry
     estimated scf accuracy    <       0.08595283 Ry

     total magnetization       =     0.02 Bohr mag/cell
     absolute magnetization    =    47.05 Bohr mag/cell

     iteration #  6     ecut=    71.00 Ry     beta= 0.10
     Davidson diagonalization with overlap
     ethr =  1.68E-05,  avg # of iterations =  3.5

     total cpu time spent up to now is     2544.4 secs

     total energy              =  -10536.17635379 Ry
     Harris-Foulkes estimate   =  -10536.18710210 Ry
     estimated scf accuracy    <       0.07462426 Ry

     total magnetization       =    -0.09 Bohr mag/cell
     absolute magnetization    =    47.03 Bohr mag/cell

     iteration #  7     ecut=    71.00 Ry     beta= 0.10
     Davidson diagonalization with overlap
     ethr =  1.46E-05,  avg # of iterations =  3.6

     total cpu time spent up to now is     3074.5 secs

     total energy              =  -10536.19409792 Ry
     Harris-Foulkes estimate   =  -10536.19292119 Ry
     estimated scf accuracy    <       0.10720178 Ry

     total magnetization       =     0.00 Bohr mag/cell
     absolute magnetization    =    47.23 Bohr mag/cell

     iteration #  8     ecut=    71.00 Ry     beta= 0.10
     Davidson diagonalization with overlap
     ethr =  1.46E-05,  avg # of iterations =  2.0

     total cpu time spent up to now is     3383.0 secs

     total energy              =  -10536.19496069 Ry
     Harris-Foulkes estimate   =  -10536.19937517 Ry
     estimated scf accuracy    <       0.07409445 Ry

     total magnetization       =     0.07 Bohr mag/cell
     absolute magnetization    =    47.52 Bohr mag/cell

     iteration #  9     ecut=    71.00 Ry     beta= 0.10
     Davidson diagonalization with overlap
     ethr =  1.45E-05,  avg # of iterations =  1.0

     total cpu time spent up to now is     3612.0 secs

     total energy              =  -10536.20593587 Ry
     Harris-Foulkes estimate   =  -10536.19659220 Ry
     estimated scf accuracy    <       0.04079499 Ry

     total magnetization       =     0.01 Bohr mag/cell
     absolute magnetization    =    47.72 Bohr mag/cell

     iteration # 10     ecut=    71.00 Ry     beta= 0.10
     Davidson diagonalization with overlap
     ethr =  7.97E-06,  avg # of iterations =  3.0

     total cpu time spent up to now is     4009.8 secs

     total energy              =  -10536.22999093 Ry
     Harris-Foulkes estimate   =  -10536.20954308 Ry
     estimated scf accuracy    <       0.03627742 Ry

     total magnetization       =    -0.07 Bohr mag/cell
     absolute magnetization    =    48.11 Bohr mag/cell

     iteration # 11     ecut=    71.00 Ry     beta= 0.10
     Davidson diagonalization with overlap
     ethr =  7.09E-06,  avg # of iterations =  2.9

     total cpu time spent up to now is     4460.2 secs

     total energy              =  -10536.24336946 Ry
     Harris-Foulkes estimate   =  -10536.23872900 Ry
     estimated scf accuracy    <       0.04199719 Ry

     total magnetization       =    -0.12 Bohr mag/cell
     absolute magnetization    =    48.88 Bohr mag/cell

     iteration # 12     ecut=    71.00 Ry     beta= 0.10
     Davidson diagonalization with overlap
     ethr =  7.09E-06,  avg # of iterations =  1.1

     total cpu time spent up to now is     4697.5 secs

     total energy              =  -10536.24418100 Ry
     Harris-Foulkes estimate   =  -10536.24463095 Ry
     estimated scf accuracy    <       0.02185989 Ry

     total magnetization       =    -0.09 Bohr mag/cell
     absolute magnetization    =    49.14 Bohr mag/cell

     iteration # 13     ecut=    71.00 Ry     beta= 0.10
     Davidson diagonalization with overlap
     ethr =  4.27E-06,  avg # of iterations =  2.7

     total cpu time spent up to now is     5061.4 secs

     total energy              =  -10536.24607476 Ry
     Harris-Foulkes estimate   =  -10536.24607774 Ry
     estimated scf accuracy    <       0.00241395 Ry

     total magnetization       =    -0.03 Bohr mag/cell
     absolute magnetization    =    49.49 Bohr mag/cell

     iteration # 14     ecut=    71.00 Ry     beta= 0.10
     Davidson diagonalization with overlap
     ethr =  4.71E-07,  avg # of iterations =  3.9

     total cpu time spent up to now is     5563.0 secs

     total energy              =  -10536.24628347 Ry
     Harris-Foulkes estimate   =  -10536.24635516 Ry
     estimated scf accuracy    <       0.00173150 Ry

     total magnetization       =    -0.02 Bohr mag/cell
     absolute magnetization    =    49.53 Bohr mag/cell

     iteration # 15     ecut=    71.00 Ry     beta= 0.10
     Davidson diagonalization with overlap
     ethr =  3.38E-07,  avg # of iterations =  2.4

     total cpu time spent up to now is     5901.4 secs

     total energy              =  -10536.24661663 Ry
     Harris-Foulkes estimate   =  -10536.24644474 Ry
     estimated scf accuracy    <       0.00103226 Ry

     total magnetization       =    -0.01 Bohr mag/cell
     absolute magnetization    =    49.66 Bohr mag/cell

     iteration # 16     ecut=    71.00 Ry     beta= 0.10
     Davidson diagonalization with overlap
     ethr =  2.02E-07,  avg # of iterations =  2.1

     total cpu time spent up to now is     6205.3 secs

     total energy              =  -10536.24658602 Ry
     Harris-Foulkes estimate   =  -10536.24669482 Ry
     estimated scf accuracy    <       0.00126342 Ry

     total magnetization       =    -0.01 Bohr mag/cell
     absolute magnetization    =    49.75 Bohr mag/cell

     iteration # 17     ecut=    71.00 Ry     beta= 0.10
     Davidson diagonalization with overlap
     ethr =  2.02E-07,  avg # of iterations =  1.0

     total cpu time spent up to now is     6441.0 secs

     total energy              =  -10536.24688679 Ry
     Harris-Foulkes estimate   =  -10536.24665512 Ry
     estimated scf accuracy    <       0.00091142 Ry

     total magnetization       =    -0.03 Bohr mag/cell
     absolute magnetization    =    49.76 Bohr mag/cell

     iteration # 18     ecut=    71.00 Ry     beta= 0.10
     Davidson diagonalization with overlap
     ethr =  1.78E-07,  avg # of iterations =  1.9

     total cpu time spent up to now is     6734.2 secs

     total energy              =  -10536.24710528 Ry
     Harris-Foulkes estimate   =  -10536.24696301 Ry
     estimated scf accuracy    <       0.00055889 Ry

     total magnetization       =     0.00 Bohr mag/cell
     absolute magnetization    =    49.93 Bohr mag/cell

     iteration # 19     ecut=    71.00 Ry     beta= 0.10
     Davidson diagonalization with overlap
     ethr =  1.09E-07,  avg # of iterations =  2.6

     total cpu time spent up to now is     7072.4 secs

     total energy              =  -10536.24728431 Ry
     Harris-Foulkes estimate   =  -10536.24714816 Ry
     estimated scf accuracy    <       0.00033409 Ry

     total magnetization       =    -0.01 Bohr mag/cell
     absolute magnetization    =    50.04 Bohr mag/cell

     iteration # 20     ecut=    71.00 Ry     beta= 0.10
     Davidson diagonalization with overlap
     ethr =  6.53E-08,  avg # of iterations =  3.1

     total cpu time spent up to now is     7471.4 secs

     total energy              =  -10536.24740681 Ry
     Harris-Foulkes estimate   =  -10536.24734880 Ry
     estimated scf accuracy    <       0.00029739 Ry

     total magnetization       =    -0.01 Bohr mag/cell
     absolute magnetization    =    50.24 Bohr mag/cell

     iteration # 21     ecut=    71.00 Ry     beta= 0.10
     Davidson diagonalization with overlap
     ethr =  5.81E-08,  avg # of iterations =  1.3

     total cpu time spent up to now is     7720.9 secs

     total energy              =  -10536.24745206 Ry
     Harris-Foulkes estimate   =  -10536.24743227 Ry
     estimated scf accuracy    <       0.00014635 Ry

     total magnetization       =    -0.01 Bohr mag/cell
     absolute magnetization    =    50.34 Bohr mag/cell

     iteration # 22     ecut=    71.00 Ry     beta= 0.10
     Davidson diagonalization with overlap
     ethr =  2.86E-08,  avg # of iterations =  2.9

     total cpu time spent up to now is     8081.8 secs

     total energy              =  -10536.24747765 Ry
     Harris-Foulkes estimate   =  -10536.24746424 Ry
     estimated scf accuracy    <       0.00011248 Ry

     total magnetization       =    -0.00 Bohr mag/cell
     absolute magnetization    =    50.42 Bohr mag/cell

     iteration # 23     ecut=    71.00 Ry     beta= 0.10
     Davidson diagonalization with overlap
     ethr =  2.20E-08,  avg # of iterations =  2.1

     total cpu time spent up to now is     8385.0 secs

     total energy              =  -10536.24749703 Ry
     Harris-Foulkes estimate   =  -10536.24748479 Ry
     estimated scf accuracy    <       0.00008240 Ry

     total magnetization       =    -0.01 Bohr mag/cell
     absolute magnetization    =    50.48 Bohr mag/cell

     iteration # 24     ecut=    71.00 Ry     beta= 0.10
     Davidson diagonalization with overlap
     ethr =  1.61E-08,  avg # of iterations =  3.0

     total cpu time spent up to now is     8799.8 secs

     total energy              =  -10536.24752438 Ry
     Harris-Foulkes estimate   =  -10536.24751727 Ry
     estimated scf accuracy    <       0.00004851 Ry

     total magnetization       =    -0.01 Bohr mag/cell
     absolute magnetization    =    50.60 Bohr mag/cell

     iteration # 25     ecut=    71.00 Ry     beta= 0.10
     Davidson diagonalization with overlap
     ethr =  9.47E-09,  avg # of iterations =  1.6

     total cpu time spent up to now is     9072.1 secs

     total energy              =  -10536.24753365 Ry
     Harris-Foulkes estimate   =  -10536.24752887 Ry
     estimated scf accuracy    <       0.00002747 Ry

     total magnetization       =    -0.00 Bohr mag/cell
     absolute magnetization    =    50.65 Bohr mag/cell

     iteration # 26     ecut=    71.00 Ry     beta= 0.10
     Davidson diagonalization with overlap
     ethr =  5.37E-09,  avg # of iterations =  2.2

     total cpu time spent up to now is     9387.8 secs

     total energy              =  -10536.24754083 Ry
     Harris-Foulkes estimate   =  -10536.24753517 Ry
     estimated scf accuracy    <       0.00002521 Ry

     total magnetization       =    -0.00 Bohr mag/cell
     absolute magnetization    =    50.67 Bohr mag/cell

     iteration # 27     ecut=    71.00 Ry     beta= 0.10
     Davidson diagonalization with overlap
     ethr =  4.92E-09,  avg # of iterations =  1.8

     total cpu time spent up to now is     9678.7 secs

     total energy              =  -10536.24754317 Ry
     Harris-Foulkes estimate   =  -10536.24754267 Ry
     estimated scf accuracy    <       0.00001436 Ry

     total magnetization       =    -0.00 Bohr mag/cell
     absolute magnetization    =    50.70 Bohr mag/cell

     iteration # 28     ecut=    71.00 Ry     beta= 0.10
     Davidson diagonalization with overlap
     ethr =  2.81E-09,  avg # of iterations =  1.8

     total cpu time spent up to now is     9962.3 secs

     total energy              =  -10536.24754618 Ry
     Harris-Foulkes estimate   =  -10536.24754431 Ry
     estimated scf accuracy    <       0.00002227 Ry

     total magnetization       =    -0.00 Bohr mag/cell
     absolute magnetization    =    50.70 Bohr mag/cell

     iteration # 29     ecut=    71.00 Ry     beta= 0.10
     Davidson diagonalization with overlap
     ethr =  2.81E-09,  avg # of iterations =  1.8

     total cpu time spent up to now is    10251.0 secs

     total energy              =  -10536.24754826 Ry
     Harris-Foulkes estimate   =  -10536.24754762 Ry
     estimated scf accuracy    <       0.00000548 Ry

     total magnetization       =    -0.00 Bohr mag/cell
     absolute magnetization    =    50.71 Bohr mag/cell

     iteration # 30     ecut=    71.00 Ry     beta= 0.10
     Davidson diagonalization with overlap
     ethr =  1.07E-09,  avg # of iterations =  2.9

     total cpu time spent up to now is    10605.8 secs

     total energy              =  -10536.24754964 Ry
     Harris-Foulkes estimate   =  -10536.24754861 Ry
     estimated scf accuracy    <       0.00000424 Ry

     total magnetization       =    -0.00 Bohr mag/cell
     absolute magnetization    =    50.73 Bohr mag/cell

     iteration # 31     ecut=    71.00 Ry     beta= 0.10
     Davidson diagonalization with overlap
     ethr =  8.29E-10,  avg # of iterations =  2.2

     total cpu time spent up to now is    10921.8 secs

     total energy              =  -10536.24755114 Ry
     Harris-Foulkes estimate   =  -10536.24754999 Ry
     estimated scf accuracy    <       0.00000252 Ry

     total magnetization       =    -0.00 Bohr mag/cell
     absolute magnetization    =    50.74 Bohr mag/cell

     iteration # 32     ecut=    71.00 Ry     beta= 0.10
     Davidson diagonalization with overlap
     ethr =  4.91E-10,  avg # of iterations =  2.9

     total cpu time spent up to now is    11291.0 secs

     total energy              =  -10536.24755142 Ry
     Harris-Foulkes estimate   =  -10536.24755137 Ry
     estimated scf accuracy    <       0.00000245 Ry

     total magnetization       =    -0.00 Bohr mag/cell
     absolute magnetization    =    50.75 Bohr mag/cell

     iteration # 33     ecut=    71.00 Ry     beta= 0.10
     Davidson diagonalization with overlap
     ethr =  4.79E-10,  avg # of iterations =  2.0

     total cpu time spent up to now is    11586.3 secs

     total energy              =  -10536.24755218 Ry
     Harris-Foulkes estimate   =  -10536.24755165 Ry
     estimated scf accuracy    <       0.00000328 Ry

     total magnetization       =    -0.00 Bohr mag/cell
     absolute magnetization    =    50.76 Bohr mag/cell

     iteration # 34     ecut=    71.00 Ry     beta= 0.10
     Davidson diagonalization with overlap
     ethr =  4.79E-10,  avg # of iterations =  2.6

     total cpu time spent up to now is    11937.7 secs

     total energy              =  -10536.24755278 Ry
     Harris-Foulkes estimate   =  -10536.24755251 Ry
     estimated scf accuracy    <       0.00000117 Ry

     total magnetization       =    -0.00 Bohr mag/cell
     absolute magnetization    =    50.77 Bohr mag/cell

     iteration # 35     ecut=    71.00 Ry     beta= 0.10
     Davidson diagonalization with overlap
     ethr =  2.28E-10,  avg # of iterations =  1.9
 
     Magnetic moment per site:
     atom:    1    charge:   14.3607    magn:    1.5256    constr:    0.0000
     atom:    2    charge:   14.3607    magn:   -1.5259    constr:    0.0000
     atom:    3    charge:   14.3601    magn:    1.5281    constr:    0.0000
     atom:    4    charge:   14.3608    magn:   -1.5292    constr:    0.0000
     atom:    5    charge:   14.3609    magn:    1.5262    constr:    0.0000
     atom:    6    charge:   14.3608    magn:   -1.5254    constr:    0.0000
     atom:    7    charge:   14.3601    magn:    1.5281    constr:    0.0000
     atom:    8    charge:   14.3608    magn:   -1.5292    constr:    0.0000
     atom:    9    charge:   14.3607    magn:    1.5264    constr:    0.0000
     atom:   10    charge:   14.3607    magn:   -1.5259    constr:    0.0000
     atom:   11    charge:   14.3601    magn:    1.5276    constr:    0.0000
     atom:   12    charge:   14.3608    magn:   -1.5292    constr:    0.0000
     atom:   13    charge:   14.3609    magn:    1.5268    constr:    0.0000
     atom:   14    charge:   14.3608    magn:   -1.5254    constr:    0.0000
     atom:   15    charge:   14.3601    magn:    1.5276    constr:    0.0000
     atom:   16    charge:   14.3608    magn:   -1.5292    constr:    0.0000
     atom:   17    charge:   14.3605    magn:    1.5268    constr:    0.0000
     atom:   18    charge:   14.3607    magn:   -1.5259    constr:    0.0000
     atom:   19    charge:   14.3601    magn:    1.5281    constr:    0.0000
     atom:   20    charge:   14.3606    magn:   -1.5285    constr:    0.0000
     atom:   21    charge:   14.3604    magn:    1.5271    constr:    0.0000
     atom:   22    charge:   14.3608    magn:   -1.5254    constr:    0.0000
     atom:   23    charge:   14.3601    magn:    1.5281    constr:    0.0000
     atom:   24    charge:   14.3606    magn:   -1.5285    constr:    0.0000
     atom:   25    charge:   14.3605    magn:    1.5262    constr:    0.0000
     atom:   26    charge:   14.3607    magn:   -1.5259    constr:    0.0000
     atom:   27    charge:   14.3601    magn:    1.5276    constr:    0.0000
     atom:   28    charge:   14.3606    magn:   -1.5285    constr:    0.0000
     atom:   29    charge:   14.3606    magn:    1.5261    constr:    0.0000
     atom:   30    charge:   14.3608    magn:   -1.5254    constr:    0.0000
     atom:   31    charge:   14.3601    magn:    1.5276    constr:    0.0000
     atom:   32    charge:   14.3606    magn:   -1.5285    constr:    0.0000

     total cpu time spent up to now is    12234.6 secs

     End of self-consistent calculation

     Number of k-points >= 100: set verbosity='high' to print the bands.

     the Fermi energy is    20.1171 ev

!    total energy              =  -10536.24755313 Ry
     Harris-Foulkes estimate   =  -10536.24755286 Ry
     estimated scf accuracy    <       0.00000084 Ry

     total all-electron energy =    -81457.736611 Ry

     The total energy is the sum of the following terms:

     one-electron contribution =   -3292.88225988 Ry
     hartree contribution      =    1996.86497327 Ry
     xc contribution           =    -887.06989138 Ry
     ewald contribution        =   -5703.63014124 Ry
     one-center paw contrib.   =   -2649.55684197 Ry
     smearing contrib. (-TS)   =       0.02660807 Ry

     total magnetization       =    -0.00 Bohr mag/cell
     absolute magnetization    =    50.78 Bohr mag/cell

     convergence has been achieved in  35 iterations

     Forces acting on atoms (cartesian axes, Ry/au):

     atom    1 type  1   force =     0.00000000    0.00000000    0.00000000
     atom    2 type  2   force =     0.00013123    0.00001776    0.00000000
     atom    3 type  3   force =     0.00029377    0.00000000    0.00011729
     atom    4 type  4   force =     0.00000000   -0.00018674   -0.00022548
     atom    5 type  1   force =     0.00000000    0.00000000    0.00000000
     atom    6 type  2   force =     0.00011263   -0.00021738    0.00000000
     atom    7 type  3   force =     0.00029377    0.00000000   -0.00011729
     atom    8 type  4   force =     0.00000000   -0.00018674    0.00022548
     atom    9 type  1   force =     0.00000000    0.00000000    0.00000000
     atom   10 type  2   force =     0.00013123   -0.00001776    0.00000000
     atom   11 type  3   force =     0.00001355   -0.00000000   -0.00002829
     atom   12 type  4   force =     0.00000000    0.00018674   -0.00022548
     atom   13 type  1   force =     0.00000000    0.00000000    0.00000000
     atom   14 type  2   force =     0.00011263    0.00021738    0.00000000
     atom   15 type  3   force =     0.00001355    0.00000000    0.00002829
     atom   16 type  4   force =     0.00000000    0.00018674    0.00022548
     atom   17 type  1   force =     0.00000000    0.00000000    0.00000000
     atom   18 type  2   force =    -0.00013123    0.00001776    0.00000000
     atom   19 type  3   force =    -0.00029377    0.00000000    0.00011729
     atom   20 type  4   force =     0.00000000    0.00008043   -0.00014979
     atom   21 type  1   force =     0.00000000    0.00000000    0.00000000
     atom   22 type  2   force =    -0.00011263   -0.00021738    0.00000000
     atom   23 type  3   force =    -0.00029377    0.00000000   -0.00011729
     atom   24 type  4   force =     0.00000000    0.00008043    0.00014979
     atom   25 type  1   force =     0.00000000    0.00000000    0.00000000
     atom   26 type  2   force =    -0.00013123   -0.00001776    0.00000000
     atom   27 type  3   force =    -0.00001355    0.00000000   -0.00002829
     atom   28 type  4   force =     0.00000000   -0.00008043   -0.00014979
     atom   29 type  1   force =     0.00000000    0.00000000    0.00000000
     atom   30 type  2   force =    -0.00011263    0.00021738    0.00000000
     atom   31 type  3   force =    -0.00001355   -0.00000000    0.00002829
     atom   32 type  4   force =     0.00000000   -0.00008043    0.00014979

     Total force =     0.001083     Total SCF correction =     0.005488
     SCF correction compared to forces is large: reduce conv_thr to get better values


     Computing stress (Cartesian axis) and pressure

          total   stress  (Ry/bohr**3)                   (kbar)     P=    5.98
   0.00008098   0.00000000   0.00000000         11.91      0.00      0.00
   0.00000000  -0.00011660   0.00000000          0.00    -17.15      0.00
   0.00000000   0.00000000   0.00015759          0.00      0.00     23.18


     Writing output data file uEwVzIorMbxNWdtO.save/
-------------------------------------------------------
Primary job  terminated normally, but 1 process returned
a non-zero exit code.. Per user-direction, the job has been aborted.
-------------------------------------------------------
--------------------------------------------------------------------------
mpirun detected that one or more processes exited with non-zero status, thus causing
the job to be terminated. The first process to do so was:

  Process name: [[23781,1],0]
  Exit code:    38
--------------------------------------------------------------------------
