--------------------------------------------------------------------------
WARNING: No preset parameters were found for the device that Open MPI
detected:

  Local host:            bear-pg0206u13b
  Device name:           mlx5_0
  Device vendor ID:      0x02c9
  Device vendor part ID: 4123

Default device parameters will be used, which may result in lower
performance.  You can edit any of the files specified by the
btl_openib_device_param_files MCA parameter to set values for your
device.

NOTE: You can turn off this warning by setting the MCA parameter
      btl_openib_warn_no_device_params_found to 0.
--------------------------------------------------------------------------
--------------------------------------------------------------------------
WARNING: There was an error initializing an OpenFabrics device.

  Local host:   bear-pg0206u13b
  Local device: mlx5_0
--------------------------------------------------------------------------

     Program PWSCF v.6.3 starts on 13Oct2020 at  6:19:15 

     This program is part of the open-source Quantum ESPRESSO suite
     for quantum simulation of materials; please cite
         "P. Giannozzi et al., J. Phys.:Condens. Matter 21 395502 (2009);
         "P. Giannozzi et al., J. Phys.:Condens. Matter 29 465901 (2017);
          URL http://www.quantum-espresso.org", 
     in publications or presentations arising from this work. More details at
     http://www.quantum-espresso.org/quote

     Parallel version (MPI & OpenMP), running on      40 processor cores
     Number of MPI processes:                40
     Threads/MPI process:                     1

     MPI processes distributed on     1 nodes
     R & G space division:  proc/nbgrp/npool/nimage =      40
     Reading input from wd/ec/ec_4_004.in
Warning: card &IONS ignored
Warning: card ION_DYNAMICS = 'BFGS', ignored
Warning: card / ignored
Warning: card &CELL ignored
Warning: card CELL_DYNAMICS = 'BFGS', ignored
Warning: card CELL_FACTOR = 2.0, ignored
Warning: card PRESS = 0.0, ignored
Warning: card / ignored

     Current dimensions of program PWSCF are:
     Max number of different atomic species (ntypx) = 10
     Max number of k-points (npk) =  40000
     Max angular momentum in pseudopotentials (lmaxx) =  3
               file Fe.pbe-spn-kjpaw_psl.1.0.0.UPF: wavefunction(s)  3P 3D renormalized
               file Fe.pbe-spn-kjpaw_psl.1.0.0.UPF: wavefunction(s)  3P 3D renormalized
               file Fe.pbe-spn-kjpaw_psl.1.0.0.UPF: wavefunction(s)  3P 3D renormalized
               file Fe.pbe-spn-kjpaw_psl.1.0.0.UPF: wavefunction(s)  3P 3D renormalized

     Subspace diagonalization in iterative solution of the eigenvalue problem:
     a serial algorithm will be used

     Found symmetry operation: I + (  0.0000 -0.0000 -0.5000)
     This is a supercell, fractional translations are disabled
 
     Parallelization info
     --------------------
     sticks:   dense  smooth     PW     G-vecs:    dense   smooth      PW
     Min         150      99     27                 8593     4612     664
     Max         151     100     28                 8599     4618     668
     Sum        6035    3993   1103               343859   184595   26625
 


     bravais-lattice index     =            0
     lattice parameter (alat)  =      12.9382  a.u.
     unit-cell volume          =    2283.7593 (a.u.)^3
     number of atoms/cell      =           32
     number of atomic types    =            4
     number of electrons       =       512.00
     number of Kohn-Sham states=          307
     kinetic-energy cutoff     =      71.0000  Ry
     charge density cutoff     =     430.0000  Ry
     convergence threshold     =      1.0E-06
     mixing beta               =       0.1000
     number of iterations used =           10  plain     mixing
     Exchange-correlation      = SLA PW PBX PBC ( 1  4  3  4 0 0)

     celldm(1)=  12.938187  celldm(2)=   0.000000  celldm(3)=   0.000000
     celldm(4)=   0.000000  celldm(5)=   0.000000  celldm(6)=   0.000000

     crystal axes: (cart. coord. in units of alat)
               a(1) = (   1.000008   0.000000   0.000000 )  
               a(2) = (   0.000000   1.054482   0.005000 )  
               a(3) = (   0.000000   0.005272   0.999995 )  

     reciprocal axes: (cart. coord. in units 2 pi/alat)
               b(1) = (  0.999992  0.000000  0.000000 )  
               b(2) = (  0.000000  0.948356 -0.005000 )  
               b(3) = (  0.000000 -0.004742  1.000030 )  


     PseudoPot. # 1 for Fe read from file:
     /rds/homes/b/bxp912/pp/Fe.pbe-spn-kjpaw_psl.1.0.0.UPF
     MD5 check sum: 42f43b795421b414b0dc916aa790dbcb
     Pseudo is Projector augmented-wave + core cor, Zval = 16.0
     Generated using "atomic" code by A. Dal Corso v.6.3
     Shape of augmentation charge: PSQ
     Using radial grid of 1191 points,  6 beta functions with: 
                l(1) =   0
                l(2) =   0
                l(3) =   1
                l(4) =   1
                l(5) =   2
                l(6) =   2
     Q(r) pseudized with 0 coefficients 


     PseudoPot. # 2 for Fe read from file:
     /rds/homes/b/bxp912/pp/Fe.pbe-spn-kjpaw_psl.1.0.0.UPF
     MD5 check sum: 42f43b795421b414b0dc916aa790dbcb
     Pseudo is Projector augmented-wave + core cor, Zval = 16.0
     Generated using "atomic" code by A. Dal Corso v.6.3
     Shape of augmentation charge: PSQ
     Using radial grid of 1191 points,  6 beta functions with: 
                l(1) =   0
                l(2) =   0
                l(3) =   1
                l(4) =   1
                l(5) =   2
                l(6) =   2
     Q(r) pseudized with 0 coefficients 


     PseudoPot. # 3 for Fe read from file:
     /rds/homes/b/bxp912/pp/Fe.pbe-spn-kjpaw_psl.1.0.0.UPF
     MD5 check sum: 42f43b795421b414b0dc916aa790dbcb
     Pseudo is Projector augmented-wave + core cor, Zval = 16.0
     Generated using "atomic" code by A. Dal Corso v.6.3
     Shape of augmentation charge: PSQ
     Using radial grid of 1191 points,  6 beta functions with: 
                l(1) =   0
                l(2) =   0
                l(3) =   1
                l(4) =   1
                l(5) =   2
                l(6) =   2
     Q(r) pseudized with 0 coefficients 


     PseudoPot. # 4 for Fe read from file:
     /rds/homes/b/bxp912/pp/Fe.pbe-spn-kjpaw_psl.1.0.0.UPF
     MD5 check sum: 42f43b795421b414b0dc916aa790dbcb
     Pseudo is Projector augmented-wave + core cor, Zval = 16.0
     Generated using "atomic" code by A. Dal Corso v.6.3
     Shape of augmentation charge: PSQ
     Using radial grid of 1191 points,  6 beta functions with: 
                l(1) =   0
                l(2) =   0
                l(3) =   1
                l(4) =   1
                l(5) =   2
                l(6) =   2
     Q(r) pseudized with 0 coefficients 


     atomic species   valence    mass     pseudopotential
        Fe1           16.00    55.84500     Fe( 1.00)
        Fe2           16.00    55.84500     Fe( 1.00)
        Fe3           16.00    55.84500     Fe( 1.00)
        Fe4           16.00    55.84500     Fe( 1.00)

     Starting magnetic structure 
     atomic species   magnetization
        Fe1          0.100
        Fe2         -0.100
        Fe3          0.100
        Fe4         -0.100

      4 Sym. Ops., with inversion, found



   Cartesian axes

     site n.     atom                  positions (alat units)
         1           Fe1 tau(   1) = (   0.0000000   0.0000000   0.0000000  )
         2           Fe2 tau(   2) = (   0.2499989   0.2636233   0.0012500  )
         3           Fe3 tau(   3) = (   0.2500002   0.0013181   0.2499968  )
         4           Fe4 tau(   4) = (   0.0000000   0.2649400   0.2512528  )
         5           Fe1 tau(   5) = (   0.0000000   0.0026362   0.4999977  )
         6           Fe2 tau(   6) = (   0.2500017   0.2662623   0.5012477  )
         7           Fe3 tau(   7) = (   0.2500002   0.0039543   0.7499975  )
         8           Fe4 tau(   8) = (   0.0000000   0.2675762   0.7512415  )
         9           Fe1 tau(   9) = (   0.0000000   0.5272413   0.0025000  )
        10           Fe2 tau(  10) = (   0.2499989   0.7908595   0.0037500  )
        11           Fe3 tau(  11) = (   0.2500024   0.5285595   0.2525008  )
        12           Fe4 tau(  12) = (   0.0000000   0.7921790   0.2537528  )
        13           Fe1 tau(  13) = (   0.0000000   0.5298775   0.5024976  )
        14           Fe2 tau(  14) = (   0.2500017   0.7934929   0.5037476  )
        15           Fe3 tau(  15) = (   0.2500024   0.5311956   0.7524945  )
        16           Fe4 tau(  16) = (   0.0000000   0.7948152   0.7537415  )
        17           Fe1 tau(  17) = (   0.5000040   0.0000000   0.0000000  )
        18           Fe2 tau(  18) = (   0.7500089   0.2636233   0.0012500  )
        19           Fe3 tau(  19) = (   0.7500077   0.0013181   0.2499968  )
        20           Fe4 tau(  20) = (   0.5000040   0.2649390   0.2512508  )
        21           Fe1 tau(  21) = (   0.5000040   0.0026362   0.4999977  )
        22           Fe2 tau(  22) = (   0.7500061   0.2662623   0.5012477  )
        23           Fe3 tau(  23) = (   0.7500077   0.0039543   0.7499975  )
        24           Fe4 tau(  24) = (   0.5000040   0.2675752   0.7512435  )
        25           Fe1 tau(  25) = (   0.5000040   0.5272413   0.0025000  )
        26           Fe2 tau(  26) = (   0.7500089   0.7908595   0.0037500  )
        27           Fe3 tau(  27) = (   0.7500055   0.5285595   0.2525008  )
        28           Fe4 tau(  28) = (   0.5000040   0.7921800   0.2537508  )
        29           Fe1 tau(  29) = (   0.5000040   0.5298775   0.5024976  )
        30           Fe2 tau(  30) = (   0.7500061   0.7934929   0.5037476  )
        31           Fe3 tau(  31) = (   0.7500055   0.5311956   0.7524945  )
        32           Fe4 tau(  32) = (   0.5000040   0.7948162   0.7537435  )

     number of k points=   205  Marzari-Vanderbilt smearing, width (Ry)=  0.0400

     Number of k-points >= 100: set verbosity='high' to print them.

     Dense  grid:   343859 G-vectors     FFT dimensions: (  90,  96,  90)

     Smooth grid:   184595 G-vectors     FFT dimensions: (  72,  75,  72)

     Estimated max dynamical RAM per process >       1.21 GB

     Estimated total dynamical RAM >      48.54 GB
     Generating pointlists ...
     new r_m :   0.1458 (alat units)  1.8869 (a.u.) for type    1
     new r_m :   0.1458 (alat units)  1.8869 (a.u.) for type    2
     new r_m :   0.1458 (alat units)  1.8869 (a.u.) for type    3
     new r_m :   0.1458 (alat units)  1.8869 (a.u.) for type    4

     Check: negative/imaginary core charge=   -0.000006    0.000000

     Initial potential from superposition of free atoms

     starting charge  511.98600, renormalised to  512.00000
     Starting wfcs are  320 randomized atomic wfcs
     Checking if some PAW data can be deallocated... 

     total cpu time spent up to now is      150.2 secs

     Self-consistent Calculation

     iteration #  1     ecut=    71.00 Ry     beta= 0.10
     Davidson diagonalization with overlap
     ethr =  1.00E-02,  avg # of iterations =  3.7

     Threshold (ethr) on eigenvalues was too large:
     Diagonalizing with lowered threshold

     Davidson diagonalization with overlap
     ethr =  3.47E-04,  avg # of iterations =  4.0

     total cpu time spent up to now is     1749.7 secs

     total energy              =  -10536.53390511 Ry
     Harris-Foulkes estimate   =  -10536.93488462 Ry
     estimated scf accuracy    <       2.04939860 Ry

     total magnetization       =     0.16 Bohr mag/cell
     absolute magnetization    =    44.35 Bohr mag/cell

     iteration #  2     ecut=    71.00 Ry     beta= 0.10
     Davidson diagonalization with overlap
     ethr =  4.00E-04,  avg # of iterations =  1.0

     total cpu time spent up to now is     2135.5 secs

     total energy              =  -10536.26523799 Ry
     Harris-Foulkes estimate   =  -10536.58334420 Ry
     estimated scf accuracy    <       1.21100389 Ry

     total magnetization       =    -0.19 Bohr mag/cell
     absolute magnetization    =    45.02 Bohr mag/cell

     iteration #  3     ecut=    71.00 Ry     beta= 0.10
     Davidson diagonalization with overlap
     ethr =  2.37E-04,  avg # of iterations =  2.3

     total cpu time spent up to now is     2663.8 secs

     total energy              =  -10536.08579693 Ry
     Harris-Foulkes estimate   =  -10536.40951073 Ry
     estimated scf accuracy    <       2.69517880 Ry

     total magnetization       =     0.26 Bohr mag/cell
     absolute magnetization    =    45.40 Bohr mag/cell

     iteration #  4     ecut=    71.00 Ry     beta= 0.10
     Davidson diagonalization with overlap
     ethr =  2.37E-04,  avg # of iterations =  2.5

     total cpu time spent up to now is     3219.8 secs

     total energy              =  -10536.18645792 Ry
     Harris-Foulkes estimate   =  -10536.23064913 Ry
     estimated scf accuracy    <       0.66222228 Ry

     total magnetization       =     0.30 Bohr mag/cell
     absolute magnetization    =    46.33 Bohr mag/cell

     iteration #  5     ecut=    71.00 Ry     beta= 0.10
     Davidson diagonalization with overlap
     ethr =  1.29E-04,  avg # of iterations =  1.3

     total cpu time spent up to now is     3636.8 secs

     total energy              =  -10536.19797417 Ry
     Harris-Foulkes estimate   =  -10536.20966628 Ry
     estimated scf accuracy    <       0.08821731 Ry

     total magnetization       =     0.00 Bohr mag/cell
     absolute magnetization    =    46.49 Bohr mag/cell

     iteration #  6     ecut=    71.00 Ry     beta= 0.10
     Davidson diagonalization with overlap
     ethr =  1.72E-05,  avg # of iterations =  3.5

     total cpu time spent up to now is     4297.5 secs

     total energy              =  -10536.17232175 Ry
     Harris-Foulkes estimate   =  -10536.20111160 Ry
     estimated scf accuracy    <       0.06949890 Ry

     total magnetization       =    -0.12 Bohr mag/cell
     absolute magnetization    =    46.44 Bohr mag/cell

     iteration #  7     ecut=    71.00 Ry     beta= 0.10
     Davidson diagonalization with overlap
     ethr =  1.36E-05,  avg # of iterations =  3.9

     total cpu time spent up to now is     5275.7 secs

     total energy              =  -10536.18935218 Ry
     Harris-Foulkes estimate   =  -10536.19846534 Ry
     estimated scf accuracy    <       0.09014707 Ry

     total magnetization       =     0.04 Bohr mag/cell
     absolute magnetization    =    46.56 Bohr mag/cell

     iteration #  8     ecut=    71.00 Ry     beta= 0.10
     Davidson diagonalization with overlap
     ethr =  1.36E-05,  avg # of iterations =  2.0

     total cpu time spent up to now is     5788.5 secs

     total energy              =  -10536.19172654 Ry
     Harris-Foulkes estimate   =  -10536.19275761 Ry
     estimated scf accuracy    <       0.06195631 Ry

     total magnetization       =     0.01 Bohr mag/cell
     absolute magnetization    =    46.81 Bohr mag/cell

     iteration #  9     ecut=    71.00 Ry     beta= 0.10
     Davidson diagonalization with overlap
     ethr =  1.21E-05,  avg # of iterations =  1.0

     total cpu time spent up to now is     6166.2 secs

     total energy              =  -10536.20250714 Ry
     Harris-Foulkes estimate   =  -10536.19239602 Ry
     estimated scf accuracy    <       0.04842875 Ry

     total magnetization       =    -0.01 Bohr mag/cell
     absolute magnetization    =    46.87 Bohr mag/cell

     iteration # 10     ecut=    71.00 Ry     beta= 0.10
     Davidson diagonalization with overlap
     ethr =  9.46E-06,  avg # of iterations =  3.0

     total cpu time spent up to now is     6886.3 secs

     total energy              =  -10536.23017747 Ry
     Harris-Foulkes estimate   =  -10536.20835390 Ry
     estimated scf accuracy    <       0.03514035 Ry

     total magnetization       =    -0.11 Bohr mag/cell
     absolute magnetization    =    47.30 Bohr mag/cell

     iteration # 11     ecut=    71.00 Ry     beta= 0.10
     Davidson diagonalization with overlap
     ethr =  6.86E-06,  avg # of iterations =  2.6

     total cpu time spent up to now is     7591.5 secs

     total energy              =  -10536.24412909 Ry
     Harris-Foulkes estimate   =  -10536.23887124 Ry
     estimated scf accuracy    <       0.02823072 Ry

     total magnetization       =    -0.10 Bohr mag/cell
     absolute magnetization    =    47.91 Bohr mag/cell

     iteration # 12     ecut=    71.00 Ry     beta= 0.10
     Davidson diagonalization with overlap
     ethr =  5.51E-06,  avg # of iterations =  2.4

     total cpu time spent up to now is     8198.7 secs

     total energy              =  -10536.24781992 Ry
     Harris-Foulkes estimate   =  -10536.24758368 Ry
     estimated scf accuracy    <       0.00586132 Ry

     total magnetization       =    -0.01 Bohr mag/cell
     absolute magnetization    =    48.31 Bohr mag/cell

     iteration # 13     ecut=    71.00 Ry     beta= 0.10
     Davidson diagonalization with overlap
     ethr =  1.14E-06,  avg # of iterations =  2.9

     total cpu time spent up to now is     8811.0 secs

     total energy              =  -10536.24808401 Ry
     Harris-Foulkes estimate   =  -10536.24823766 Ry
     estimated scf accuracy    <       0.00223895 Ry

     total magnetization       =    -0.01 Bohr mag/cell
     absolute magnetization    =    48.42 Bohr mag/cell

     iteration # 14     ecut=    71.00 Ry     beta= 0.10
     Davidson diagonalization with overlap
     ethr =  4.37E-07,  avg # of iterations =  1.5

     total cpu time spent up to now is     9255.8 secs

     total energy              =  -10536.24814123 Ry
     Harris-Foulkes estimate   =  -10536.24815957 Ry
     estimated scf accuracy    <       0.00129356 Ry

     total magnetization       =    -0.02 Bohr mag/cell
     absolute magnetization    =    48.46 Bohr mag/cell

     iteration # 15     ecut=    71.00 Ry     beta= 0.10
     Davidson diagonalization with overlap
     ethr =  2.53E-07,  avg # of iterations =  2.1

     total cpu time spent up to now is     9760.3 secs

     total energy              =  -10536.24836235 Ry
     Harris-Foulkes estimate   =  -10536.24820383 Ry
     estimated scf accuracy    <       0.00087697 Ry

     total magnetization       =    -0.01 Bohr mag/cell
     absolute magnetization    =    48.53 Bohr mag/cell

     iteration # 16     ecut=    71.00 Ry     beta= 0.10
     Davidson diagonalization with overlap
     ethr =  1.71E-07,  avg # of iterations =  1.4

     total cpu time spent up to now is    10194.3 secs

     total energy              =  -10536.24841944 Ry
     Harris-Foulkes estimate   =  -10536.24840877 Ry
     estimated scf accuracy    <       0.00079857 Ry

     total magnetization       =    -0.00 Bohr mag/cell
     absolute magnetization    =    48.62 Bohr mag/cell

     iteration # 17     ecut=    71.00 Ry     beta= 0.10
     Davidson diagonalization with overlap
     ethr =  1.56E-07,  avg # of iterations =  1.1

     total cpu time spent up to now is    10593.3 secs

     total energy              =  -10536.24855888 Ry
     Harris-Foulkes estimate   =  -10536.24846138 Ry
     estimated scf accuracy    <       0.00069487 Ry

     total magnetization       =    -0.03 Bohr mag/cell
     absolute magnetization    =    48.66 Bohr mag/cell

     iteration # 18     ecut=    71.00 Ry     beta= 0.10
     Davidson diagonalization with overlap
     ethr =  1.36E-07,  avg # of iterations =  2.0

     total cpu time spent up to now is    11124.6 secs

     total energy              =  -10536.24872205 Ry
     Harris-Foulkes estimate   =  -10536.24862317 Ry
     estimated scf accuracy    <       0.00065248 Ry

     total magnetization       =    -0.01 Bohr mag/cell
     absolute magnetization    =    48.76 Bohr mag/cell

     iteration # 19     ecut=    71.00 Ry     beta= 0.10
     Davidson diagonalization with overlap
     ethr =  1.27E-07,  avg # of iterations =  1.2

     total cpu time spent up to now is    11529.1 secs

     total energy              =  -10536.24883022 Ry
     Harris-Foulkes estimate   =  -10536.24875866 Ry
     estimated scf accuracy    <       0.00032631 Ry

     total magnetization       =    -0.00 Bohr mag/cell
     absolute magnetization    =    48.84 Bohr mag/cell

     iteration # 20     ecut=    71.00 Ry     beta= 0.10
     Davidson diagonalization with overlap
     ethr =  6.37E-08,  avg # of iterations =  2.2

     total cpu time spent up to now is    12055.9 secs

     total energy              =  -10536.24890010 Ry
     Harris-Foulkes estimate   =  -10536.24884531 Ry
     estimated scf accuracy    <       0.00027841 Ry

     total magnetization       =    -0.01 Bohr mag/cell
     absolute magnetization    =    48.90 Bohr mag/cell

     iteration # 21     ecut=    71.00 Ry     beta= 0.10
     Davidson diagonalization with overlap
     ethr =  5.44E-08,  avg # of iterations =  1.3

     total cpu time spent up to now is    12477.3 secs

     total energy              =  -10536.24900267 Ry
     Harris-Foulkes estimate   =  -10536.24891190 Ry
     estimated scf accuracy    <       0.00021831 Ry

     total magnetization       =    -0.01 Bohr mag/cell
     absolute magnetization    =    48.95 Bohr mag/cell

     iteration # 22     ecut=    71.00 Ry     beta= 0.10
     Davidson diagonalization with overlap
     ethr =  4.26E-08,  avg # of iterations =  3.3

     total cpu time spent up to now is    13175.0 secs

     total energy              =  -10536.24907324 Ry
     Harris-Foulkes estimate   =  -10536.24905107 Ry
     estimated scf accuracy    <       0.00015825 Ry

     total magnetization       =    -0.01 Bohr mag/cell
     absolute magnetization    =    49.12 Bohr mag/cell

     iteration # 23     ecut=    71.00 Ry     beta= 0.10
     Davidson diagonalization with overlap
     ethr =  3.09E-08,  avg # of iterations =  1.0

     total cpu time spent up to now is    13565.0 secs

     total energy              =  -10536.24908792 Ry
     Harris-Foulkes estimate   =  -10536.24908247 Ry
     estimated scf accuracy    <       0.00008739 Ry

     total magnetization       =    -0.01 Bohr mag/cell
     absolute magnetization    =    49.18 Bohr mag/cell

     iteration # 24     ecut=    71.00 Ry     beta= 0.10
     Davidson diagonalization with overlap
     ethr =  1.71E-08,  avg # of iterations =  2.7

     total cpu time spent up to now is    14161.7 secs

     total energy              =  -10536.24909711 Ry
     Harris-Foulkes estimate   =  -10536.24909701 Ry
     estimated scf accuracy    <       0.00014485 Ry

     total magnetization       =    -0.01 Bohr mag/cell
     absolute magnetization    =    49.22 Bohr mag/cell

     iteration # 25     ecut=    71.00 Ry     beta= 0.10
     Davidson diagonalization with overlap
     ethr =  1.71E-08,  avg # of iterations =  1.0

     total cpu time spent up to now is    14551.9 secs

     total energy              =  -10536.24910983 Ry
     Harris-Foulkes estimate   =  -10536.24910376 Ry
     estimated scf accuracy    <       0.00009413 Ry

     total magnetization       =    -0.01 Bohr mag/cell
     absolute magnetization    =    49.24 Bohr mag/cell

     iteration # 26     ecut=    71.00 Ry     beta= 0.10
     Davidson diagonalization with overlap
     ethr =  1.71E-08,  avg # of iterations =  2.0

     total cpu time spent up to now is    15042.0 secs

     total energy              =  -10536.24912621 Ry
     Harris-Foulkes estimate   =  -10536.24912002 Ry
     estimated scf accuracy    <       0.00005725 Ry

     total magnetization       =    -0.00 Bohr mag/cell
     absolute magnetization    =    49.32 Bohr mag/cell

     iteration # 27     ecut=    71.00 Ry     beta= 0.10
     Davidson diagonalization with overlap
     ethr =  1.12E-08,  avg # of iterations =  2.9

     total cpu time spent up to now is    15677.9 secs

     total energy              =  -10536.24913863 Ry
     Harris-Foulkes estimate   =  -10536.24913502 Ry
     estimated scf accuracy    <       0.00003712 Ry

     total magnetization       =    -0.01 Bohr mag/cell
     absolute magnetization    =    49.39 Bohr mag/cell

     iteration # 28     ecut=    71.00 Ry     beta= 0.10
     Davidson diagonalization with overlap
     ethr =  7.25E-09,  avg # of iterations =  1.5

     total cpu time spent up to now is    16124.3 secs

     total energy              =  -10536.24914485 Ry
     Harris-Foulkes estimate   =  -10536.24914073 Ry
     estimated scf accuracy    <       0.00002087 Ry

     total magnetization       =    -0.00 Bohr mag/cell
     absolute magnetization    =    49.42 Bohr mag/cell

     iteration # 29     ecut=    71.00 Ry     beta= 0.10
     Davidson diagonalization with overlap
     ethr =  4.08E-09,  avg # of iterations =  1.6

     total cpu time spent up to now is    16583.8 secs

     total energy              =  -10536.24914935 Ry
     Harris-Foulkes estimate   =  -10536.24914584 Ry
     estimated scf accuracy    <       0.00001651 Ry

     total magnetization       =    -0.01 Bohr mag/cell
     absolute magnetization    =    49.44 Bohr mag/cell

     iteration # 30     ecut=    71.00 Ry     beta= 0.10
     Davidson diagonalization with overlap
     ethr =  3.22E-09,  avg # of iterations =  2.8

     total cpu time spent up to now is    17199.9 secs

     total energy              =  -10536.24915248 Ry
     Harris-Foulkes estimate   =  -10536.24915146 Ry
     estimated scf accuracy    <       0.00000716 Ry

     total magnetization       =    -0.00 Bohr mag/cell
     absolute magnetization    =    49.47 Bohr mag/cell

     iteration # 31     ecut=    71.00 Ry     beta= 0.10
     Davidson diagonalization with overlap
     ethr =  1.40E-09,  avg # of iterations =  2.0

     total cpu time spent up to now is    17697.8 secs

     total energy              =  -10536.24915366 Ry
     Harris-Foulkes estimate   =  -10536.24915277 Ry
     estimated scf accuracy    <       0.00000622 Ry

     total magnetization       =    -0.00 Bohr mag/cell
     absolute magnetization    =    49.47 Bohr mag/cell

     iteration # 32     ecut=    71.00 Ry     beta= 0.10
     Davidson diagonalization with overlap
     ethr =  1.21E-09,  avg # of iterations =  2.5

     total cpu time spent up to now is    18264.2 secs

     total energy              =  -10536.24915592 Ry
     Harris-Foulkes estimate   =  -10536.24915427 Ry
     estimated scf accuracy    <       0.00000468 Ry

     total magnetization       =    -0.00 Bohr mag/cell
     absolute magnetization    =    49.49 Bohr mag/cell

     iteration # 33     ecut=    71.00 Ry     beta= 0.10
     Davidson diagonalization with overlap
     ethr =  9.13E-10,  avg # of iterations =  3.1

     total cpu time spent up to now is    18991.8 secs

     total energy              =  -10536.24915791 Ry
     Harris-Foulkes estimate   =  -10536.24915732 Ry
     estimated scf accuracy    <       0.00000221 Ry

     total magnetization       =    -0.00 Bohr mag/cell
     absolute magnetization    =    49.53 Bohr mag/cell

     iteration # 34     ecut=    71.00 Ry     beta= 0.10
     Davidson diagonalization with overlap
     ethr =  4.33E-10,  avg # of iterations =  2.2

     total cpu time spent up to now is    19531.0 secs

     total energy              =  -10536.24915858 Ry
     Harris-Foulkes estimate   =  -10536.24915825 Ry
     estimated scf accuracy    <       0.00000149 Ry

     total magnetization       =    -0.00 Bohr mag/cell
     absolute magnetization    =    49.54 Bohr mag/cell

     iteration # 35     ecut=    71.00 Ry     beta= 0.10
     Davidson diagonalization with overlap
     ethr =  2.92E-10,  avg # of iterations =  1.1
 
     Magnetic moment per site:
     atom:    1    charge:   14.3916    magn:    1.4905    constr:    0.0000
     atom:    2    charge:   14.3920    magn:   -1.4903    constr:    0.0000
     atom:    3    charge:   14.3912    magn:    1.4935    constr:    0.0000
     atom:    4    charge:   14.3918    magn:   -1.4958    constr:    0.0000
     atom:    5    charge:   14.3915    magn:    1.4912    constr:    0.0000
     atom:    6    charge:   14.3919    magn:   -1.4898    constr:    0.0000
     atom:    7    charge:   14.3912    magn:    1.4935    constr:    0.0000
     atom:    8    charge:   14.3917    magn:   -1.4937    constr:    0.0000
     atom:    9    charge:   14.3916    magn:    1.4915    constr:    0.0000
     atom:   10    charge:   14.3920    magn:   -1.4903    constr:    0.0000
     atom:   11    charge:   14.3913    magn:    1.4927    constr:    0.0000
     atom:   12    charge:   14.3917    magn:   -1.4937    constr:    0.0000
     atom:   13    charge:   14.3915    magn:    1.4920    constr:    0.0000
     atom:   14    charge:   14.3919    magn:   -1.4898    constr:    0.0000
     atom:   15    charge:   14.3913    magn:    1.4927    constr:    0.0000
     atom:   16    charge:   14.3918    magn:   -1.4958    constr:    0.0000
     atom:   17    charge:   14.3916    magn:    1.4914    constr:    0.0000
     atom:   18    charge:   14.3920    magn:   -1.4903    constr:    0.0000
     atom:   19    charge:   14.3912    magn:    1.4935    constr:    0.0000
     atom:   20    charge:   14.3917    magn:   -1.4940    constr:    0.0000
     atom:   21    charge:   14.3916    magn:    1.4918    constr:    0.0000
     atom:   22    charge:   14.3919    magn:   -1.4898    constr:    0.0000
     atom:   23    charge:   14.3912    magn:    1.4935    constr:    0.0000
     atom:   24    charge:   14.3916    magn:   -1.4946    constr:    0.0000
     atom:   25    charge:   14.3917    magn:    1.4908    constr:    0.0000
     atom:   26    charge:   14.3920    magn:   -1.4903    constr:    0.0000
     atom:   27    charge:   14.3913    magn:    1.4927    constr:    0.0000
     atom:   28    charge:   14.3916    magn:   -1.4946    constr:    0.0000
     atom:   29    charge:   14.3916    magn:    1.4909    constr:    0.0000
     atom:   30    charge:   14.3919    magn:   -1.4898    constr:    0.0000
     atom:   31    charge:   14.3913    magn:    1.4927    constr:    0.0000
     atom:   32    charge:   14.3917    magn:   -1.4940    constr:    0.0000

     total cpu time spent up to now is    19932.4 secs

     End of self-consistent calculation

     Number of k-points >= 100: set verbosity='high' to print the bands.

     the Fermi energy is    20.1186 ev

!    total energy              =  -10536.24915965 Ry
     Harris-Foulkes estimate   =  -10536.24915863 Ry
     estimated scf accuracy    <       0.00000090 Ry

     total all-electron energy =    -81457.738218 Ry

     The total energy is the sum of the following terms:

     one-electron contribution =   -3292.47375427 Ry
     hartree contribution      =    1996.56073420 Ry
     xc contribution           =    -886.95839722 Ry
     ewald contribution        =   -5703.83151797 Ry
     one-center paw contrib.   =   -2649.56062675 Ry
     smearing contrib. (-TS)   =       0.01440235 Ry

     total magnetization       =    -0.00 Bohr mag/cell
     absolute magnetization    =    49.54 Bohr mag/cell

     convergence has been achieved in  35 iterations

     Forces acting on atoms (cartesian axes, Ry/au):

     atom    1 type  1   force =     0.00000000    0.00000000    0.00000000
     atom    2 type  2   force =     0.00005957    0.00000849    0.00000245
     atom    3 type  3   force =     0.00018417   -0.00001266    0.00007289
     atom    4 type  4   force =     0.00000000   -0.00019559   -0.00013722
     atom    5 type  1   force =     0.00000000    0.00000000    0.00000000
     atom    6 type  2   force =     0.00006000   -0.00014747   -0.00008527
     atom    7 type  3   force =     0.00018417    0.00001266   -0.00007289
     atom    8 type  4   force =     0.00000000   -0.00015973    0.00012735
     atom    9 type  1   force =     0.00000000    0.00000000    0.00000000
     atom   10 type  2   force =     0.00005957   -0.00000849   -0.00000245
     atom   11 type  3   force =     0.00000840   -0.00004813   -0.00000202
     atom   12 type  4   force =     0.00000000    0.00015973   -0.00012735
     atom   13 type  1   force =     0.00000000    0.00000000    0.00000000
     atom   14 type  2   force =     0.00006000    0.00014747    0.00008527
     atom   15 type  3   force =     0.00000840    0.00004813    0.00000202
     atom   16 type  4   force =     0.00000000    0.00019559    0.00013722
     atom   17 type  1   force =     0.00000000    0.00000000    0.00000000
     atom   18 type  2   force =    -0.00005957    0.00000849    0.00000245
     atom   19 type  3   force =    -0.00018417   -0.00001266    0.00007289
     atom   20 type  4   force =     0.00000000    0.00002242    0.00001953
     atom   21 type  1   force =     0.00000000    0.00000000    0.00000000
     atom   22 type  2   force =    -0.00006000   -0.00014747   -0.00008527
     atom   23 type  3   force =    -0.00018417    0.00001266   -0.00007289
     atom   24 type  4   force =     0.00000000    0.00008628    0.00018499
     atom   25 type  1   force =     0.00000000    0.00000000    0.00000000
     atom   26 type  2   force =    -0.00005957   -0.00000849   -0.00000245
     atom   27 type  3   force =    -0.00000840   -0.00004813   -0.00000202
     atom   28 type  4   force =     0.00000000   -0.00008628   -0.00018499
     atom   29 type  1   force =     0.00000000    0.00000000    0.00000000
     atom   30 type  2   force =    -0.00006000    0.00014747    0.00008527
     atom   31 type  3   force =    -0.00000840    0.00004813    0.00000202
     atom   32 type  4   force =     0.00000000   -0.00002242   -0.00001953

     Total force =     0.000771     Total SCF correction =     0.002142
     SCF correction compared to forces is large: reduce conv_thr to get better values


     Computing stress (Cartesian axis) and pressure

          total   stress  (Ry/bohr**3)                   (kbar)     P=    0.01
  -0.00000163   0.00000000   0.00000000         -0.24      0.00      0.00
   0.00000000   0.00000071  -0.00012640          0.00      0.10    -18.59
   0.00000000  -0.00012640   0.00000119          0.00    -18.59      0.18


     Writing output data file TwQuAVOHTdaQHeoj.save/
-------------------------------------------------------
Primary job  terminated normally, but 1 process returned
a non-zero exit code.. Per user-direction, the job has been aborted.
-------------------------------------------------------
--------------------------------------------------------------------------
mpirun detected that one or more processes exited with non-zero status, thus causing
the job to be terminated. The first process to do so was:

  Process name: [[44511,1],0]
  Exit code:    38
--------------------------------------------------------------------------
