--------------------------------------------------------------------------
WARNING: There was an error initializing an OpenFabrics device.

  Local host:   bear-pg0211u36a
  Local device: mlx5_0
--------------------------------------------------------------------------

     Program PWSCF v.6.3 starts on 18Oct2020 at 22:35:50 

     This program is part of the open-source Quantum ESPRESSO suite
     for quantum simulation of materials; please cite
         "P. Giannozzi et al., J. Phys.:Condens. Matter 21 395502 (2009);
         "P. Giannozzi et al., J. Phys.:Condens. Matter 29 465901 (2017);
          URL http://www.quantum-espresso.org", 
     in publications or presentations arising from this work. More details at
     http://www.quantum-espresso.org/quote

     Parallel version (MPI & OpenMP), running on      40 processor cores
     Number of MPI processes:                40
     Threads/MPI process:                     1

     MPI processes distributed on     1 nodes
     R & G space division:  proc/nbgrp/npool/nimage =      40
     Reading input from wd/ec/ec_7_004.in
Warning: card &IONS ignored
Warning: card ION_DYNAMICS = 'BFGS', ignored
Warning: card / ignored
Warning: card &CELL ignored
Warning: card CELL_DYNAMICS = 'BFGS', ignored
Warning: card CELL_FACTOR = 2.0, ignored
Warning: card PRESS = 0.0, ignored
Warning: card / ignored

     Current dimensions of program PWSCF are:
     Max number of different atomic species (ntypx) = 10
     Max number of k-points (npk) =  40000
     Max angular momentum in pseudopotentials (lmaxx) =  3
               file Fe.pbe-spn-kjpaw_psl.1.0.0.UPF: wavefunction(s)  3P 3D renormalized
               file Fe.pbe-spn-kjpaw_psl.1.0.0.UPF: wavefunction(s)  3P 3D renormalized
               file Fe.pbe-spn-kjpaw_psl.1.0.0.UPF: wavefunction(s)  3P 3D renormalized
               file Fe.pbe-spn-kjpaw_psl.1.0.0.UPF: wavefunction(s)  3P 3D renormalized

     Subspace diagonalization in iterative solution of the eigenvalue problem:
     a serial algorithm will be used

     Found symmetry operation: I + (  0.0000  0.0000 -0.5000)
     This is a supercell, fractional translations are disabled
 
     Parallelization info
     --------------------
     sticks:   dense  smooth     PW     G-vecs:    dense   smooth      PW
     Min         150      99     27                 8594     4611     663
     Max         151     100     28                 8599     4618     668
     Sum        6033    3993   1103               343845   184585   26595
 


     bravais-lattice index     =            0
     lattice parameter (alat)  =      12.9382  a.u.
     unit-cell volume          =    2283.7593 (a.u.)^3
     number of atoms/cell      =           32
     number of atomic types    =            4
     number of electrons       =       512.00
     number of Kohn-Sham states=          307
     kinetic-energy cutoff     =      71.0000  Ry
     charge density cutoff     =     430.0000  Ry
     convergence threshold     =      1.0E-06
     mixing beta               =       0.1000
     number of iterations used =           10  plain     mixing
     Exchange-correlation      = SLA PW PBX PBC ( 1  4  3  4 0 0)

     celldm(1)=  12.938187  celldm(2)=   0.000000  celldm(3)=   0.000000
     celldm(4)=   0.000000  celldm(5)=   0.000000  celldm(6)=   0.000000

     crystal axes: (cart. coord. in units of alat)
               a(1) = (   1.005008   0.000000   0.000000 )  
               a(2) = (   0.000000   1.049210   0.000000 )  
               a(3) = (   0.000000   0.000000   0.999995 )  

     reciprocal axes: (cart. coord. in units 2 pi/alat)
               b(1) = (  0.995017  0.000000  0.000000 )  
               b(2) = (  0.000000  0.953098  0.000000 )  
               b(3) = (  0.000000  0.000000  1.000005 )  


     PseudoPot. # 1 for Fe read from file:
     /rds/homes/b/bxp912/pp/Fe.pbe-spn-kjpaw_psl.1.0.0.UPF
     MD5 check sum: 42f43b795421b414b0dc916aa790dbcb
     Pseudo is Projector augmented-wave + core cor, Zval = 16.0
     Generated using "atomic" code by A. Dal Corso v.6.3
     Shape of augmentation charge: PSQ
     Using radial grid of 1191 points,  6 beta functions with: 
                l(1) =   0
                l(2) =   0
                l(3) =   1
                l(4) =   1
                l(5) =   2
                l(6) =   2
     Q(r) pseudized with 0 coefficients 


     PseudoPot. # 2 for Fe read from file:
     /rds/homes/b/bxp912/pp/Fe.pbe-spn-kjpaw_psl.1.0.0.UPF
     MD5 check sum: 42f43b795421b414b0dc916aa790dbcb
     Pseudo is Projector augmented-wave + core cor, Zval = 16.0
     Generated using "atomic" code by A. Dal Corso v.6.3
     Shape of augmentation charge: PSQ
     Using radial grid of 1191 points,  6 beta functions with: 
                l(1) =   0
                l(2) =   0
                l(3) =   1
                l(4) =   1
                l(5) =   2
                l(6) =   2
     Q(r) pseudized with 0 coefficients 


     PseudoPot. # 3 for Fe read from file:
     /rds/homes/b/bxp912/pp/Fe.pbe-spn-kjpaw_psl.1.0.0.UPF
     MD5 check sum: 42f43b795421b414b0dc916aa790dbcb
     Pseudo is Projector augmented-wave + core cor, Zval = 16.0
     Generated using "atomic" code by A. Dal Corso v.6.3
     Shape of augmentation charge: PSQ
     Using radial grid of 1191 points,  6 beta functions with: 
                l(1) =   0
                l(2) =   0
                l(3) =   1
                l(4) =   1
                l(5) =   2
                l(6) =   2
     Q(r) pseudized with 0 coefficients 


     PseudoPot. # 4 for Fe read from file:
     /rds/homes/b/bxp912/pp/Fe.pbe-spn-kjpaw_psl.1.0.0.UPF
     MD5 check sum: 42f43b795421b414b0dc916aa790dbcb
     Pseudo is Projector augmented-wave + core cor, Zval = 16.0
     Generated using "atomic" code by A. Dal Corso v.6.3
     Shape of augmentation charge: PSQ
     Using radial grid of 1191 points,  6 beta functions with: 
                l(1) =   0
                l(2) =   0
                l(3) =   1
                l(4) =   1
                l(5) =   2
                l(6) =   2
     Q(r) pseudized with 0 coefficients 


     atomic species   valence    mass     pseudopotential
        Fe1           16.00    55.84500     Fe( 1.00)
        Fe2           16.00    55.84500     Fe( 1.00)
        Fe3           16.00    55.84500     Fe( 1.00)
        Fe4           16.00    55.84500     Fe( 1.00)

     Starting magnetic structure 
     atomic species   magnetization
        Fe1          0.100
        Fe2         -0.100
        Fe3          0.100
        Fe4         -0.100

      8 Sym. Ops., with inversion, found



   Cartesian axes

     site n.     atom                  positions (alat units)
         1           Fe1 tau(   1) = (   0.0000000   0.0000000   0.0000000  )
         2           Fe2 tau(   2) = (   0.2512489   0.2623052   0.0000000  )
         3           Fe3 tau(   3) = (   0.2512502   0.0000000   0.2499968  )
         4           Fe4 tau(   4) = (   0.0000000   0.2623038   0.2500028  )
         5           Fe1 tau(   5) = (   0.0000000   0.0000000   0.4999977  )
         6           Fe2 tau(   6) = (   0.2512517   0.2623079   0.4999977  )
         7           Fe3 tau(   7) = (   0.2512502   0.0000000   0.7499975  )
         8           Fe4 tau(   8) = (   0.0000000   0.2623038   0.7499915  )
         9           Fe1 tau(   9) = (   0.0000000   0.5246051   0.0000000  )
        10           Fe2 tau(  10) = (   0.2512489   0.7869052   0.0000000  )
        11           Fe3 tau(  11) = (   0.2512524   0.5246051   0.2500008  )
        12           Fe4 tau(  12) = (   0.0000000   0.7869066   0.2500028  )
        13           Fe1 tau(  13) = (   0.0000000   0.5246051   0.4999977  )
        14           Fe2 tau(  14) = (   0.2512517   0.7869024   0.4999977  )
        15           Fe3 tau(  15) = (   0.2512524   0.5246051   0.7499945  )
        16           Fe4 tau(  16) = (   0.0000000   0.7869066   0.7499915  )
        17           Fe1 tau(  17) = (   0.5025040   0.0000000   0.0000000  )
        18           Fe2 tau(  18) = (   0.7537589   0.2623052   0.0000000  )
        19           Fe3 tau(  19) = (   0.7537577   0.0000000   0.2499968  )
        20           Fe4 tau(  20) = (   0.5025040   0.2623028   0.2500008  )
        21           Fe1 tau(  21) = (   0.5025040   0.0000000   0.4999977  )
        22           Fe2 tau(  22) = (   0.7537561   0.2623079   0.4999977  )
        23           Fe3 tau(  23) = (   0.7537577   0.0000000   0.7499975  )
        24           Fe4 tau(  24) = (   0.5025040   0.2623028   0.7499935  )
        25           Fe1 tau(  25) = (   0.5025040   0.5246051   0.0000000  )
        26           Fe2 tau(  26) = (   0.7537589   0.7869052   0.0000000  )
        27           Fe3 tau(  27) = (   0.7537555   0.5246051   0.2500008  )
        28           Fe4 tau(  28) = (   0.5025040   0.7869076   0.2500008  )
        29           Fe1 tau(  29) = (   0.5025040   0.5246051   0.4999977  )
        30           Fe2 tau(  30) = (   0.7537561   0.7869024   0.4999977  )
        31           Fe3 tau(  31) = (   0.7537555   0.5246051   0.7499945  )
        32           Fe4 tau(  32) = (   0.5025040   0.7869076   0.7499935  )

     number of k points=   125  Marzari-Vanderbilt smearing, width (Ry)=  0.0400

     Number of k-points >= 100: set verbosity='high' to print them.

     Dense  grid:   343845 G-vectors     FFT dimensions: (  90,  90,  90)

     Smooth grid:   184585 G-vectors     FFT dimensions: (  72,  75,  72)

     Estimated max dynamical RAM per process >     810.72 MB

     Estimated total dynamical RAM >      31.67 GB
     Generating pointlists ...
     new r_m :   0.1462 (alat units)  1.8916 (a.u.) for type    1
     new r_m :   0.1462 (alat units)  1.8916 (a.u.) for type    2
     new r_m :   0.1462 (alat units)  1.8916 (a.u.) for type    3
     new r_m :   0.1462 (alat units)  1.8916 (a.u.) for type    4

     Check: negative/imaginary core charge=   -0.000006    0.000000

     Initial potential from superposition of free atoms

     starting charge  511.98600, renormalised to  512.00000
     Starting wfcs are  320 randomized atomic wfcs
     Checking if some PAW data can be deallocated... 

     total cpu time spent up to now is       85.5 secs

     Self-consistent Calculation

     iteration #  1     ecut=    71.00 Ry     beta= 0.10
     Davidson diagonalization with overlap
     ethr =  1.00E-02,  avg # of iterations =  3.5

     Threshold (ethr) on eigenvalues was too large:
     Diagonalizing with lowered threshold

     Davidson diagonalization with overlap
     ethr =  3.20E-04,  avg # of iterations =  3.9

     total cpu time spent up to now is     1034.1 secs

     total energy              =  -10536.43541742 Ry
     Harris-Foulkes estimate   =  -10536.77838889 Ry
     estimated scf accuracy    <       1.88949253 Ry

     total magnetization       =     0.24 Bohr mag/cell
     absolute magnetization    =    43.98 Bohr mag/cell

     iteration #  2     ecut=    71.00 Ry     beta= 0.10
     Davidson diagonalization with overlap
     ethr =  3.69E-04,  avg # of iterations =  1.0

     total cpu time spent up to now is     1263.6 secs

     total energy              =  -10536.21451737 Ry
     Harris-Foulkes estimate   =  -10536.48117140 Ry
     estimated scf accuracy    <       1.11950630 Ry

     total magnetization       =    -0.12 Bohr mag/cell
     absolute magnetization    =    44.68 Bohr mag/cell

     iteration #  3     ecut=    71.00 Ry     beta= 0.10
     Davidson diagonalization with overlap
     ethr =  2.19E-04,  avg # of iterations =  2.2

     total cpu time spent up to now is     1584.1 secs

     total energy              =  -10536.07982690 Ry
     Harris-Foulkes estimate   =  -10536.35483559 Ry
     estimated scf accuracy    <       2.72531979 Ry

     total magnetization       =     0.25 Bohr mag/cell
     absolute magnetization    =    45.04 Bohr mag/cell

     iteration #  4     ecut=    71.00 Ry     beta= 0.10
     Davidson diagonalization with overlap
     ethr =  2.19E-04,  avg # of iterations =  2.4

     total cpu time spent up to now is     1910.1 secs

     total energy              =  -10536.18213999 Ry
     Harris-Foulkes estimate   =  -10536.21367667 Ry
     estimated scf accuracy    <       0.52015758 Ry

     total magnetization       =     0.36 Bohr mag/cell
     absolute magnetization    =    46.03 Bohr mag/cell

     iteration #  5     ecut=    71.00 Ry     beta= 0.10
     Davidson diagonalization with overlap
     ethr =  1.02E-04,  avg # of iterations =  1.4

     total cpu time spent up to now is     2175.0 secs

     total energy              =  -10536.19318768 Ry
     Harris-Foulkes estimate   =  -10536.20176311 Ry
     estimated scf accuracy    <       0.08312700 Ry

     total magnetization       =     0.03 Bohr mag/cell
     absolute magnetization    =    46.15 Bohr mag/cell

     iteration #  6     ecut=    71.00 Ry     beta= 0.10
     Davidson diagonalization with overlap
     ethr =  1.62E-05,  avg # of iterations =  3.5

     total cpu time spent up to now is     2572.8 secs

     total energy              =  -10536.18325926 Ry
     Harris-Foulkes estimate   =  -10536.19651463 Ry
     estimated scf accuracy    <       0.06894627 Ry

     total magnetization       =    -0.10 Bohr mag/cell
     absolute magnetization    =    46.10 Bohr mag/cell

     iteration #  7     ecut=    71.00 Ry     beta= 0.10
     Davidson diagonalization with overlap
     ethr =  1.35E-05,  avg # of iterations =  3.7

     total cpu time spent up to now is     3129.7 secs

     total energy              =  -10536.20017094 Ry
     Harris-Foulkes estimate   =  -10536.20260315 Ry
     estimated scf accuracy    <       0.09661862 Ry

     total magnetization       =     0.04 Bohr mag/cell
     absolute magnetization    =    46.19 Bohr mag/cell

     iteration #  8     ecut=    71.00 Ry     beta= 0.10
     Davidson diagonalization with overlap
     ethr =  1.35E-05,  avg # of iterations =  2.0

     total cpu time spent up to now is     3437.5 secs

     total energy              =  -10536.20077781 Ry
     Harris-Foulkes estimate   =  -10536.20429765 Ry
     estimated scf accuracy    <       0.07271973 Ry

     total magnetization       =     0.06 Bohr mag/cell
     absolute magnetization    =    46.40 Bohr mag/cell

     iteration #  9     ecut=    71.00 Ry     beta= 0.10
     Davidson diagonalization with overlap
     ethr =  1.35E-05,  avg # of iterations =  1.0

     total cpu time spent up to now is     3673.0 secs

     total energy              =  -10536.20957801 Ry
     Harris-Foulkes estimate   =  -10536.20223473 Ry
     estimated scf accuracy    <       0.03828082 Ry

     total magnetization       =     0.02 Bohr mag/cell
     absolute magnetization    =    46.54 Bohr mag/cell

     iteration # 10     ecut=    71.00 Ry     beta= 0.10
     Davidson diagonalization with overlap
     ethr =  7.48E-06,  avg # of iterations =  2.4

     total cpu time spent up to now is     4004.4 secs

     total energy              =  -10536.23294420 Ry
     Harris-Foulkes estimate   =  -10536.21160140 Ry
     estimated scf accuracy    <       0.03159429 Ry

     total magnetization       =    -0.07 Bohr mag/cell
     absolute magnetization    =    46.78 Bohr mag/cell

     iteration # 11     ecut=    71.00 Ry     beta= 0.10
     Davidson diagonalization with overlap
     ethr =  6.17E-06,  avg # of iterations =  3.8

     total cpu time spent up to now is     4570.0 secs

     total energy              =  -10536.24707868 Ry
     Harris-Foulkes estimate   =  -10536.24456890 Ry
     estimated scf accuracy    <       0.02882233 Ry

     total magnetization       =    -0.13 Bohr mag/cell
     absolute magnetization    =    47.51 Bohr mag/cell

     iteration # 12     ecut=    71.00 Ry     beta= 0.10
     Davidson diagonalization with overlap
     ethr =  5.63E-06,  avg # of iterations =  1.0

     total cpu time spent up to now is     4806.7 secs

     total energy              =  -10536.24759578 Ry
     Harris-Foulkes estimate   =  -10536.24819670 Ry
     estimated scf accuracy    <       0.01847794 Ry

     total magnetization       =    -0.07 Bohr mag/cell
     absolute magnetization    =    47.69 Bohr mag/cell

     iteration # 13     ecut=    71.00 Ry     beta= 0.10
     Davidson diagonalization with overlap
     ethr =  3.61E-06,  avg # of iterations =  2.0

     total cpu time spent up to now is     5116.7 secs

     total energy              =  -10536.24855687 Ry
     Harris-Foulkes estimate   =  -10536.24856857 Ry
     estimated scf accuracy    <       0.00273356 Ry

     total magnetization       =    -0.02 Bohr mag/cell
     absolute magnetization    =    47.85 Bohr mag/cell

     iteration # 14     ecut=    71.00 Ry     beta= 0.10
     Davidson diagonalization with overlap
     ethr =  5.34E-07,  avg # of iterations =  3.1

     total cpu time spent up to now is     5509.5 secs

     total energy              =  -10536.24878942 Ry
     Harris-Foulkes estimate   =  -10536.24873243 Ry
     estimated scf accuracy    <       0.00114477 Ry

     total magnetization       =    -0.02 Bohr mag/cell
     absolute magnetization    =    47.89 Bohr mag/cell

     iteration # 15     ecut=    71.00 Ry     beta= 0.10
     Davidson diagonalization with overlap
     ethr =  2.24E-07,  avg # of iterations =  1.1

     total cpu time spent up to now is     5751.3 secs

     total energy              =  -10536.24896291 Ry
     Harris-Foulkes estimate   =  -10536.24882806 Ry
     estimated scf accuracy    <       0.00078392 Ry

     total magnetization       =    -0.01 Bohr mag/cell
     absolute magnetization    =    47.97 Bohr mag/cell

     iteration # 16     ecut=    71.00 Ry     beta= 0.10
     Davidson diagonalization with overlap
     ethr =  1.53E-07,  avg # of iterations =  1.9

     total cpu time spent up to now is     6048.4 secs

     total energy              =  -10536.24904757 Ry
     Harris-Foulkes estimate   =  -10536.24901782 Ry
     estimated scf accuracy    <       0.00069678 Ry

     total magnetization       =    -0.00 Bohr mag/cell
     absolute magnetization    =    48.07 Bohr mag/cell

     iteration # 17     ecut=    71.00 Ry     beta= 0.10
     Davidson diagonalization with overlap
     ethr =  1.36E-07,  avg # of iterations =  1.2

     total cpu time spent up to now is     6295.7 secs

     total energy              =  -10536.24911404 Ry
     Harris-Foulkes estimate   =  -10536.24908287 Ry
     estimated scf accuracy    <       0.00052782 Ry

     total magnetization       =    -0.03 Bohr mag/cell
     absolute magnetization    =    48.11 Bohr mag/cell

     iteration # 18     ecut=    71.00 Ry     beta= 0.10
     Davidson diagonalization with overlap
     ethr =  1.03E-07,  avg # of iterations =  1.8

     total cpu time spent up to now is     6587.3 secs

     total energy              =  -10536.24924121 Ry
     Harris-Foulkes estimate   =  -10536.24913744 Ry
     estimated scf accuracy    <       0.00039819 Ry

     total magnetization       =    -0.01 Bohr mag/cell
     absolute magnetization    =    48.15 Bohr mag/cell

     iteration # 19     ecut=    71.00 Ry     beta= 0.10
     Davidson diagonalization with overlap
     ethr =  7.78E-08,  avg # of iterations =  1.9

     total cpu time spent up to now is     6882.0 secs

     total energy              =  -10536.24933748 Ry
     Harris-Foulkes estimate   =  -10536.24925924 Ry
     estimated scf accuracy    <       0.00029574 Ry

     total magnetization       =    -0.01 Bohr mag/cell
     absolute magnetization    =    48.22 Bohr mag/cell

     iteration # 20     ecut=    71.00 Ry     beta= 0.10
     Davidson diagonalization with overlap
     ethr =  5.78E-08,  avg # of iterations =  2.1

     total cpu time spent up to now is     7188.0 secs

     total energy              =  -10536.24947220 Ry
     Harris-Foulkes estimate   =  -10536.24935318 Ry
     estimated scf accuracy    <       0.00038373 Ry

     total magnetization       =    -0.01 Bohr mag/cell
     absolute magnetization    =    48.28 Bohr mag/cell

     iteration # 21     ecut=    71.00 Ry     beta= 0.10
     Davidson diagonalization with overlap
     ethr =  5.78E-08,  avg # of iterations =  3.1

     total cpu time spent up to now is     7580.1 secs

     total energy              =  -10536.24952871 Ry
     Harris-Foulkes estimate   =  -10536.24953062 Ry
     estimated scf accuracy    <       0.00019291 Ry

     total magnetization       =    -0.01 Bohr mag/cell
     absolute magnetization    =    48.45 Bohr mag/cell

     iteration # 22     ecut=    71.00 Ry     beta= 0.10
     Davidson diagonalization with overlap
     ethr =  3.77E-08,  avg # of iterations =  1.0

     total cpu time spent up to now is     7815.3 secs

     total energy              =  -10536.24957842 Ry
     Harris-Foulkes estimate   =  -10536.24953895 Ry
     estimated scf accuracy    <       0.00013181 Ry

     total magnetization       =    -0.01 Bohr mag/cell
     absolute magnetization    =    48.48 Bohr mag/cell

     iteration # 23     ecut=    71.00 Ry     beta= 0.10
     Davidson diagonalization with overlap
     ethr =  2.57E-08,  avg # of iterations =  2.0

     total cpu time spent up to now is     8117.6 secs

     total energy              =  -10536.24960431 Ry
     Harris-Foulkes estimate   =  -10536.24958974 Ry
     estimated scf accuracy    <       0.00007545 Ry

     total magnetization       =    -0.01 Bohr mag/cell
     absolute magnetization    =    48.55 Bohr mag/cell

     iteration # 24     ecut=    71.00 Ry     beta= 0.10
     Davidson diagonalization with overlap
     ethr =  1.47E-08,  avg # of iterations =  2.7

     total cpu time spent up to now is     8462.5 secs

     total energy              =  -10536.24961484 Ry
     Harris-Foulkes estimate   =  -10536.24961041 Ry
     estimated scf accuracy    <       0.00010553 Ry

     total magnetization       =    -0.01 Bohr mag/cell
     absolute magnetization    =    48.60 Bohr mag/cell

     iteration # 25     ecut=    71.00 Ry     beta= 0.10
     Davidson diagonalization with overlap
     ethr =  1.47E-08,  avg # of iterations =  3.3

     total cpu time spent up to now is     8911.9 secs

     total energy              =  -10536.24963268 Ry
     Harris-Foulkes estimate   =  -10536.24964632 Ry
     estimated scf accuracy    <       0.00005754 Ry

     total magnetization       =    -0.00 Bohr mag/cell
     absolute magnetization    =    48.74 Bohr mag/cell

     iteration # 26     ecut=    71.00 Ry     beta= 0.10
     Davidson diagonalization with overlap
     ethr =  1.12E-08,  avg # of iterations =  2.5

     total cpu time spent up to now is     9241.0 secs

     total energy              =  -10536.24964078 Ry
     Harris-Foulkes estimate   =  -10536.24964046 Ry
     estimated scf accuracy    <       0.00009547 Ry

     total magnetization       =    -0.01 Bohr mag/cell
     absolute magnetization    =    48.72 Bohr mag/cell

     iteration # 27     ecut=    71.00 Ry     beta= 0.10
     Davidson diagonalization with overlap
     ethr =  1.12E-08,  avg # of iterations =  1.0

     total cpu time spent up to now is     9475.6 secs

     total energy              =  -10536.24964970 Ry
     Harris-Foulkes estimate   =  -10536.24964651 Ry
     estimated scf accuracy    <       0.00001983 Ry

     total magnetization       =    -0.01 Bohr mag/cell
     absolute magnetization    =    48.77 Bohr mag/cell

     iteration # 28     ecut=    71.00 Ry     beta= 0.10
     Davidson diagonalization with overlap
     ethr =  3.87E-09,  avg # of iterations =  1.7

     total cpu time spent up to now is     9751.2 secs

     total energy              =  -10536.24965613 Ry
     Harris-Foulkes estimate   =  -10536.24965064 Ry
     estimated scf accuracy    <       0.00001727 Ry

     total magnetization       =    -0.00 Bohr mag/cell
     absolute magnetization    =    48.79 Bohr mag/cell

     iteration # 29     ecut=    71.00 Ry     beta= 0.10
     Davidson diagonalization with overlap
     ethr =  3.37E-09,  avg # of iterations =  1.9

     total cpu time spent up to now is    10051.5 secs

     total energy              =  -10536.24965929 Ry
     Harris-Foulkes estimate   =  -10536.24965718 Ry
     estimated scf accuracy    <       0.00001300 Ry

     total magnetization       =    -0.00 Bohr mag/cell
     absolute magnetization    =    48.81 Bohr mag/cell

     iteration # 30     ecut=    71.00 Ry     beta= 0.10
     Davidson diagonalization with overlap
     ethr =  2.54E-09,  avg # of iterations =  1.8

     total cpu time spent up to now is    10342.4 secs

     total energy              =  -10536.24966174 Ry
     Harris-Foulkes estimate   =  -10536.24965989 Ry
     estimated scf accuracy    <       0.00001133 Ry

     total magnetization       =    -0.00 Bohr mag/cell
     absolute magnetization    =    48.82 Bohr mag/cell

     iteration # 31     ecut=    71.00 Ry     beta= 0.10
     Davidson diagonalization with overlap
     ethr =  2.21E-09,  avg # of iterations =  2.2

     total cpu time spent up to now is    10661.4 secs

     total energy              =  -10536.24966354 Ry
     Harris-Foulkes estimate   =  -10536.24966250 Ry
     estimated scf accuracy    <       0.00000871 Ry

     total magnetization       =    -0.00 Bohr mag/cell
     absolute magnetization    =    48.84 Bohr mag/cell

     iteration # 32     ecut=    71.00 Ry     beta= 0.10
     Davidson diagonalization with overlap
     ethr =  1.70E-09,  avg # of iterations =  2.8

     total cpu time spent up to now is    11030.2 secs

     total energy              =  -10536.24966489 Ry
     Harris-Foulkes estimate   =  -10536.24966435 Ry
     estimated scf accuracy    <       0.00000624 Ry

     total magnetization       =    -0.00 Bohr mag/cell
     absolute magnetization    =    48.86 Bohr mag/cell

     iteration # 33     ecut=    71.00 Ry     beta= 0.10
     Davidson diagonalization with overlap
     ethr =  1.22E-09,  avg # of iterations =  1.0

     total cpu time spent up to now is    11266.0 secs

     total energy              =  -10536.24966508 Ry
     Harris-Foulkes estimate   =  -10536.24966507 Ry
     estimated scf accuracy    <       0.00000588 Ry

     total magnetization       =    -0.00 Bohr mag/cell
     absolute magnetization    =    48.86 Bohr mag/cell

     iteration # 34     ecut=    71.00 Ry     beta= 0.10
     Davidson diagonalization with overlap
     ethr =  1.15E-09,  avg # of iterations =  3.0

     total cpu time spent up to now is    11666.5 secs

     total energy              =  -10536.24966711 Ry
     Harris-Foulkes estimate   =  -10536.24966666 Ry
     estimated scf accuracy    <       0.00000278 Ry

     total magnetization       =    -0.00 Bohr mag/cell
     absolute magnetization    =    48.90 Bohr mag/cell

     iteration # 35     ecut=    71.00 Ry     beta= 0.10
     Davidson diagonalization with overlap
     ethr =  5.44E-10,  avg # of iterations =  1.4

     total cpu time spent up to now is    11929.7 secs

     total energy              =  -10536.24966745 Ry
     Harris-Foulkes estimate   =  -10536.24966731 Ry
     estimated scf accuracy    <       0.00000278 Ry

     total magnetization       =    -0.00 Bohr mag/cell
     absolute magnetization    =    48.91 Bohr mag/cell

     iteration # 36     ecut=    71.00 Ry     beta= 0.10
     Davidson diagonalization with overlap
     ethr =  5.43E-10,  avg # of iterations =  2.7

     total cpu time spent up to now is    12281.5 secs

     total energy              =  -10536.24966783 Ry
     Harris-Foulkes estimate   =  -10536.24966775 Ry
     estimated scf accuracy    <       0.00000268 Ry

     total magnetization       =    -0.00 Bohr mag/cell
     absolute magnetization    =    48.93 Bohr mag/cell

     iteration # 37     ecut=    71.00 Ry     beta= 0.10
     Davidson diagonalization with overlap
     ethr =  5.24E-10,  avg # of iterations =  1.0

     total cpu time spent up to now is    12511.9 secs

     total energy              =  -10536.24966848 Ry
     Harris-Foulkes estimate   =  -10536.24966800 Ry
     estimated scf accuracy    <       0.00000325 Ry

     total magnetization       =    -0.00 Bohr mag/cell
     absolute magnetization    =    48.92 Bohr mag/cell

     iteration # 38     ecut=    71.00 Ry     beta= 0.10
     Davidson diagonalization with overlap
     ethr =  5.24E-10,  avg # of iterations =  2.4
 
     Magnetic moment per site:
     atom:    1    charge:   14.4074    magn:    1.4733    constr:    0.0000
     atom:    2    charge:   14.4073    magn:   -1.4732    constr:    0.0000
     atom:    3    charge:   14.4066    magn:    1.4759    constr:    0.0000
     atom:    4    charge:   14.4072    magn:   -1.4774    constr:    0.0000
     atom:    5    charge:   14.4073    magn:    1.4739    constr:    0.0000
     atom:    6    charge:   14.4074    magn:   -1.4726    constr:    0.0000
     atom:    7    charge:   14.4066    magn:    1.4759    constr:    0.0000
     atom:    8    charge:   14.4072    magn:   -1.4774    constr:    0.0000
     atom:    9    charge:   14.4073    magn:    1.4741    constr:    0.0000
     atom:   10    charge:   14.4073    magn:   -1.4732    constr:    0.0000
     atom:   11    charge:   14.4066    magn:    1.4754    constr:    0.0000
     atom:   12    charge:   14.4072    magn:   -1.4774    constr:    0.0000
     atom:   13    charge:   14.4074    magn:    1.4745    constr:    0.0000
     atom:   14    charge:   14.4074    magn:   -1.4726    constr:    0.0000
     atom:   15    charge:   14.4066    magn:    1.4754    constr:    0.0000
     atom:   16    charge:   14.4072    magn:   -1.4774    constr:    0.0000
     atom:   17    charge:   14.4073    magn:    1.4746    constr:    0.0000
     atom:   18    charge:   14.4073    magn:   -1.4732    constr:    0.0000
     atom:   19    charge:   14.4066    magn:    1.4759    constr:    0.0000
     atom:   20    charge:   14.4073    magn:   -1.4767    constr:    0.0000
     atom:   21    charge:   14.4077    magn:    1.4747    constr:    0.0000
     atom:   22    charge:   14.4074    magn:   -1.4726    constr:    0.0000
     atom:   23    charge:   14.4066    magn:    1.4759    constr:    0.0000
     atom:   24    charge:   14.4073    magn:   -1.4767    constr:    0.0000
     atom:   25    charge:   14.4074    magn:    1.4737    constr:    0.0000
     atom:   26    charge:   14.4073    magn:   -1.4732    constr:    0.0000
     atom:   27    charge:   14.4066    magn:    1.4754    constr:    0.0000
     atom:   28    charge:   14.4073    magn:   -1.4767    constr:    0.0000
     atom:   29    charge:   14.4074    magn:    1.4737    constr:    0.0000
     atom:   30    charge:   14.4074    magn:   -1.4726    constr:    0.0000
     atom:   31    charge:   14.4066    magn:    1.4754    constr:    0.0000
     atom:   32    charge:   14.4073    magn:   -1.4767    constr:    0.0000

     total cpu time spent up to now is    12846.5 secs

     End of self-consistent calculation

     Number of k-points >= 100: set verbosity='high' to print the bands.

     the Fermi energy is    20.1189 ev

!    total energy              =  -10536.24966907 Ry
     Harris-Foulkes estimate   =  -10536.24966881 Ry
     estimated scf accuracy    <       0.00000066 Ry

     total all-electron energy =    -81457.738727 Ry

     The total energy is the sum of the following terms:

     one-electron contribution =   -3292.16685089 Ry
     hartree contribution      =    1996.35488569 Ry
     xc contribution           =    -886.90196544 Ry
     ewald contribution        =   -5703.98213400 Ry
     one-center paw contrib.   =   -2649.56222811 Ry
     smearing contrib. (-TS)   =       0.00862369 Ry

     total magnetization       =    -0.00 Bohr mag/cell
     absolute magnetization    =    48.93 Bohr mag/cell

     convergence has been achieved in  38 iterations

     Forces acting on atoms (cartesian axes, Ry/au):

     atom    1 type  1   force =     0.00000000    0.00000000    0.00000000
     atom    2 type  2   force =     0.00002104    0.00002746    0.00000000
     atom    3 type  3   force =     0.00001753   -0.00000000   -0.00001884
     atom    4 type  4   force =     0.00000000    0.00001740   -0.00003861
     atom    5 type  1   force =     0.00000000    0.00000000    0.00000000
     atom    6 type  2   force =     0.00001011    0.00002620    0.00000000
     atom    7 type  3   force =     0.00001753    0.00000000    0.00001884
     atom    8 type  4   force =     0.00000000    0.00001740    0.00003861
     atom    9 type  1   force =     0.00000000    0.00000000    0.00000000
     atom   10 type  2   force =     0.00002104   -0.00002746    0.00000000
     atom   11 type  3   force =     0.00000852    0.00000000   -0.00002487
     atom   12 type  4   force =     0.00000000   -0.00001740   -0.00003861
     atom   13 type  1   force =     0.00000000    0.00000000    0.00000000
     atom   14 type  2   force =     0.00001011   -0.00002620    0.00000000
     atom   15 type  3   force =     0.00000852   -0.00000000    0.00002487
     atom   16 type  4   force =     0.00000000   -0.00001740    0.00003861
     atom   17 type  1   force =     0.00000000    0.00000000    0.00000000
     atom   18 type  2   force =    -0.00002104    0.00002746    0.00000000
     atom   19 type  3   force =    -0.00001753    0.00000000   -0.00001884
     atom   20 type  4   force =     0.00000000    0.00003467   -0.00004672
     atom   21 type  1   force =     0.00000000    0.00000000    0.00000000
     atom   22 type  2   force =    -0.00001011    0.00002620    0.00000000
     atom   23 type  3   force =    -0.00001753   -0.00000000    0.00001884
     atom   24 type  4   force =     0.00000000    0.00003467    0.00004672
     atom   25 type  1   force =     0.00000000    0.00000000    0.00000000
     atom   26 type  2   force =    -0.00002104   -0.00002746    0.00000000
     atom   27 type  3   force =    -0.00000852   -0.00000000   -0.00002487
     atom   28 type  4   force =     0.00000000   -0.00003467   -0.00004672
     atom   29 type  1   force =     0.00000000    0.00000000    0.00000000
     atom   30 type  2   force =    -0.00001011   -0.00002620    0.00000000
     atom   31 type  3   force =    -0.00000852    0.00000000    0.00002487
     atom   32 type  4   force =     0.00000000   -0.00003467    0.00004672

     Total force =     0.000185     Total SCF correction =     0.003447
     SCF correction compared to forces is large: reduce conv_thr to get better values


     Computing stress (Cartesian axis) and pressure

          total   stress  (Ry/bohr**3)                   (kbar)     P=   -3.67
  -0.00008688   0.00000000   0.00000000        -12.78      0.00      0.00
   0.00000000   0.00005446   0.00000000          0.00      8.01      0.00
   0.00000000   0.00000000  -0.00004238          0.00      0.00     -6.23


     Writing output data file hxbduSrfgclKCgnt.save/
-------------------------------------------------------
Primary job  terminated normally, but 1 process returned
a non-zero exit code.. Per user-direction, the job has been aborted.
-------------------------------------------------------
--------------------------------------------------------------------------
mpirun detected that one or more processes exited with non-zero status, thus causing
the job to be terminated. The first process to do so was:

  Process name: [[64241,1],0]
  Exit code:    38
--------------------------------------------------------------------------
