--------------------------------------------------------------------------
WARNING: No preset parameters were found for the device that Open MPI
detected:

  Local host:            bear-pg0206u26a
  Device name:           mlx5_0
  Device vendor ID:      0x02c9
  Device vendor part ID: 4123

Default device parameters will be used, which may result in lower
performance.  You can edit any of the files specified by the
btl_openib_device_param_files MCA parameter to set values for your
device.

NOTE: You can turn off this warning by setting the MCA parameter
      btl_openib_warn_no_device_params_found to 0.
--------------------------------------------------------------------------
--------------------------------------------------------------------------
WARNING: There was an error initializing an OpenFabrics device.

  Local host:   bear-pg0206u26a
  Local device: mlx5_0
--------------------------------------------------------------------------

     Program PWSCF v.6.3 starts on  2Nov2020 at  7:55:24 

     This program is part of the open-source Quantum ESPRESSO suite
     for quantum simulation of materials; please cite
         "P. Giannozzi et al., J. Phys.:Condens. Matter 21 395502 (2009);
         "P. Giannozzi et al., J. Phys.:Condens. Matter 29 465901 (2017);
          URL http://www.quantum-espresso.org", 
     in publications or presentations arising from this work. More details at
     http://www.quantum-espresso.org/quote

     Parallel version (MPI & OpenMP), running on      40 processor cores
     Number of MPI processes:                40
     Threads/MPI process:                     1

     MPI processes distributed on     1 nodes
     R & G space division:  proc/nbgrp/npool/nimage =      40
     Reading input from wd/ec/ec_3_005.in
Warning: card &IONS ignored
Warning: card ION_DYNAMICS = 'BFGS', ignored
Warning: card / ignored
Warning: card &CELL ignored
Warning: card CELL_DYNAMICS = 'BFGS', ignored
Warning: card CELL_FACTOR = 2.0, ignored
Warning: card PRESS = 0.0, ignored
Warning: card / ignored

     Current dimensions of program PWSCF are:
     Max number of different atomic species (ntypx) = 10
     Max number of k-points (npk) =  40000
     Max angular momentum in pseudopotentials (lmaxx) =  3
               file Fe.pbe-spn-kjpaw_psl.1.0.0.UPF: wavefunction(s)  3P 3D renormalized
               file Fe.pbe-spn-kjpaw_psl.1.0.0.UPF: wavefunction(s)  3P 3D renormalized

     Subspace diagonalization in iterative solution of the eigenvalue problem:
     a serial algorithm will be used

     Found symmetry operation: I + (  0.0000  0.0000 -0.5000)
     This is a supercell, fractional translations are disabled
 
     Parallelization info
     --------------------
     sticks:   dense  smooth     PW     G-vecs:    dense   smooth      PW
     Min          95      63     17                 4483     2407     357
     Max          96      64     18                 4488     2412     362
     Sum        3833    2537    717               179407    96409   14371
 


     bravais-lattice index     =            0
     lattice parameter (alat)  =      10.5935  a.u.
     unit-cell volume          =    1192.0031 (a.u.)^3
     number of atoms/cell      =           16
     number of atomic types    =            2
     number of electrons       =       256.00
     number of Kohn-Sham states=          154
     kinetic-energy cutoff     =      71.0000  Ry
     charge density cutoff     =     430.0000  Ry
     convergence threshold     =      1.0E-06
     mixing beta               =       0.1000
     number of iterations used =           10  plain     mixing
     Exchange-correlation      = SLA PW PBX PBC ( 1  4  3  4 0 0)

     celldm(1)=  10.593520  celldm(2)=   0.000000  celldm(3)=   0.000000
     celldm(4)=   0.000000  celldm(5)=   0.000000  celldm(6)=   0.000000

     crystal axes: (cart. coord. in units of alat)
               a(1) = (   1.000000   0.000000   0.000000 )  
               a(2) = (   0.000000   1.000000   0.000000 )  
               a(3) = (   0.000000   0.000000   1.002667 )  

     reciprocal axes: (cart. coord. in units 2 pi/alat)
               b(1) = (  1.000000  0.000000  0.000000 )  
               b(2) = (  0.000000  1.000000  0.000000 )  
               b(3) = (  0.000000  0.000000  0.997340 )  


     PseudoPot. # 1 for Fe read from file:
     /rds/homes/b/bxp912/pp/Fe.pbe-spn-kjpaw_psl.1.0.0.UPF
     MD5 check sum: 42f43b795421b414b0dc916aa790dbcb
     Pseudo is Projector augmented-wave + core cor, Zval = 16.0
     Generated using "atomic" code by A. Dal Corso v.6.3
     Shape of augmentation charge: PSQ
     Using radial grid of 1191 points,  6 beta functions with: 
                l(1) =   0
                l(2) =   0
                l(3) =   1
                l(4) =   1
                l(5) =   2
                l(6) =   2
     Q(r) pseudized with 0 coefficients 


     PseudoPot. # 2 for Fe read from file:
     /rds/homes/b/bxp912/pp/Fe.pbe-spn-kjpaw_psl.1.0.0.UPF
     MD5 check sum: 42f43b795421b414b0dc916aa790dbcb
     Pseudo is Projector augmented-wave + core cor, Zval = 16.0
     Generated using "atomic" code by A. Dal Corso v.6.3
     Shape of augmentation charge: PSQ
     Using radial grid of 1191 points,  6 beta functions with: 
                l(1) =   0
                l(2) =   0
                l(3) =   1
                l(4) =   1
                l(5) =   2
                l(6) =   2
     Q(r) pseudized with 0 coefficients 


     atomic species   valence    mass     pseudopotential
        Fe1           16.00    55.84500     Fe( 1.00)
        Fe2           16.00    55.84500     Fe( 1.00)

     Starting magnetic structure 
     atomic species   magnetization
        Fe1          0.100
        Fe2          0.100

     16 Sym. Ops., with inversion, found



   Cartesian axes

     site n.     atom                  positions (alat units)
         1           Fe1 tau(   1) = (   0.0000000   0.0000000   0.0000000  )
         2           Fe2 tau(   2) = (   0.2500004   0.2500004   0.2506671  )
         3           Fe1 tau(   3) = (   0.0000000   0.0000000   0.5013333  )
         4           Fe2 tau(   4) = (   0.2500004   0.2500004   0.7519996  )
         5           Fe1 tau(   5) = (   0.0000000   0.5000000   0.0000000  )
         6           Fe2 tau(   6) = (   0.2500004   0.7499996   0.2506671  )
         7           Fe1 tau(   7) = (   0.0000000   0.5000000   0.5013333  )
         8           Fe2 tau(   8) = (   0.2500004   0.7499996   0.7519996  )
         9           Fe1 tau(   9) = (   0.5000000   0.0000000   0.0000000  )
        10           Fe2 tau(  10) = (   0.7499996   0.2500004   0.2506671  )
        11           Fe1 tau(  11) = (   0.5000000   0.0000000   0.5013333  )
        12           Fe2 tau(  12) = (   0.7499996   0.2500004   0.7519996  )
        13           Fe1 tau(  13) = (   0.5000000   0.5000000   0.0000000  )
        14           Fe2 tau(  14) = (   0.7499996   0.7499996   0.2506671  )
        15           Fe1 tau(  15) = (   0.5000000   0.5000000   0.5013333  )
        16           Fe2 tau(  16) = (   0.7499996   0.7499996   0.7519996  )

     number of k points=    75  Marzari-Vanderbilt smearing, width (Ry)=  0.0400
                       cart. coord. in units 2pi/alat
        k(    1) = (   0.0555556   0.0555556   0.0554078), wk =   0.0109739
        k(    2) = (   0.0555556   0.0555556   0.1662234), wk =   0.0109739
        k(    3) = (   0.0555556   0.0555556   0.2770390), wk =   0.0109739
        k(    4) = (   0.0555556   0.0555556   0.3878546), wk =   0.0109739
        k(    5) = (   0.0555556   0.0555556  -0.4986702), wk =   0.0054870
        k(    6) = (   0.0555556   0.1666667   0.0554078), wk =   0.0219479
        k(    7) = (   0.0555556   0.1666667   0.1662234), wk =   0.0219479
        k(    8) = (   0.0555556   0.1666667   0.2770390), wk =   0.0219479
        k(    9) = (   0.0555556   0.1666667   0.3878546), wk =   0.0219479
        k(   10) = (   0.0555556   0.1666667  -0.4986702), wk =   0.0109739
        k(   11) = (   0.0555556   0.2777778   0.0554078), wk =   0.0219479
        k(   12) = (   0.0555556   0.2777778   0.1662234), wk =   0.0219479
        k(   13) = (   0.0555556   0.2777778   0.2770390), wk =   0.0219479
        k(   14) = (   0.0555556   0.2777778   0.3878546), wk =   0.0219479
        k(   15) = (   0.0555556   0.2777778  -0.4986702), wk =   0.0109739
        k(   16) = (   0.0555556   0.3888889   0.0554078), wk =   0.0219479
        k(   17) = (   0.0555556   0.3888889   0.1662234), wk =   0.0219479
        k(   18) = (   0.0555556   0.3888889   0.2770390), wk =   0.0219479
        k(   19) = (   0.0555556   0.3888889   0.3878546), wk =   0.0219479
        k(   20) = (   0.0555556   0.3888889  -0.4986702), wk =   0.0109739
        k(   21) = (   0.0555556  -0.5000000   0.0554078), wk =   0.0109739
        k(   22) = (   0.0555556  -0.5000000   0.1662234), wk =   0.0109739
        k(   23) = (   0.0555556  -0.5000000   0.2770390), wk =   0.0109739
        k(   24) = (   0.0555556  -0.5000000   0.3878546), wk =   0.0109739
        k(   25) = (   0.0555556  -0.5000000  -0.4986702), wk =   0.0054870
        k(   26) = (   0.1666667   0.1666667   0.0554078), wk =   0.0109739
        k(   27) = (   0.1666667   0.1666667   0.1662234), wk =   0.0109739
        k(   28) = (   0.1666667   0.1666667   0.2770390), wk =   0.0109739
        k(   29) = (   0.1666667   0.1666667   0.3878546), wk =   0.0109739
        k(   30) = (   0.1666667   0.1666667  -0.4986702), wk =   0.0054870
        k(   31) = (   0.1666667   0.2777778   0.0554078), wk =   0.0219479
        k(   32) = (   0.1666667   0.2777778   0.1662234), wk =   0.0219479
        k(   33) = (   0.1666667   0.2777778   0.2770390), wk =   0.0219479
        k(   34) = (   0.1666667   0.2777778   0.3878546), wk =   0.0219479
        k(   35) = (   0.1666667   0.2777778  -0.4986702), wk =   0.0109739
        k(   36) = (   0.1666667   0.3888889   0.0554078), wk =   0.0219479
        k(   37) = (   0.1666667   0.3888889   0.1662234), wk =   0.0219479
        k(   38) = (   0.1666667   0.3888889   0.2770390), wk =   0.0219479
        k(   39) = (   0.1666667   0.3888889   0.3878546), wk =   0.0219479
        k(   40) = (   0.1666667   0.3888889  -0.4986702), wk =   0.0109739
        k(   41) = (   0.1666667  -0.5000000   0.0554078), wk =   0.0109739
        k(   42) = (   0.1666667  -0.5000000   0.1662234), wk =   0.0109739
        k(   43) = (   0.1666667  -0.5000000   0.2770390), wk =   0.0109739
        k(   44) = (   0.1666667  -0.5000000   0.3878546), wk =   0.0109739
        k(   45) = (   0.1666667  -0.5000000  -0.4986702), wk =   0.0054870
        k(   46) = (   0.2777778   0.2777778   0.0554078), wk =   0.0109739
        k(   47) = (   0.2777778   0.2777778   0.1662234), wk =   0.0109739
        k(   48) = (   0.2777778   0.2777778   0.2770390), wk =   0.0109739
        k(   49) = (   0.2777778   0.2777778   0.3878546), wk =   0.0109739
        k(   50) = (   0.2777778   0.2777778  -0.4986702), wk =   0.0054870
        k(   51) = (   0.2777778   0.3888889   0.0554078), wk =   0.0219479
        k(   52) = (   0.2777778   0.3888889   0.1662234), wk =   0.0219479
        k(   53) = (   0.2777778   0.3888889   0.2770390), wk =   0.0219479
        k(   54) = (   0.2777778   0.3888889   0.3878546), wk =   0.0219479
        k(   55) = (   0.2777778   0.3888889  -0.4986702), wk =   0.0109739
        k(   56) = (   0.2777778  -0.5000000   0.0554078), wk =   0.0109739
        k(   57) = (   0.2777778  -0.5000000   0.1662234), wk =   0.0109739
        k(   58) = (   0.2777778  -0.5000000   0.2770390), wk =   0.0109739
        k(   59) = (   0.2777778  -0.5000000   0.3878546), wk =   0.0109739
        k(   60) = (   0.2777778  -0.5000000  -0.4986702), wk =   0.0054870
        k(   61) = (   0.3888889   0.3888889   0.0554078), wk =   0.0109739
        k(   62) = (   0.3888889   0.3888889   0.1662234), wk =   0.0109739
        k(   63) = (   0.3888889   0.3888889   0.2770390), wk =   0.0109739
        k(   64) = (   0.3888889   0.3888889   0.3878546), wk =   0.0109739
        k(   65) = (   0.3888889   0.3888889  -0.4986702), wk =   0.0054870
        k(   66) = (   0.3888889  -0.5000000   0.0554078), wk =   0.0109739
        k(   67) = (   0.3888889  -0.5000000   0.1662234), wk =   0.0109739
        k(   68) = (   0.3888889  -0.5000000   0.2770390), wk =   0.0109739
        k(   69) = (   0.3888889  -0.5000000   0.3878546), wk =   0.0109739
        k(   70) = (   0.3888889  -0.5000000  -0.4986702), wk =   0.0054870
        k(   71) = (  -0.5000000  -0.5000000   0.0554078), wk =   0.0027435
        k(   72) = (  -0.5000000  -0.5000000   0.1662234), wk =   0.0027435
        k(   73) = (  -0.5000000  -0.5000000   0.2770390), wk =   0.0027435
        k(   74) = (  -0.5000000  -0.5000000   0.3878546), wk =   0.0027435
        k(   75) = (  -0.5000000  -0.5000000  -0.4986702), wk =   0.0013717

     Dense  grid:   179407 G-vectors     FFT dimensions: (  72,  72,  72)

     Smooth grid:    96409 G-vectors     FFT dimensions: (  60,  60,  60)

     Estimated max dynamical RAM per process >     145.28 MB

     Estimated total dynamical RAM >       5.67 GB
     Generating pointlists ...
     new r_m :   0.1788 (alat units)  1.8939 (a.u.) for type    1
     new r_m :   0.1788 (alat units)  1.8939 (a.u.) for type    2

     Check: negative/imaginary core charge=   -0.000006    0.000000

     Initial potential from superposition of free atoms

     starting charge  255.99300, renormalised to  256.00000
     Starting wfcs are  160 randomized atomic wfcs
     Checking if some PAW data can be deallocated... 

     total cpu time spent up to now is       15.5 secs

     Self-consistent Calculation

     iteration #  1     ecut=    71.00 Ry     beta= 0.10
     Davidson diagonalization with overlap
     ethr =  1.00E-02,  avg # of iterations =  3.3

     Threshold (ethr) on eigenvalues was too large:
     Diagonalizing with lowered threshold

     Davidson diagonalization with overlap
     ethr =  2.09E-04,  avg # of iterations =  3.5

     total cpu time spent up to now is      129.4 secs

     total energy              =   -5268.00817794 Ry
     Harris-Foulkes estimate   =   -5268.06940146 Ry
     estimated scf accuracy    <       0.61659960 Ry

     total magnetization       =    27.98 Bohr mag/cell
     absolute magnetization    =    28.09 Bohr mag/cell

     iteration #  2     ecut=    71.00 Ry     beta= 0.10
     Davidson diagonalization with overlap
     ethr =  2.41E-04,  avg # of iterations =  1.0

     total cpu time spent up to now is      163.1 secs

     total energy              =   -5267.97710807 Ry
     Harris-Foulkes estimate   =   -5268.02049236 Ry
     estimated scf accuracy    <       0.36088179 Ry

     total magnetization       =    28.64 Bohr mag/cell
     absolute magnetization    =    28.78 Bohr mag/cell

     iteration #  3     ecut=    71.00 Ry     beta= 0.10
     Davidson diagonalization with overlap
     ethr =  1.41E-04,  avg # of iterations =  2.9

     total cpu time spent up to now is      216.5 secs

     total energy              =   -5268.02733527 Ry
     Harris-Foulkes estimate   =   -5268.03179636 Ry
     estimated scf accuracy    <       0.40979487 Ry

     total magnetization       =    29.77 Bohr mag/cell
     absolute magnetization    =    30.07 Bohr mag/cell

     iteration #  4     ecut=    71.00 Ry     beta= 0.10
     Davidson diagonalization with overlap
     ethr =  1.41E-04,  avg # of iterations =  1.0

     total cpu time spent up to now is      249.9 secs

     total energy              =   -5268.04495108 Ry
     Harris-Foulkes estimate   =   -5268.04057187 Ry
     estimated scf accuracy    <       0.12213559 Ry

     total magnetization       =    30.18 Bohr mag/cell
     absolute magnetization    =    30.52 Bohr mag/cell

     iteration #  5     ecut=    71.00 Ry     beta= 0.10
     Davidson diagonalization with overlap
     ethr =  4.77E-05,  avg # of iterations =  1.0

     total cpu time spent up to now is      283.0 secs

     total energy              =   -5268.11413366 Ry
     Harris-Foulkes estimate   =   -5268.04666837 Ry
     estimated scf accuracy    <       0.10634235 Ry

     total magnetization       =    30.25 Bohr mag/cell
     absolute magnetization    =    30.61 Bohr mag/cell

     iteration #  6     ecut=    71.00 Ry     beta= 0.10
     Davidson diagonalization with overlap
     ethr =  4.15E-05,  avg # of iterations =  3.5

     negative rho (up, down):  0.000E+00 1.097E-03

     total cpu time spent up to now is      348.8 secs

     total energy              =   -5268.16216136 Ry
     Harris-Foulkes estimate   =   -5268.16212244 Ry
     estimated scf accuracy    <       0.20135952 Ry

     total magnetization       =    31.02 Bohr mag/cell
     absolute magnetization    =    31.79 Bohr mag/cell

     iteration #  7     ecut=    71.00 Ry     beta= 0.10
     Davidson diagonalization with overlap
     ethr =  4.15E-05,  avg # of iterations =  2.6

     negative rho (up, down):  0.000E+00 1.564E-03

     total cpu time spent up to now is      401.7 secs

     total energy              =   -5268.18193562 Ry
     Harris-Foulkes estimate   =   -5268.18390913 Ry
     estimated scf accuracy    <       0.04859325 Ry

     total magnetization       =    31.93 Bohr mag/cell
     absolute magnetization    =    33.17 Bohr mag/cell

     iteration #  8     ecut=    71.00 Ry     beta= 0.10
     Davidson diagonalization with overlap
     ethr =  1.90E-05,  avg # of iterations =  1.3

     negative rho (up, down):  0.000E+00 1.233E-03

     total cpu time spent up to now is      436.8 secs

     total energy              =   -5268.18013498 Ry
     Harris-Foulkes estimate   =   -5268.18402348 Ry
     estimated scf accuracy    <       0.02878920 Ry

     total magnetization       =    32.10 Bohr mag/cell
     absolute magnetization    =    33.37 Bohr mag/cell

     iteration #  9     ecut=    71.00 Ry     beta= 0.10
     Davidson diagonalization with overlap
     ethr =  1.12E-05,  avg # of iterations =  2.3

     negative rho (up, down):  0.000E+00 1.535E-03

     total cpu time spent up to now is      480.0 secs

     total energy              =   -5268.18411908 Ry
     Harris-Foulkes estimate   =   -5268.18144057 Ry
     estimated scf accuracy    <       0.01819774 Ry

     total magnetization       =    32.19 Bohr mag/cell
     absolute magnetization    =    33.50 Bohr mag/cell

     iteration # 10     ecut=    71.00 Ry     beta= 0.10
     Davidson diagonalization with overlap
     ethr =  7.11E-06,  avg # of iterations =  1.9

     negative rho (up, down):  0.000E+00 2.361E-03

     total cpu time spent up to now is      521.5 secs

     total energy              =   -5268.18814526 Ry
     Harris-Foulkes estimate   =   -5268.18517027 Ry
     estimated scf accuracy    <       0.00592771 Ry

     total magnetization       =    32.40 Bohr mag/cell
     absolute magnetization    =    33.81 Bohr mag/cell

     iteration # 11     ecut=    71.00 Ry     beta= 0.10
     Davidson diagonalization with overlap
     ethr =  2.32E-06,  avg # of iterations =  3.5

     negative rho (up, down):  0.000E+00 2.323E-03

     total cpu time spent up to now is      581.5 secs

     total energy              =   -5268.18953057 Ry
     Harris-Foulkes estimate   =   -5268.18947722 Ry
     estimated scf accuracy    <       0.00104592 Ry

     total magnetization       =    32.66 Bohr mag/cell
     absolute magnetization    =    34.29 Bohr mag/cell

     iteration # 12     ecut=    71.00 Ry     beta= 0.10
     Davidson diagonalization with overlap
     ethr =  4.09E-07,  avg # of iterations =  1.3

     negative rho (up, down):  0.000E+00 2.217E-03

     total cpu time spent up to now is      616.8 secs

     total energy              =   -5268.18983106 Ry
     Harris-Foulkes estimate   =   -5268.18954868 Ry
     estimated scf accuracy    <       0.00087153 Ry

     total magnetization       =    32.68 Bohr mag/cell
     absolute magnetization    =    34.31 Bohr mag/cell

     iteration # 13     ecut=    71.00 Ry     beta= 0.10
     Davidson diagonalization with overlap
     ethr =  3.40E-07,  avg # of iterations =  2.4

     negative rho (up, down):  0.000E+00 2.332E-03

     total cpu time spent up to now is      663.3 secs

     total energy              =   -5268.19015119 Ry
     Harris-Foulkes estimate   =   -5268.18995420 Ry
     estimated scf accuracy    <       0.00059124 Ry

     total magnetization       =    32.74 Bohr mag/cell
     absolute magnetization    =    34.41 Bohr mag/cell

     iteration # 14     ecut=    71.00 Ry     beta= 0.10
     Davidson diagonalization with overlap
     ethr =  2.31E-07,  avg # of iterations =  2.4

     negative rho (up, down):  0.000E+00 2.462E-03

     total cpu time spent up to now is      708.8 secs

     total energy              =   -5268.19023024 Ry
     Harris-Foulkes estimate   =   -5268.19021633 Ry
     estimated scf accuracy    <       0.00024585 Ry

     total magnetization       =    32.82 Bohr mag/cell
     absolute magnetization    =    34.53 Bohr mag/cell

     iteration # 15     ecut=    71.00 Ry     beta= 0.10
     Davidson diagonalization with overlap
     ethr =  9.60E-08,  avg # of iterations =  3.1

     negative rho (up, down):  0.000E+00 2.394E-03

     total cpu time spent up to now is      761.3 secs

     total energy              =   -5268.19030688 Ry
     Harris-Foulkes estimate   =   -5268.19026540 Ry
     estimated scf accuracy    <       0.00010136 Ry

     total magnetization       =    32.86 Bohr mag/cell
     absolute magnetization    =    34.61 Bohr mag/cell

     iteration # 16     ecut=    71.00 Ry     beta= 0.10
     Davidson diagonalization with overlap
     ethr =  3.96E-08,  avg # of iterations =  2.1

     negative rho (up, down):  0.000E+00 2.484E-03

     total cpu time spent up to now is      804.1 secs

     total energy              =   -5268.19030353 Ry
     Harris-Foulkes estimate   =   -5268.19031803 Ry
     estimated scf accuracy    <       0.00009731 Ry

     total magnetization       =    32.87 Bohr mag/cell
     absolute magnetization    =    34.62 Bohr mag/cell

     iteration # 17     ecut=    71.00 Ry     beta= 0.10
     Davidson diagonalization with overlap
     ethr =  3.80E-08,  avg # of iterations =  2.9

     negative rho (up, down):  0.000E+00 2.445E-03

     total cpu time spent up to now is      855.6 secs

     total energy              =   -5268.19034444 Ry
     Harris-Foulkes estimate   =   -5268.19031972 Ry
     estimated scf accuracy    <       0.00007446 Ry

     total magnetization       =    32.90 Bohr mag/cell
     absolute magnetization    =    34.67 Bohr mag/cell

     iteration # 18     ecut=    71.00 Ry     beta= 0.10
     Davidson diagonalization with overlap
     ethr =  2.91E-08,  avg # of iterations =  2.4

     negative rho (up, down):  0.000E+00 2.445E-03

     total cpu time spent up to now is      901.8 secs

     total energy              =   -5268.19035989 Ry
     Harris-Foulkes estimate   =   -5268.19035632 Ry
     estimated scf accuracy    <       0.00001734 Ry

     total magnetization       =    32.92 Bohr mag/cell
     absolute magnetization    =    34.70 Bohr mag/cell

     iteration # 19     ecut=    71.00 Ry     beta= 0.10
     Davidson diagonalization with overlap
     ethr =  6.77E-09,  avg # of iterations =  2.0

     negative rho (up, down):  0.000E+00 2.463E-03

     total cpu time spent up to now is      942.1 secs

     total energy              =   -5268.19036170 Ry
     Harris-Foulkes estimate   =   -5268.19036083 Ry
     estimated scf accuracy    <       0.00001150 Ry

     total magnetization       =    32.93 Bohr mag/cell
     absolute magnetization    =    34.70 Bohr mag/cell

     iteration # 20     ecut=    71.00 Ry     beta= 0.10
     Davidson diagonalization with overlap
     ethr =  4.49E-09,  avg # of iterations =  2.7

     negative rho (up, down):  0.000E+00 2.460E-03

     total cpu time spent up to now is      990.9 secs

     total energy              =   -5268.19036483 Ry
     Harris-Foulkes estimate   =   -5268.19036411 Ry
     estimated scf accuracy    <       0.00000330 Ry

     total magnetization       =    32.94 Bohr mag/cell
     absolute magnetization    =    34.72 Bohr mag/cell

     iteration # 21     ecut=    71.00 Ry     beta= 0.10
     Davidson diagonalization with overlap
     ethr =  1.29E-09,  avg # of iterations =  2.7

     negative rho (up, down):  0.000E+00 2.463E-03

     total cpu time spent up to now is     1037.3 secs

     total energy              =   -5268.19036561 Ry
     Harris-Foulkes estimate   =   -5268.19036531 Ry
     estimated scf accuracy    <       0.00000185 Ry

     total magnetization       =    32.94 Bohr mag/cell
     absolute magnetization    =    34.72 Bohr mag/cell

     iteration # 22     ecut=    71.00 Ry     beta= 0.10
     Davidson diagonalization with overlap
     ethr =  7.21E-10,  avg # of iterations =  1.1

     negative rho (up, down):  0.000E+00 2.477E-03
 
     Magnetic moment per site:
     atom:    1    charge:   14.3686    magn:    2.1026    constr:    0.0000
     atom:    2    charge:   14.3685    magn:    2.1045    constr:    0.0000
     atom:    3    charge:   14.3685    magn:    2.1038    constr:    0.0000
     atom:    4    charge:   14.3685    magn:    2.1045    constr:    0.0000
     atom:    5    charge:   14.3686    magn:    2.1029    constr:    0.0000
     atom:    6    charge:   14.3685    magn:    2.1045    constr:    0.0000
     atom:    7    charge:   14.3686    magn:    2.1037    constr:    0.0000
     atom:    8    charge:   14.3685    magn:    2.1045    constr:    0.0000
     atom:    9    charge:   14.3686    magn:    2.1029    constr:    0.0000
     atom:   10    charge:   14.3685    magn:    2.1045    constr:    0.0000
     atom:   11    charge:   14.3686    magn:    2.1037    constr:    0.0000
     atom:   12    charge:   14.3685    magn:    2.1045    constr:    0.0000
     atom:   13    charge:   14.3686    magn:    2.1031    constr:    0.0000
     atom:   14    charge:   14.3685    magn:    2.1045    constr:    0.0000
     atom:   15    charge:   14.3687    magn:    2.1040    constr:    0.0000
     atom:   16    charge:   14.3685    magn:    2.1045    constr:    0.0000

     total cpu time spent up to now is     1070.6 secs

     End of self-consistent calculation

     Number of k-points >= 100: set verbosity='high' to print the bands.

     the Fermi energy is    18.9105 ev

!    total energy              =   -5268.19036699 Ry
     Harris-Foulkes estimate   =   -5268.19036568 Ry
     estimated scf accuracy    <       0.00000075 Ry

     total all-electron energy =    -40728.934896 Ry

     The total energy is the sum of the following terms:

     one-electron contribution =   -1711.38029432 Ry
     hartree contribution      =    1023.69859838 Ry
     xc contribution           =    -444.23093825 Ry
     ewald contribution        =   -2811.73252466 Ry
     one-center paw contrib.   =   -1324.67056266 Ry
     smearing contrib. (-TS)   =       0.12535452 Ry

     total magnetization       =    32.94 Bohr mag/cell
     absolute magnetization    =    34.72 Bohr mag/cell

     convergence has been achieved in  22 iterations

     negative rho (up, down):  0.000E+00 2.477E-03

     Forces acting on atoms (cartesian axes, Ry/au):

     atom    1 type  1   force =     0.00000000    0.00000000    0.00000000
     atom    2 type  2   force =     0.00003243    0.00003243    0.00010538
     atom    3 type  1   force =     0.00000000    0.00000000    0.00000000
     atom    4 type  2   force =     0.00003243    0.00003243   -0.00010538
     atom    5 type  1   force =     0.00000000    0.00000000    0.00000000
     atom    6 type  2   force =     0.00003243   -0.00003243    0.00010538
     atom    7 type  1   force =     0.00000000    0.00000000    0.00000000
     atom    8 type  2   force =     0.00003243   -0.00003243   -0.00010538
     atom    9 type  1   force =     0.00000000    0.00000000    0.00000000
     atom   10 type  2   force =    -0.00003243    0.00003243    0.00010538
     atom   11 type  1   force =     0.00000000    0.00000000    0.00000000
     atom   12 type  2   force =    -0.00003243    0.00003243   -0.00010538
     atom   13 type  1   force =     0.00000000    0.00000000    0.00000000
     atom   14 type  2   force =    -0.00003243   -0.00003243    0.00010538
     atom   15 type  1   force =     0.00000000    0.00000000    0.00000000
     atom   16 type  2   force =    -0.00003243   -0.00003243   -0.00010538

     Total force =     0.000325     Total SCF correction =     0.004792
     SCF correction compared to forces is large: reduce conv_thr to get better values


     Computing stress (Cartesian axis) and pressure


     negative rho (up, down):  0.000E+00 2.477E-03
          total   stress  (Ry/bohr**3)                   (kbar)     P=   -8.83
  -0.00005236   0.00000000   0.00000000         -7.70      0.00      0.00
   0.00000000  -0.00005236   0.00000000          0.00     -7.70      0.00
   0.00000000   0.00000000  -0.00007540          0.00      0.00    -11.09


     Writing output data file NuNgVORgjYcIzMIe.save/
 
     init_run     :     13.50s CPU     14.08s WALL (       1 calls)
     electrons    :   1023.20s CPU   1055.09s WALL (       1 calls)
     forces       :      4.72s CPU      5.13s WALL (       1 calls)
     stress       :     14.58s CPU     14.95s WALL (       1 calls)

     Called by init_run:
     wfcinit      :     12.95s CPU     13.47s WALL (       1 calls)
     potinit      :      0.19s CPU      0.22s WALL (       1 calls)
     hinit0       :      0.18s CPU      0.19s WALL (       1 calls)

     Called by electrons:
     c_bands      :    923.24s CPU    949.59s WALL (      23 calls)
     sum_band     :     95.44s CPU    100.38s WALL (      23 calls)
     v_of_rho     :      0.34s CPU      0.35s WALL (      23 calls)
     newd         :      0.78s CPU      0.99s WALL (      23 calls)
     PAW_pot      :      3.43s CPU      3.73s WALL (      23 calls)
     mix_rho      :      0.13s CPU      0.14s WALL (      23 calls)

     Called by c_bands:
     init_us_2    :      5.02s CPU      5.10s WALL (    7350 calls)
     cegterg      :    898.29s CPU    924.30s WALL (    3450 calls)

     Called by sum_band:
     sum_band:bec :      1.28s CPU      1.30s WALL (    3450 calls)
     addusdens    :      1.26s CPU      1.43s WALL (      23 calls)

     Called by *egterg:
     h_psi        :    378.79s CPU    394.82s WALL (   11552 calls)
     s_psi        :     20.36s CPU     20.49s WALL (   11552 calls)
     g_psi        :      0.83s CPU      0.84s WALL (    7952 calls)
     cdiaghg      :    410.07s CPU    411.40s WALL (   11252 calls)

     Called by h_psi:
     h_psi:pot    :    376.53s CPU    392.54s WALL (   11552 calls)
     h_psi:calbec :     31.45s CPU     36.31s WALL (   11552 calls)
     vloc_psi     :    324.17s CPU    335.19s WALL (   11552 calls)
     add_vuspsi   :     20.82s CPU     20.97s WALL (   11552 calls)

     General routines
     calbec       :     50.68s CPU     58.39s WALL (   15752 calls)
     fft          :      0.42s CPU      0.45s WALL (     617 calls)
     ffts         :      0.05s CPU      0.22s WALL (      92 calls)
     fftw         :    377.13s CPU    389.80s WALL ( 2881628 calls)
     interpolate  :      0.07s CPU      0.15s WALL (      46 calls)
 
     Parallel routines
     fft_scatt_xy :     24.69s CPU     25.53s WALL ( 2882337 calls)
     fft_scatt_yz :    253.58s CPU    262.37s WALL ( 2882337 calls)
 
     PWSCF        : 17m45.73s CPU    18m44.18s WALL

 
   This run was terminated on:   8:14: 8   2Nov2020            

=------------------------------------------------------------------------------=
   JOB DONE.
=------------------------------------------------------------------------------=
