--------------------------------------------------------------------------
WARNING: No preset parameters were found for the device that Open MPI
detected:

  Local host:            bear-pg0206u26a
  Device name:           mlx5_0
  Device vendor ID:      0x02c9
  Device vendor part ID: 4123

Default device parameters will be used, which may result in lower
performance.  You can edit any of the files specified by the
btl_openib_device_param_files MCA parameter to set values for your
device.

NOTE: You can turn off this warning by setting the MCA parameter
      btl_openib_warn_no_device_params_found to 0.
--------------------------------------------------------------------------
--------------------------------------------------------------------------
WARNING: There was an error initializing an OpenFabrics device.

  Local host:   bear-pg0206u26a
  Local device: mlx5_0
--------------------------------------------------------------------------

     Program PWSCF v.6.3 starts on  2Nov2020 at 10:40:42 

     This program is part of the open-source Quantum ESPRESSO suite
     for quantum simulation of materials; please cite
         "P. Giannozzi et al., J. Phys.:Condens. Matter 21 395502 (2009);
         "P. Giannozzi et al., J. Phys.:Condens. Matter 29 465901 (2017);
          URL http://www.quantum-espresso.org", 
     in publications or presentations arising from this work. More details at
     http://www.quantum-espresso.org/quote

     Parallel version (MPI & OpenMP), running on      40 processor cores
     Number of MPI processes:                40
     Threads/MPI process:                     1

     MPI processes distributed on     1 nodes
     R & G space division:  proc/nbgrp/npool/nimage =      40
     Reading input from wd/ec/ec_4_007.in
Warning: card &IONS ignored
Warning: card ION_DYNAMICS = 'BFGS', ignored
Warning: card / ignored
Warning: card &CELL ignored
Warning: card CELL_DYNAMICS = 'BFGS', ignored
Warning: card CELL_FACTOR = 2.0, ignored
Warning: card PRESS = 0.0, ignored
Warning: card / ignored

     Current dimensions of program PWSCF are:
     Max number of different atomic species (ntypx) = 10
     Max number of k-points (npk) =  40000
     Max angular momentum in pseudopotentials (lmaxx) =  3
               file Fe.pbe-spn-kjpaw_psl.1.0.0.UPF: wavefunction(s)  3P 3D renormalized
               file Fe.pbe-spn-kjpaw_psl.1.0.0.UPF: wavefunction(s)  3P 3D renormalized

     Subspace diagonalization in iterative solution of the eigenvalue problem:
     a serial algorithm will be used

     Found symmetry operation: I + (  0.0000  0.0000 -0.5000)
     This is a supercell, fractional translations are disabled
 
     Parallelization info
     --------------------
     sticks:   dense  smooth     PW     G-vecs:    dense   smooth      PW
     Min          95      63     17                 4472     2401     355
     Max          96      64     18                 4478     2406     359
     Sum        3833    2537    717               179021    96125   14307
 


     bravais-lattice index     =            0
     lattice parameter (alat)  =      10.5935  a.u.
     unit-cell volume          =    1188.8329 (a.u.)^3
     number of atoms/cell      =           16
     number of atomic types    =            2
     number of electrons       =       256.00
     number of Kohn-Sham states=          154
     kinetic-energy cutoff     =      71.0000  Ry
     charge density cutoff     =     430.0000  Ry
     convergence threshold     =      1.0E-06
     mixing beta               =       0.1000
     number of iterations used =           10  plain     mixing
     Exchange-correlation      = SLA PW PBX PBC ( 1  4  3  4 0 0)

     celldm(1)=  10.593520  celldm(2)=   0.000000  celldm(3)=   0.000000
     celldm(4)=   0.000000  celldm(5)=   0.000000  celldm(6)=   0.000000

     crystal axes: (cart. coord. in units of alat)
               a(1) = (   1.000005   0.000000   0.000000 )  
               a(2) = (   0.000000   1.000005   0.004000 )  
               a(3) = (   0.000000   0.004000   1.000005 )  

     reciprocal axes: (cart. coord. in units 2 pi/alat)
               b(1) = (  0.999995  0.000000  0.000000 )  
               b(2) = (  0.000000  1.000011 -0.004000 )  
               b(3) = (  0.000000 -0.004000  1.000011 )  


     PseudoPot. # 1 for Fe read from file:
     /rds/homes/b/bxp912/pp/Fe.pbe-spn-kjpaw_psl.1.0.0.UPF
     MD5 check sum: 42f43b795421b414b0dc916aa790dbcb
     Pseudo is Projector augmented-wave + core cor, Zval = 16.0
     Generated using "atomic" code by A. Dal Corso v.6.3
     Shape of augmentation charge: PSQ
     Using radial grid of 1191 points,  6 beta functions with: 
                l(1) =   0
                l(2) =   0
                l(3) =   1
                l(4) =   1
                l(5) =   2
                l(6) =   2
     Q(r) pseudized with 0 coefficients 


     PseudoPot. # 2 for Fe read from file:
     /rds/homes/b/bxp912/pp/Fe.pbe-spn-kjpaw_psl.1.0.0.UPF
     MD5 check sum: 42f43b795421b414b0dc916aa790dbcb
     Pseudo is Projector augmented-wave + core cor, Zval = 16.0
     Generated using "atomic" code by A. Dal Corso v.6.3
     Shape of augmentation charge: PSQ
     Using radial grid of 1191 points,  6 beta functions with: 
                l(1) =   0
                l(2) =   0
                l(3) =   1
                l(4) =   1
                l(5) =   2
                l(6) =   2
     Q(r) pseudized with 0 coefficients 


     atomic species   valence    mass     pseudopotential
        Fe1           16.00    55.84500     Fe( 1.00)
        Fe2           16.00    55.84500     Fe( 1.00)

     Starting magnetic structure 
     atomic species   magnetization
        Fe1          0.100
        Fe2          0.100

      8 Sym. Ops., with inversion, found



   Cartesian axes

     site n.     atom                  positions (alat units)
         1           Fe1 tau(   1) = (   0.0000000   0.0000000   0.0000000  )
         2           Fe2 tau(   2) = (   0.2500018   0.2510018   0.2510018  )
         3           Fe1 tau(   3) = (   0.0000000   0.0020000   0.5000027  )
         4           Fe2 tau(   4) = (   0.2500018   0.2530018   0.7510036  )
         5           Fe1 tau(   5) = (   0.0000000   0.5000027   0.0020000  )
         6           Fe2 tau(   6) = (   0.2500018   0.7510036   0.2530018  )
         7           Fe1 tau(   7) = (   0.0000000   0.5020027   0.5020027  )
         8           Fe2 tau(   8) = (   0.2500018   0.7530036   0.7530036  )
         9           Fe1 tau(   9) = (   0.5000027   0.0000000   0.0000000  )
        10           Fe2 tau(  10) = (   0.7500036   0.2510018   0.2510018  )
        11           Fe1 tau(  11) = (   0.5000027   0.0020000   0.5000027  )
        12           Fe2 tau(  12) = (   0.7500036   0.2530018   0.7510036  )
        13           Fe1 tau(  13) = (   0.5000027   0.5000027   0.0020000  )
        14           Fe2 tau(  14) = (   0.7500036   0.7510036   0.2530018  )
        15           Fe1 tau(  15) = (   0.5000027   0.5020027   0.5020027  )
        16           Fe2 tau(  16) = (   0.7500036   0.7530036   0.7530036  )

     number of k points=   125  Marzari-Vanderbilt smearing, width (Ry)=  0.0400

     Number of k-points >= 100: set verbosity='high' to print them.

     Dense  grid:   179021 G-vectors     FFT dimensions: (  72,  72,  72)

     Smooth grid:    96125 G-vectors     FFT dimensions: (  60,  60,  60)

     Estimated max dynamical RAM per process >     215.38 MB

     Estimated total dynamical RAM >       8.41 GB
     Generating pointlists ...
     new r_m :   0.1781 (alat units)  1.8872 (a.u.) for type    1
     new r_m :   0.1781 (alat units)  1.8872 (a.u.) for type    2

     Check: negative/imaginary core charge=   -0.000006    0.000000

     Initial potential from superposition of free atoms

     starting charge  255.99300, renormalised to  256.00000
     Starting wfcs are  160 randomized atomic wfcs
     Checking if some PAW data can be deallocated... 

     total cpu time spent up to now is       24.1 secs

     Self-consistent Calculation

     iteration #  1     ecut=    71.00 Ry     beta= 0.10
     Davidson diagonalization with overlap
     ethr =  1.00E-02,  avg # of iterations =  3.4

     Threshold (ethr) on eigenvalues was too large:
     Diagonalizing with lowered threshold

     Davidson diagonalization with overlap
     ethr =  2.83E-04,  avg # of iterations =  3.3

     total cpu time spent up to now is      210.6 secs

     total energy              =   -5268.17167920 Ry
     Harris-Foulkes estimate   =   -5268.32050443 Ry
     estimated scf accuracy    <       0.81963729 Ry

     total magnetization       =    28.03 Bohr mag/cell
     absolute magnetization    =    28.39 Bohr mag/cell

     iteration #  2     ecut=    71.00 Ry     beta= 0.10
     Davidson diagonalization with overlap
     ethr =  3.20E-04,  avg # of iterations =  1.0

     total cpu time spent up to now is      265.9 secs

     total energy              =   -5268.05666469 Ry
     Harris-Foulkes estimate   =   -5268.18971609 Ry
     estimated scf accuracy    <       0.48892246 Ry

     total magnetization       =    28.66 Bohr mag/cell
     absolute magnetization    =    28.95 Bohr mag/cell

     iteration #  3     ecut=    71.00 Ry     beta= 0.10
     Davidson diagonalization with overlap
     ethr =  1.91E-04,  avg # of iterations =  2.6

     total cpu time spent up to now is      344.8 secs

     total energy              =   -5268.04106557 Ry
     Harris-Foulkes estimate   =   -5268.10789551 Ry
     estimated scf accuracy    <       0.55246661 Ry

     total magnetization       =    29.46 Bohr mag/cell
     absolute magnetization    =    29.80 Bohr mag/cell

     iteration #  4     ecut=    71.00 Ry     beta= 0.10
     Davidson diagonalization with overlap
     ethr =  1.91E-04,  avg # of iterations =  1.5

     total cpu time spent up to now is      406.3 secs

     total energy              =   -5268.06897491 Ry
     Harris-Foulkes estimate   =   -5268.07157838 Ry
     estimated scf accuracy    <       0.16090603 Ry

     total magnetization       =    30.22 Bohr mag/cell
     absolute magnetization    =    30.58 Bohr mag/cell

     iteration #  5     ecut=    71.00 Ry     beta= 0.10
     Davidson diagonalization with overlap
     ethr =  6.29E-05,  avg # of iterations =  1.5

     total cpu time spent up to now is      467.7 secs

     total energy              =   -5268.08784645 Ry
     Harris-Foulkes estimate   =   -5268.07276455 Ry
     estimated scf accuracy    <       0.11159413 Ry

     total magnetization       =    30.30 Bohr mag/cell
     absolute magnetization    =    30.70 Bohr mag/cell

     iteration #  6     ecut=    71.00 Ry     beta= 0.10
     Davidson diagonalization with overlap
     ethr =  4.36E-05,  avg # of iterations =  3.3

     total cpu time spent up to now is      571.8 secs

     total energy              =   -5268.14582044 Ry
     Harris-Foulkes estimate   =   -5268.12667863 Ry
     estimated scf accuracy    <       0.13911305 Ry

     total magnetization       =    30.92 Bohr mag/cell
     absolute magnetization    =    31.62 Bohr mag/cell

     iteration #  7     ecut=    71.00 Ry     beta= 0.10
     Davidson diagonalization with overlap
     ethr =  4.36E-05,  avg # of iterations =  2.0

     total cpu time spent up to now is      642.4 secs

     total energy              =   -5268.15134378 Ry
     Harris-Foulkes estimate   =   -5268.15351427 Ry
     estimated scf accuracy    <       0.10644107 Ry

     total magnetization       =    31.43 Bohr mag/cell
     absolute magnetization    =    32.33 Bohr mag/cell

     iteration #  8     ecut=    71.00 Ry     beta= 0.10
     Davidson diagonalization with overlap
     ethr =  4.16E-05,  avg # of iterations =  1.0

     negative rho (up, down):  0.000E+00 2.239E-03

     total cpu time spent up to now is      698.0 secs

     total energy              =   -5268.16697116 Ry
     Harris-Foulkes estimate   =   -5268.15237671 Ry
     estimated scf accuracy    <       0.08267845 Ry

     total magnetization       =    31.55 Bohr mag/cell
     absolute magnetization    =    32.50 Bohr mag/cell

     iteration #  9     ecut=    71.00 Ry     beta= 0.10
     Davidson diagonalization with overlap
     ethr =  3.23E-05,  avg # of iterations =  2.8

     negative rho (up, down):  0.000E+00 2.358E-03

     total cpu time spent up to now is      792.8 secs

     total energy              =   -5268.18956629 Ry
     Harris-Foulkes estimate   =   -5268.19252620 Ry
     estimated scf accuracy    <       0.02623404 Ry

     total magnetization       =    32.47 Bohr mag/cell
     absolute magnetization    =    33.95 Bohr mag/cell

     iteration # 10     ecut=    71.00 Ry     beta= 0.10
     Davidson diagonalization with overlap
     ethr =  1.02E-05,  avg # of iterations =  1.2

     negative rho (up, down):  0.000E+00 2.463E-03

     total cpu time spent up to now is      850.7 secs

     total energy              =   -5268.18802644 Ry
     Harris-Foulkes estimate   =   -5268.19009807 Ry
     estimated scf accuracy    <       0.00907392 Ry

     total magnetization       =    32.57 Bohr mag/cell
     absolute magnetization    =    34.10 Bohr mag/cell

     iteration # 11     ecut=    71.00 Ry     beta= 0.10
     Davidson diagonalization with overlap
     ethr =  3.54E-06,  avg # of iterations =  2.6

     negative rho (up, down):  0.000E+00 2.558E-03

     total cpu time spent up to now is      929.3 secs

     total energy              =   -5268.18829922 Ry
     Harris-Foulkes estimate   =   -5268.18851443 Ry
     estimated scf accuracy    <       0.00131718 Ry

     total magnetization       =    32.66 Bohr mag/cell
     absolute magnetization    =    34.28 Bohr mag/cell

     iteration # 12     ecut=    71.00 Ry     beta= 0.10
     Davidson diagonalization with overlap
     ethr =  5.15E-07,  avg # of iterations =  1.9

     negative rho (up, down):  0.000E+00 2.647E-03

     total cpu time spent up to now is      996.5 secs

     total energy              =   -5268.18832752 Ry
     Harris-Foulkes estimate   =   -5268.18836036 Ry
     estimated scf accuracy    <       0.00063843 Ry

     total magnetization       =    32.71 Bohr mag/cell
     absolute magnetization    =    34.36 Bohr mag/cell

     iteration # 13     ecut=    71.00 Ry     beta= 0.10
     Davidson diagonalization with overlap
     ethr =  2.49E-07,  avg # of iterations =  3.0

     negative rho (up, down):  0.000E+00 2.433E-03

     total cpu time spent up to now is     1083.5 secs

     total energy              =   -5268.18876246 Ry
     Harris-Foulkes estimate   =   -5268.18843149 Ry
     estimated scf accuracy    <       0.00087764 Ry

     total magnetization       =    32.77 Bohr mag/cell
     absolute magnetization    =    34.47 Bohr mag/cell

     iteration # 14     ecut=    71.00 Ry     beta= 0.10
     Davidson diagonalization with overlap
     ethr =  2.49E-07,  avg # of iterations =  3.2

     negative rho (up, down):  0.000E+00 2.462E-03

     total cpu time spent up to now is     1184.2 secs

     total energy              =   -5268.18900945 Ry
     Harris-Foulkes estimate   =   -5268.18900597 Ry
     estimated scf accuracy    <       0.00046404 Ry

     total magnetization       =    32.78 Bohr mag/cell
     absolute magnetization    =    34.49 Bohr mag/cell

     iteration # 15     ecut=    71.00 Ry     beta= 0.10
     Davidson diagonalization with overlap
     ethr =  1.81E-07,  avg # of iterations =  1.8

     negative rho (up, down):  0.000E+00 2.425E-03

     total cpu time spent up to now is     1251.1 secs

     total energy              =   -5268.18908807 Ry
     Harris-Foulkes estimate   =   -5268.18904207 Ry
     estimated scf accuracy    <       0.00010509 Ry

     total magnetization       =    32.82 Bohr mag/cell
     absolute magnetization    =    34.55 Bohr mag/cell

     iteration # 16     ecut=    71.00 Ry     beta= 0.10
     Davidson diagonalization with overlap
     ethr =  4.10E-08,  avg # of iterations =  2.5

     negative rho (up, down):  0.000E+00 2.402E-03

     total cpu time spent up to now is     1334.5 secs

     total energy              =   -5268.18911123 Ry
     Harris-Foulkes estimate   =   -5268.18910737 Ry
     estimated scf accuracy    <       0.00006766 Ry

     total magnetization       =    32.84 Bohr mag/cell
     absolute magnetization    =    34.58 Bohr mag/cell

     iteration # 17     ecut=    71.00 Ry     beta= 0.10
     Davidson diagonalization with overlap
     ethr =  2.64E-08,  avg # of iterations =  2.3

     negative rho (up, down):  0.000E+00 2.427E-03

     total cpu time spent up to now is     1409.1 secs

     total energy              =   -5268.18912632 Ry
     Harris-Foulkes estimate   =   -5268.18911781 Ry
     estimated scf accuracy    <       0.00004397 Ry

     total magnetization       =    32.85 Bohr mag/cell
     absolute magnetization    =    34.60 Bohr mag/cell

     iteration # 18     ecut=    71.00 Ry     beta= 0.10
     Davidson diagonalization with overlap
     ethr =  1.72E-08,  avg # of iterations =  3.0

     negative rho (up, down):  0.000E+00 2.460E-03

     total cpu time spent up to now is     1502.7 secs

     total energy              =   -5268.18913307 Ry
     Harris-Foulkes estimate   =   -5268.18913513 Ry
     estimated scf accuracy    <       0.00001769 Ry

     total magnetization       =    32.88 Bohr mag/cell
     absolute magnetization    =    34.64 Bohr mag/cell

     iteration # 19     ecut=    71.00 Ry     beta= 0.10
     Davidson diagonalization with overlap
     ethr =  6.91E-09,  avg # of iterations =  2.6

     negative rho (up, down):  0.000E+00 2.459E-03

     total cpu time spent up to now is     1582.9 secs

     total energy              =   -5268.18913834 Ry
     Harris-Foulkes estimate   =   -5268.18913505 Ry
     estimated scf accuracy    <       0.00001036 Ry

     total magnetization       =    32.89 Bohr mag/cell
     absolute magnetization    =    34.66 Bohr mag/cell

     iteration # 20     ecut=    71.00 Ry     beta= 0.10
     Davidson diagonalization with overlap
     ethr =  4.05E-09,  avg # of iterations =  1.1

     negative rho (up, down):  0.000E+00 2.464E-03

     total cpu time spent up to now is     1639.4 secs

     total energy              =   -5268.18914218 Ry
     Harris-Foulkes estimate   =   -5268.18913878 Ry
     estimated scf accuracy    <       0.00000771 Ry

     total magnetization       =    32.89 Bohr mag/cell
     absolute magnetization    =    34.66 Bohr mag/cell

     iteration # 21     ecut=    71.00 Ry     beta= 0.10
     Davidson diagonalization with overlap
     ethr =  3.01E-09,  avg # of iterations =  1.9

     negative rho (up, down):  0.000E+00 2.462E-03

     total cpu time spent up to now is     1705.5 secs

     total energy              =   -5268.18914369 Ry
     Harris-Foulkes estimate   =   -5268.18914301 Ry
     estimated scf accuracy    <       0.00000364 Ry

     total magnetization       =    32.90 Bohr mag/cell
     absolute magnetization    =    34.67 Bohr mag/cell

     iteration # 22     ecut=    71.00 Ry     beta= 0.10
     Davidson diagonalization with overlap
     ethr =  1.42E-09,  avg # of iterations =  1.9

     negative rho (up, down):  0.000E+00 2.454E-03

     total cpu time spent up to now is     1771.7 secs

     total energy              =   -5268.18914524 Ry
     Harris-Foulkes estimate   =   -5268.18914400 Ry
     estimated scf accuracy    <       0.00000371 Ry

     total magnetization       =    32.90 Bohr mag/cell
     absolute magnetization    =    34.67 Bohr mag/cell

     iteration # 23     ecut=    71.00 Ry     beta= 0.10
     Davidson diagonalization with overlap
     ethr =  1.42E-09,  avg # of iterations =  2.4

     negative rho (up, down):  0.000E+00 2.453E-03

     total cpu time spent up to now is     1848.0 secs

     total energy              =   -5268.18914639 Ry
     Harris-Foulkes estimate   =   -5268.18914579 Ry
     estimated scf accuracy    <       0.00000101 Ry

     total magnetization       =    32.90 Bohr mag/cell
     absolute magnetization    =    34.67 Bohr mag/cell

     iteration # 24     ecut=    71.00 Ry     beta= 0.10
     Davidson diagonalization with overlap
     ethr =  3.95E-10,  avg # of iterations =  2.3

     negative rho (up, down):  0.000E+00 2.465E-03
 
     Magnetic moment per site:
     atom:    1    charge:   14.3503    magn:    2.0991    constr:    0.0000
     atom:    2    charge:   14.3501    magn:    2.1016    constr:    0.0000
     atom:    3    charge:   14.3502    magn:    2.1000    constr:    0.0000
     atom:    4    charge:   14.3502    magn:    2.1015    constr:    0.0000
     atom:    5    charge:   14.3502    magn:    2.1000    constr:    0.0000
     atom:    6    charge:   14.3502    magn:    2.1015    constr:    0.0000
     atom:    7    charge:   14.3503    magn:    2.1004    constr:    0.0000
     atom:    8    charge:   14.3501    magn:    2.1016    constr:    0.0000
     atom:    9    charge:   14.3502    magn:    2.0982    constr:    0.0000
     atom:   10    charge:   14.3501    magn:    2.1016    constr:    0.0000
     atom:   11    charge:   14.3503    magn:    2.0988    constr:    0.0000
     atom:   12    charge:   14.3502    magn:    2.1015    constr:    0.0000
     atom:   13    charge:   14.3503    magn:    2.0988    constr:    0.0000
     atom:   14    charge:   14.3502    magn:    2.1015    constr:    0.0000
     atom:   15    charge:   14.3503    magn:    2.0995    constr:    0.0000
     atom:   16    charge:   14.3501    magn:    2.1016    constr:    0.0000

     total cpu time spent up to now is     1918.9 secs

     End of self-consistent calculation

     Number of k-points >= 100: set verbosity='high' to print the bands.

     the Fermi energy is    18.9744 ev

!    total energy              =   -5268.18914822 Ry
     Harris-Foulkes estimate   =   -5268.18914646 Ry
     estimated scf accuracy    <       0.00000049 Ry

     total all-electron energy =    -40728.933677 Ry

     The total energy is the sum of the following terms:

     one-electron contribution =   -1707.46961645 Ry
     hartree contribution      =    1022.30062219 Ry
     xc contribution           =    -444.26171869 Ry
     ewald contribution        =   -2814.21161108 Ry
     one-center paw contrib.   =   -1324.67095994 Ry
     smearing contrib. (-TS)   =       0.12413575 Ry

     total magnetization       =    32.91 Bohr mag/cell
     absolute magnetization    =    34.67 Bohr mag/cell

     convergence has been achieved in  24 iterations

     negative rho (up, down):  0.000E+00 2.465E-03

     Forces acting on atoms (cartesian axes, Ry/au):

     atom    1 type  1   force =     0.00000000    0.00000000    0.00000000
     atom    2 type  2   force =    -0.00016597    0.00009119    0.00009119
     atom    3 type  1   force =    -0.00000000    0.00000000    0.00000000
     atom    4 type  2   force =     0.00003584    0.00011290   -0.00011290
     atom    5 type  1   force =     0.00000000    0.00000000    0.00000000
     atom    6 type  2   force =     0.00003584   -0.00011290    0.00011290
     atom    7 type  1   force =     0.00000000    0.00000000    0.00000000
     atom    8 type  2   force =    -0.00016597   -0.00009119   -0.00009119
     atom    9 type  1   force =     0.00000000    0.00000000    0.00000000
     atom   10 type  2   force =     0.00016597    0.00009119    0.00009119
     atom   11 type  1   force =     0.00000000    0.00000000    0.00000000
     atom   12 type  2   force =    -0.00003584    0.00011290   -0.00011290
     atom   13 type  1   force =     0.00000000    0.00000000    0.00000000
     atom   14 type  2   force =    -0.00003584   -0.00011290    0.00011290
     atom   15 type  1   force =     0.00000000    0.00000000    0.00000000
     atom   16 type  2   force =     0.00016597   -0.00009119   -0.00009119

     Total force =     0.000533     Total SCF correction =     0.005531
     SCF correction compared to forces is large: reduce conv_thr to get better values


     Computing stress (Cartesian axis) and pressure


     negative rho (up, down):  0.000E+00 2.465E-03
          total   stress  (Ry/bohr**3)                   (kbar)     P=   -2.13
  -0.00001438   0.00000000   0.00000000         -2.11      0.00      0.00
   0.00000000  -0.00001458  -0.00007425          0.00     -2.14    -10.92
   0.00000000  -0.00007425  -0.00001458          0.00    -10.92     -2.14


     Writing output data file KOjBISyVKLbnzYKm.save/
 
     init_run     :     21.79s CPU     22.74s WALL (       1 calls)
     electrons    :   1836.85s CPU   1894.83s WALL (       1 calls)
     forces       :      7.56s CPU      8.21s WALL (       1 calls)
     stress       :     20.35s CPU     20.59s WALL (       1 calls)

     Called by init_run:
     wfcinit      :     21.16s CPU     21.98s WALL (       1 calls)
     potinit      :      0.38s CPU      0.40s WALL (       1 calls)
     hinit0       :      0.14s CPU      0.15s WALL (       1 calls)

     Called by electrons:
     c_bands      :   1660.35s CPU   1708.45s WALL (      25 calls)
     sum_band     :    171.44s CPU    180.64s WALL (      25 calls)
     v_of_rho     :      0.41s CPU      0.42s WALL (      25 calls)
     newd         :      0.80s CPU      1.04s WALL (      25 calls)
     PAW_pot      :      3.87s CPU      4.17s WALL (      25 calls)
     mix_rho      :      0.14s CPU      0.16s WALL (      25 calls)

     Called by c_bands:
     init_us_2    :      8.62s CPU      8.83s WALL (   13250 calls)
     cegterg      :   1616.20s CPU   1663.66s WALL (    6250 calls)

     Called by sum_band:
     sum_band:bec :      2.39s CPU      2.43s WALL (    6250 calls)
     addusdens    :      1.42s CPU      1.62s WALL (      25 calls)

     Called by *egterg:
     h_psi        :    682.50s CPU    711.61s WALL (   20586 calls)
     s_psi        :     35.54s CPU     35.79s WALL (   20586 calls)
     g_psi        :      1.44s CPU      1.46s WALL (   14086 calls)
     cdiaghg      :    735.40s CPU    738.02s WALL (   20086 calls)

     Called by h_psi:
     h_psi:pot    :    678.41s CPU    707.48s WALL (   20586 calls)
     h_psi:calbec :     55.82s CPU     64.72s WALL (   20586 calls)
     vloc_psi     :    586.33s CPU    606.25s WALL (   20586 calls)
     add_vuspsi   :     36.09s CPU     36.38s WALL (   20586 calls)

     General routines
     calbec       :     84.80s CPU     98.53s WALL (   28086 calls)
     fft          :      0.45s CPU      0.48s WALL (     667 calls)
     ffts         :      0.09s CPU      0.29s WALL (     100 calls)
     fftw         :    682.85s CPU    705.94s WALL ( 5208636 calls)
     interpolate  :      0.08s CPU      0.17s WALL (      50 calls)
 
     Parallel routines
     fft_scatt_xy :     45.26s CPU     46.81s WALL ( 5209403 calls)
     fft_scatt_yz :    459.12s CPU    475.18s WALL ( 5209403 calls)
 
     PWSCF        : 31m41.55s CPU    33m29.93s WALL

 
   This run was terminated on:  11:14:12   2Nov2020            

=------------------------------------------------------------------------------=
   JOB DONE.
=------------------------------------------------------------------------------=
