--------------------------------------------------------------------------
WARNING: No preset parameters were found for the device that Open MPI
detected:

  Local host:            bear-pg0206u26a
  Device name:           mlx5_0
  Device vendor ID:      0x02c9
  Device vendor part ID: 4123

Default device parameters will be used, which may result in lower
performance.  You can edit any of the files specified by the
btl_openib_device_param_files MCA parameter to set values for your
device.

NOTE: You can turn off this warning by setting the MCA parameter
      btl_openib_warn_no_device_params_found to 0.
--------------------------------------------------------------------------
--------------------------------------------------------------------------
WARNING: There was an error initializing an OpenFabrics device.

  Local host:   bear-pg0206u26a
  Local device: mlx5_0
--------------------------------------------------------------------------

     Program PWSCF v.6.3 starts on  2Nov2020 at  9: 4:38 

     This program is part of the open-source Quantum ESPRESSO suite
     for quantum simulation of materials; please cite
         "P. Giannozzi et al., J. Phys.:Condens. Matter 21 395502 (2009);
         "P. Giannozzi et al., J. Phys.:Condens. Matter 29 465901 (2017);
          URL http://www.quantum-espresso.org", 
     in publications or presentations arising from this work. More details at
     http://www.quantum-espresso.org/quote

     Parallel version (MPI & OpenMP), running on      40 processor cores
     Number of MPI processes:                40
     Threads/MPI process:                     1

     MPI processes distributed on     1 nodes
     R & G space division:  proc/nbgrp/npool/nimage =      40
     Reading input from wd/ec/ec_4_003.in
Warning: card &IONS ignored
Warning: card ION_DYNAMICS = 'BFGS', ignored
Warning: card / ignored
Warning: card &CELL ignored
Warning: card CELL_DYNAMICS = 'BFGS', ignored
Warning: card CELL_FACTOR = 2.0, ignored
Warning: card PRESS = 0.0, ignored
Warning: card / ignored

     Current dimensions of program PWSCF are:
     Max number of different atomic species (ntypx) = 10
     Max number of k-points (npk) =  40000
     Max angular momentum in pseudopotentials (lmaxx) =  3
               file Fe.pbe-spn-kjpaw_psl.1.0.0.UPF: wavefunction(s)  3P 3D renormalized
               file Fe.pbe-spn-kjpaw_psl.1.0.0.UPF: wavefunction(s)  3P 3D renormalized

     Subspace diagonalization in iterative solution of the eigenvalue problem:
     a serial algorithm will be used

     Found symmetry operation: I + (  0.0000 -0.0000  0.5000)
     This is a supercell, fractional translations are disabled
 
     Parallelization info
     --------------------
     sticks:   dense  smooth     PW     G-vecs:    dense   smooth      PW
     Min          95      63     17                 4471     2400     355
     Max          96      64     18                 4476     2405     359
     Sum        3833    2537    717               178953    96097   14323
 


     bravais-lattice index     =            0
     lattice parameter (alat)  =      10.5935  a.u.
     unit-cell volume          =    1188.8329 (a.u.)^3
     number of atoms/cell      =           16
     number of atomic types    =            2
     number of electrons       =       256.00
     number of Kohn-Sham states=          154
     kinetic-energy cutoff     =      71.0000  Ry
     charge density cutoff     =     430.0000  Ry
     convergence threshold     =      1.0E-06
     mixing beta               =       0.1000
     number of iterations used =           10  plain     mixing
     Exchange-correlation      = SLA PW PBX PBC ( 1  4  3  4 0 0)

     celldm(1)=  10.593520  celldm(2)=   0.000000  celldm(3)=   0.000000
     celldm(4)=   0.000000  celldm(5)=   0.000000  celldm(6)=   0.000000

     crystal axes: (cart. coord. in units of alat)
               a(1) = (   1.000001   0.000000   0.000000 )  
               a(2) = (   0.000000   1.000001   0.001333 )  
               a(3) = (   0.000000   0.001333   1.000001 )  

     reciprocal axes: (cart. coord. in units 2 pi/alat)
               b(1) = (  0.999999  0.000000  0.000000 )  
               b(2) = (  0.000000  1.000001 -0.001333 )  
               b(3) = (  0.000000 -0.001333  1.000001 )  


     PseudoPot. # 1 for Fe read from file:
     /rds/homes/b/bxp912/pp/Fe.pbe-spn-kjpaw_psl.1.0.0.UPF
     MD5 check sum: 42f43b795421b414b0dc916aa790dbcb
     Pseudo is Projector augmented-wave + core cor, Zval = 16.0
     Generated using "atomic" code by A. Dal Corso v.6.3
     Shape of augmentation charge: PSQ
     Using radial grid of 1191 points,  6 beta functions with: 
                l(1) =   0
                l(2) =   0
                l(3) =   1
                l(4) =   1
                l(5) =   2
                l(6) =   2
     Q(r) pseudized with 0 coefficients 


     PseudoPot. # 2 for Fe read from file:
     /rds/homes/b/bxp912/pp/Fe.pbe-spn-kjpaw_psl.1.0.0.UPF
     MD5 check sum: 42f43b795421b414b0dc916aa790dbcb
     Pseudo is Projector augmented-wave + core cor, Zval = 16.0
     Generated using "atomic" code by A. Dal Corso v.6.3
     Shape of augmentation charge: PSQ
     Using radial grid of 1191 points,  6 beta functions with: 
                l(1) =   0
                l(2) =   0
                l(3) =   1
                l(4) =   1
                l(5) =   2
                l(6) =   2
     Q(r) pseudized with 0 coefficients 


     atomic species   valence    mass     pseudopotential
        Fe1           16.00    55.84500     Fe( 1.00)
        Fe2           16.00    55.84500     Fe( 1.00)

     Starting magnetic structure 
     atomic species   magnetization
        Fe1          0.100
        Fe2          0.100

      8 Sym. Ops., with inversion, found



   Cartesian axes

     site n.     atom                  positions (alat units)
         1           Fe1 tau(   1) = (   0.0000000   0.0000000   0.0000000  )
         2           Fe2 tau(   2) = (   0.2500006   0.2503339   0.2503339  )
         3           Fe1 tau(   3) = (   0.0000000   0.0006667   0.5000003  )
         4           Fe2 tau(   4) = (   0.2500006   0.2510006   0.7503333  )
         5           Fe1 tau(   5) = (   0.0000000   0.5000003   0.0006667  )
         6           Fe2 tau(   6) = (   0.2500006   0.7503333   0.2510006  )
         7           Fe1 tau(   7) = (   0.0000000   0.5006670   0.5006670  )
         8           Fe2 tau(   8) = (   0.2500006   0.7510000   0.7510000  )
         9           Fe1 tau(   9) = (   0.5000003   0.0000000   0.0000000  )
        10           Fe2 tau(  10) = (   0.7500000   0.2503339   0.2503339  )
        11           Fe1 tau(  11) = (   0.5000003   0.0006667   0.5000003  )
        12           Fe2 tau(  12) = (   0.7500000   0.2510006   0.7503333  )
        13           Fe1 tau(  13) = (   0.5000003   0.5000003   0.0006667  )
        14           Fe2 tau(  14) = (   0.7500000   0.7503333   0.2510006  )
        15           Fe1 tau(  15) = (   0.5000003   0.5006670   0.5006670  )
        16           Fe2 tau(  16) = (   0.7500000   0.7510000   0.7510000  )

     number of k points=   125  Marzari-Vanderbilt smearing, width (Ry)=  0.0400

     Number of k-points >= 100: set verbosity='high' to print them.

     Dense  grid:   178953 G-vectors     FFT dimensions: (  72,  72,  72)

     Smooth grid:    96097 G-vectors     FFT dimensions: (  60,  60,  60)

     Estimated max dynamical RAM per process >     215.38 MB

     Estimated total dynamical RAM >       8.41 GB
     Generating pointlists ...
     new r_m :   0.1785 (alat units)  1.8905 (a.u.) for type    1
     new r_m :   0.1785 (alat units)  1.8905 (a.u.) for type    2

     Check: negative/imaginary core charge=   -0.000006    0.000000

     Initial potential from superposition of free atoms

     starting charge  255.99300, renormalised to  256.00000
     Starting wfcs are  160 randomized atomic wfcs
     Checking if some PAW data can be deallocated... 

     total cpu time spent up to now is       23.5 secs

     Self-consistent Calculation

     iteration #  1     ecut=    71.00 Ry     beta= 0.10
     Davidson diagonalization with overlap
     ethr =  1.00E-02,  avg # of iterations =  3.4

     Threshold (ethr) on eigenvalues was too large:
     Diagonalizing with lowered threshold

     Davidson diagonalization with overlap
     ethr =  2.83E-04,  avg # of iterations =  3.4

     total cpu time spent up to now is      211.8 secs

     total energy              =   -5268.17198801 Ry
     Harris-Foulkes estimate   =   -5268.32082251 Ry
     estimated scf accuracy    <       0.81973508 Ry

     total magnetization       =    28.03 Bohr mag/cell
     absolute magnetization    =    28.39 Bohr mag/cell

     iteration #  2     ecut=    71.00 Ry     beta= 0.10
     Davidson diagonalization with overlap
     ethr =  3.20E-04,  avg # of iterations =  1.0

     total cpu time spent up to now is      266.9 secs

     total energy              =   -5268.05699863 Ry
     Harris-Foulkes estimate   =   -5268.19005605 Ry
     estimated scf accuracy    <       0.48893880 Ry

     total magnetization       =    28.66 Bohr mag/cell
     absolute magnetization    =    28.95 Bohr mag/cell

     iteration #  3     ecut=    71.00 Ry     beta= 0.10
     Davidson diagonalization with overlap
     ethr =  1.91E-04,  avg # of iterations =  2.7

     total cpu time spent up to now is      345.9 secs

     total energy              =   -5268.04141705 Ry
     Harris-Foulkes estimate   =   -5268.10822912 Ry
     estimated scf accuracy    <       0.55209846 Ry

     total magnetization       =    29.46 Bohr mag/cell
     absolute magnetization    =    29.80 Bohr mag/cell

     iteration #  4     ecut=    71.00 Ry     beta= 0.10
     Davidson diagonalization with overlap
     ethr =  1.91E-04,  avg # of iterations =  1.5

     total cpu time spent up to now is      407.7 secs

     total energy              =   -5268.06932032 Ry
     Harris-Foulkes estimate   =   -5268.07191873 Ry
     estimated scf accuracy    <       0.16081921 Ry

     total magnetization       =    30.22 Bohr mag/cell
     absolute magnetization    =    30.58 Bohr mag/cell

     iteration #  5     ecut=    71.00 Ry     beta= 0.10
     Davidson diagonalization with overlap
     ethr =  6.28E-05,  avg # of iterations =  1.5

     total cpu time spent up to now is      469.3 secs

     total energy              =   -5268.08825928 Ry
     Harris-Foulkes estimate   =   -5268.07307849 Ry
     estimated scf accuracy    <       0.11152432 Ry

     total magnetization       =    30.30 Bohr mag/cell
     absolute magnetization    =    30.69 Bohr mag/cell

     iteration #  6     ecut=    71.00 Ry     beta= 0.10
     Davidson diagonalization with overlap
     ethr =  4.36E-05,  avg # of iterations =  3.2

     total cpu time spent up to now is      571.5 secs

     total energy              =   -5268.14609800 Ry
     Harris-Foulkes estimate   =   -5268.12753902 Ry
     estimated scf accuracy    <       0.13948674 Ry

     total magnetization       =    30.92 Bohr mag/cell
     absolute magnetization    =    31.63 Bohr mag/cell

     iteration #  7     ecut=    71.00 Ry     beta= 0.10
     Davidson diagonalization with overlap
     ethr =  4.36E-05,  avg # of iterations =  2.0

     total cpu time spent up to now is      642.0 secs

     total energy              =   -5268.15168829 Ry
     Harris-Foulkes estimate   =   -5268.15361163 Ry
     estimated scf accuracy    <       0.10573656 Ry

     total magnetization       =    31.42 Bohr mag/cell
     absolute magnetization    =    32.33 Bohr mag/cell

     iteration #  8     ecut=    71.00 Ry     beta= 0.10
     Davidson diagonalization with overlap
     ethr =  4.13E-05,  avg # of iterations =  1.0

     negative rho (up, down):  0.000E+00 2.222E-03

     total cpu time spent up to now is      697.1 secs

     total energy              =   -5268.16731683 Ry
     Harris-Foulkes estimate   =   -5268.15272665 Ry
     estimated scf accuracy    <       0.08239230 Ry

     total magnetization       =    31.54 Bohr mag/cell
     absolute magnetization    =    32.50 Bohr mag/cell

     iteration #  9     ecut=    71.00 Ry     beta= 0.10
     Davidson diagonalization with overlap
     ethr =  3.22E-05,  avg # of iterations =  2.7

     negative rho (up, down):  0.000E+00 2.345E-03

     total cpu time spent up to now is      791.7 secs

     total energy              =   -5268.19035270 Ry
     Harris-Foulkes estimate   =   -5268.19260977 Ry
     estimated scf accuracy    <       0.02634932 Ry

     total magnetization       =    32.46 Bohr mag/cell
     absolute magnetization    =    33.94 Bohr mag/cell

     iteration # 10     ecut=    71.00 Ry     beta= 0.10
     Davidson diagonalization with overlap
     ethr =  1.03E-05,  avg # of iterations =  1.2

     negative rho (up, down):  0.000E+00 2.464E-03

     total cpu time spent up to now is      850.1 secs

     total energy              =   -5268.18822121 Ry
     Harris-Foulkes estimate   =   -5268.19080666 Ry
     estimated scf accuracy    <       0.01112670 Ry

     total magnetization       =    32.55 Bohr mag/cell
     absolute magnetization    =    34.07 Bohr mag/cell

     iteration # 11     ecut=    71.00 Ry     beta= 0.10
     Davidson diagonalization with overlap
     ethr =  4.35E-06,  avg # of iterations =  2.3

     negative rho (up, down):  0.000E+00 2.572E-03

     total cpu time spent up to now is      925.7 secs

     total energy              =   -5268.18859484 Ry
     Harris-Foulkes estimate   =   -5268.18881785 Ry
     estimated scf accuracy    <       0.00130502 Ry

     total magnetization       =    32.65 Bohr mag/cell
     absolute magnetization    =    34.28 Bohr mag/cell

     iteration # 12     ecut=    71.00 Ry     beta= 0.10
     Davidson diagonalization with overlap
     ethr =  5.10E-07,  avg # of iterations =  2.4

     negative rho (up, down):  0.000E+00 2.640E-03

     total cpu time spent up to now is      999.0 secs

     total energy              =   -5268.18866807 Ry
     Harris-Foulkes estimate   =   -5268.18867199 Ry
     estimated scf accuracy    <       0.00060874 Ry

     total magnetization       =    32.70 Bohr mag/cell
     absolute magnetization    =    34.36 Bohr mag/cell

     iteration # 13     ecut=    71.00 Ry     beta= 0.10
     Davidson diagonalization with overlap
     ethr =  2.38E-07,  avg # of iterations =  3.0

     negative rho (up, down):  0.000E+00 2.430E-03

     total cpu time spent up to now is     1085.8 secs

     total energy              =   -5268.18907319 Ry
     Harris-Foulkes estimate   =   -5268.18876029 Ry
     estimated scf accuracy    <       0.00089390 Ry

     total magnetization       =    32.76 Bohr mag/cell
     absolute magnetization    =    34.47 Bohr mag/cell

     iteration # 14     ecut=    71.00 Ry     beta= 0.10
     Davidson diagonalization with overlap
     ethr =  2.38E-07,  avg # of iterations =  3.4

     negative rho (up, down):  0.000E+00 2.464E-03

     total cpu time spent up to now is     1189.1 secs

     total energy              =   -5268.18931114 Ry
     Harris-Foulkes estimate   =   -5268.18931203 Ry
     estimated scf accuracy    <       0.00044766 Ry

     total magnetization       =    32.78 Bohr mag/cell
     absolute magnetization    =    34.49 Bohr mag/cell

     iteration # 15     ecut=    71.00 Ry     beta= 0.10
     Davidson diagonalization with overlap
     ethr =  1.75E-07,  avg # of iterations =  1.8

     negative rho (up, down):  0.000E+00 2.387E-03

     total cpu time spent up to now is     1256.6 secs

     total energy              =   -5268.18938461 Ry
     Harris-Foulkes estimate   =   -5268.18934275 Ry
     estimated scf accuracy    <       0.00010281 Ry

     total magnetization       =    32.81 Bohr mag/cell
     absolute magnetization    =    34.55 Bohr mag/cell

     iteration # 16     ecut=    71.00 Ry     beta= 0.10
     Davidson diagonalization with overlap
     ethr =  4.02E-08,  avg # of iterations =  3.0

     negative rho (up, down):  0.000E+00 2.416E-03

     total cpu time spent up to now is     1351.7 secs

     total energy              =   -5268.18942069 Ry
     Harris-Foulkes estimate   =   -5268.18942402 Ry
     estimated scf accuracy    <       0.00008529 Ry

     total magnetization       =    32.84 Bohr mag/cell
     absolute magnetization    =    34.58 Bohr mag/cell

     iteration # 17     ecut=    71.00 Ry     beta= 0.10
     Davidson diagonalization with overlap
     ethr =  3.33E-08,  avg # of iterations =  2.0

     negative rho (up, down):  0.000E+00 2.449E-03

     total cpu time spent up to now is     1424.4 secs

     total energy              =   -5268.18943047 Ry
     Harris-Foulkes estimate   =   -5268.18942908 Ry
     estimated scf accuracy    <       0.00003050 Ry

     total magnetization       =    32.86 Bohr mag/cell
     absolute magnetization    =    34.61 Bohr mag/cell

     iteration # 18     ecut=    71.00 Ry     beta= 0.10
     Davidson diagonalization with overlap
     ethr =  1.19E-08,  avg # of iterations =  2.9

     negative rho (up, down):  0.000E+00 2.423E-03

     total cpu time spent up to now is     1508.5 secs

     total energy              =   -5268.18943868 Ry
     Harris-Foulkes estimate   =   -5268.18943465 Ry
     estimated scf accuracy    <       0.00001549 Ry

     total magnetization       =    32.88 Bohr mag/cell
     absolute magnetization    =    34.64 Bohr mag/cell

     iteration # 19     ecut=    71.00 Ry     beta= 0.10
     Davidson diagonalization with overlap
     ethr =  6.05E-09,  avg # of iterations =  3.3

     negative rho (up, down):  0.000E+00 2.439E-03

     total cpu time spent up to now is     1607.1 secs

     total energy              =   -5268.18944368 Ry
     Harris-Foulkes estimate   =   -5268.18944380 Ry
     estimated scf accuracy    <       0.00001375 Ry

     total magnetization       =    32.88 Bohr mag/cell
     absolute magnetization    =    34.64 Bohr mag/cell

     iteration # 20     ecut=    71.00 Ry     beta= 0.10
     Davidson diagonalization with overlap
     ethr =  5.37E-09,  avg # of iterations =  2.0

     negative rho (up, down):  0.000E+00 2.446E-03

     total cpu time spent up to now is     1679.7 secs

     total energy              =   -5268.18944640 Ry
     Harris-Foulkes estimate   =   -5268.18944501 Ry
     estimated scf accuracy    <       0.00000485 Ry

     total magnetization       =    32.89 Bohr mag/cell
     absolute magnetization    =    34.66 Bohr mag/cell

     iteration # 21     ecut=    71.00 Ry     beta= 0.10
     Davidson diagonalization with overlap
     ethr =  1.89E-09,  avg # of iterations =  1.6

     negative rho (up, down):  0.000E+00 2.451E-03

     total cpu time spent up to now is     1742.2 secs

     total energy              =   -5268.18944757 Ry
     Harris-Foulkes estimate   =   -5268.18944690 Ry
     estimated scf accuracy    <       0.00000103 Ry

     total magnetization       =    32.90 Bohr mag/cell
     absolute magnetization    =    34.66 Bohr mag/cell

     iteration # 22     ecut=    71.00 Ry     beta= 0.10
     Davidson diagonalization with overlap
     ethr =  4.04E-10,  avg # of iterations =  2.4

     negative rho (up, down):  0.000E+00 2.464E-03
 
     Magnetic moment per site:
     atom:    1    charge:   14.3611    magn:    2.0988    constr:    0.0000
     atom:    2    charge:   14.3610    magn:    2.1016    constr:    0.0000
     atom:    3    charge:   14.3611    magn:    2.0998    constr:    0.0000
     atom:    4    charge:   14.3609    magn:    2.1015    constr:    0.0000
     atom:    5    charge:   14.3611    magn:    2.0998    constr:    0.0000
     atom:    6    charge:   14.3609    magn:    2.1015    constr:    0.0000
     atom:    7    charge:   14.3611    magn:    2.1003    constr:    0.0000
     atom:    8    charge:   14.3610    magn:    2.1016    constr:    0.0000
     atom:    9    charge:   14.3610    magn:    2.0979    constr:    0.0000
     atom:   10    charge:   14.3610    magn:    2.1016    constr:    0.0000
     atom:   11    charge:   14.3609    magn:    2.0985    constr:    0.0000
     atom:   12    charge:   14.3609    magn:    2.1015    constr:    0.0000
     atom:   13    charge:   14.3609    magn:    2.0985    constr:    0.0000
     atom:   14    charge:   14.3609    magn:    2.1015    constr:    0.0000
     atom:   15    charge:   14.3610    magn:    2.0993    constr:    0.0000
     atom:   16    charge:   14.3610    magn:    2.1016    constr:    0.0000

     total cpu time spent up to now is     1817.4 secs

     End of self-consistent calculation

     Number of k-points >= 100: set verbosity='high' to print the bands.

     the Fermi energy is    18.9743 ev

!    total energy              =   -5268.18945046 Ry
     Harris-Foulkes estimate   =   -5268.18944763 Ry
     estimated scf accuracy    <       0.00000086 Ry

     total all-electron energy =    -40728.933979 Ry

     The total energy is the sum of the following terms:

     one-electron contribution =   -1707.43376284 Ry
     hartree contribution      =    1022.27902100 Ry
     xc contribution           =    -444.25987359 Ry
     ewald contribution        =   -2814.22794148 Ry
     one-center paw contrib.   =   -1324.67104993 Ry
     smearing contrib. (-TS)   =       0.12415637 Ry

     total magnetization       =    32.90 Bohr mag/cell
     absolute magnetization    =    34.66 Bohr mag/cell

     convergence has been achieved in  22 iterations

     negative rho (up, down):  0.000E+00 2.464E-03

     Forces acting on atoms (cartesian axes, Ry/au):

     atom    1 type  1   force =     0.00000000    0.00000000    0.00000000
     atom    2 type  2   force =    -0.00011595    0.00009637    0.00009637
     atom    3 type  1   force =     0.00000000    0.00000000    0.00000000
     atom    4 type  2   force =     0.00007860    0.00011284   -0.00011284
     atom    5 type  1   force =     0.00000000    0.00000000    0.00000000
     atom    6 type  2   force =     0.00007860   -0.00011284    0.00011284
     atom    7 type  1   force =     0.00000000    0.00000000    0.00000000
     atom    8 type  2   force =    -0.00011595   -0.00009637   -0.00009637
     atom    9 type  1   force =     0.00000000    0.00000000    0.00000000
     atom   10 type  2   force =     0.00011595    0.00009637    0.00009637
     atom   11 type  1   force =     0.00000000    0.00000000    0.00000000
     atom   12 type  2   force =    -0.00007860    0.00011284   -0.00011284
     atom   13 type  1   force =     0.00000000    0.00000000    0.00000000
     atom   14 type  2   force =    -0.00007860   -0.00011284    0.00011284
     atom   15 type  1   force =     0.00000000    0.00000000    0.00000000
     atom   16 type  2   force =     0.00011595   -0.00009637   -0.00009637

     Total force =     0.000505     Total SCF correction =     0.006034
     SCF correction compared to forces is large: reduce conv_thr to get better values


     Computing stress (Cartesian axis) and pressure


     negative rho (up, down):  0.000E+00 2.464E-03
          total   stress  (Ry/bohr**3)                   (kbar)     P=   -2.89
  -0.00001982   0.00000000   0.00000000         -2.92      0.00      0.00
   0.00000000  -0.00001959  -0.00002463          0.00     -2.88     -3.62
   0.00000000  -0.00002463  -0.00001959          0.00     -3.62     -2.88


     Writing output data file NhznWKjHbGWRmopy.save/
 
     init_run     :     21.38s CPU     22.24s WALL (       1 calls)
     electrons    :   1742.25s CPU   1793.90s WALL (       1 calls)
     forces       :      7.64s CPU      8.32s WALL (       1 calls)
     stress       :     20.57s CPU     20.77s WALL (       1 calls)

     Called by init_run:
     wfcinit      :     20.82s CPU     21.61s WALL (       1 calls)
     potinit      :      0.25s CPU      0.27s WALL (       1 calls)
     hinit0       :      0.20s CPU      0.21s WALL (       1 calls)

     Called by electrons:
     c_bands      :   1578.34s CPU   1621.60s WALL (      23 calls)
     sum_band     :    159.18s CPU    166.99s WALL (      23 calls)
     v_of_rho     :      0.35s CPU      0.35s WALL (      23 calls)
     newd         :      0.74s CPU      0.94s WALL (      23 calls)
     PAW_pot      :      3.52s CPU      3.78s WALL (      23 calls)
     mix_rho      :      0.20s CPU      0.20s WALL (      23 calls)

     Called by c_bands:
     init_us_2    :      7.97s CPU      8.05s WALL (   12250 calls)
     cegterg      :   1537.04s CPU   1579.87s WALL (    5750 calls)

     Called by sum_band:
     sum_band:bec :      2.17s CPU      2.20s WALL (    5750 calls)
     addusdens    :      1.23s CPU      1.42s WALL (      23 calls)

     Called by *egterg:
     h_psi        :    638.77s CPU    665.01s WALL (   19462 calls)
     s_psi        :     33.15s CPU     33.41s WALL (   19462 calls)
     g_psi        :      1.34s CPU      1.36s WALL (   13462 calls)
     cdiaghg      :    712.61s CPU    715.04s WALL (   18962 calls)

     Called by h_psi:
     h_psi:pot    :    635.41s CPU    661.61s WALL (   19462 calls)
     h_psi:calbec :     53.10s CPU     61.23s WALL (   19462 calls)
     vloc_psi     :    548.25s CPU    566.03s WALL (   19462 calls)
     add_vuspsi   :     33.89s CPU     34.23s WALL (   19462 calls)

     General routines
     calbec       :     81.07s CPU     93.58s WALL (   26462 calls)
     fft          :      0.43s CPU      0.46s WALL (     617 calls)
     ffts         :      0.05s CPU      0.24s WALL (      92 calls)
     fftw         :    638.04s CPU    658.48s WALL ( 4844492 calls)
     interpolate  :      0.10s CPU      0.18s WALL (      46 calls)
 
     Parallel routines
     fft_scatt_xy :     41.69s CPU     43.03s WALL ( 4845201 calls)
     fft_scatt_yz :    429.05s CPU    443.25s WALL ( 4845201 calls)
 
     PWSCF        : 30m 6.51s CPU    31m48.35s WALL

 
   This run was terminated on:   9:36:27   2Nov2020            

=------------------------------------------------------------------------------=
   JOB DONE.
=------------------------------------------------------------------------------=
