--------------------------------------------------------------------------
WARNING: No preset parameters were found for the device that Open MPI
detected:

  Local host:            bear-pg0206u39a
  Device name:           mlx5_0
  Device vendor ID:      0x02c9
  Device vendor part ID: 4123

Default device parameters will be used, which may result in lower
performance.  You can edit any of the files specified by the
btl_openib_device_param_files MCA parameter to set values for your
device.

NOTE: You can turn off this warning by setting the MCA parameter
      btl_openib_warn_no_device_params_found to 0.
--------------------------------------------------------------------------
--------------------------------------------------------------------------
WARNING: There was an error initializing an OpenFabrics device.

  Local host:   bear-pg0206u39a
  Local device: mlx5_0
--------------------------------------------------------------------------

     Program PWSCF v.6.3 starts on 10Sep2020 at  0:29: 3 

     This program is part of the open-source Quantum ESPRESSO suite
     for quantum simulation of materials; please cite
         "P. Giannozzi et al., J. Phys.:Condens. Matter 21 395502 (2009);
         "P. Giannozzi et al., J. Phys.:Condens. Matter 29 465901 (2017);
          URL http://www.quantum-espresso.org", 
     in publications or presentations arising from this work. More details at
     http://www.quantum-espresso.org/quote

     Parallel version (MPI & OpenMP), running on      40 processor cores
     Number of MPI processes:                40
     Threads/MPI process:                     1

     MPI processes distributed on     1 nodes
     R & G space division:  proc/nbgrp/npool/nimage =      40
     Reading input from wd/ec/ec_6_005.in
Warning: card &IONS ignored
Warning: card ION_DYNAMICS = 'BFGS', ignored
Warning: card / ignored
Warning: card &CELL ignored
Warning: card CELL_DYNAMICS = 'BFGS', ignored
Warning: card CELL_FACTOR = 2.0, ignored
Warning: card PRESS = 0.0, ignored
Warning: card / ignored

     Current dimensions of program PWSCF are:
     Max number of different atomic species (ntypx) = 10
     Max number of k-points (npk) =  40000
     Max angular momentum in pseudopotentials (lmaxx) =  3
               file Fe.pbe-spn-kjpaw_psl.1.0.0.UPF: wavefunction(s)  3P 3D renormalized
               file Fe.pbe-spn-kjpaw_psl.1.0.0.UPF: wavefunction(s)  3P 3D renormalized

     Subspace diagonalization in iterative solution of the eigenvalue problem:
     a serial algorithm will be used

     Found symmetry operation: I + (  0.0000  0.0000  0.5000)
     This is a supercell, fractional translations are disabled
 
     Parallelization info
     --------------------
     sticks:   dense  smooth     PW     G-vecs:    dense   smooth      PW
     Min          95      63     17                 4473     2401     355
     Max          96      64     18                 4478     2406     360
     Sum        3829    2545    717               179025    96125   14307
 


     bravais-lattice index     =            0
     lattice parameter (alat)  =      10.5935  a.u.
     unit-cell volume          =    1188.8329 (a.u.)^3
     number of atoms/cell      =           16
     number of atomic types    =            2
     number of electrons       =       256.00
     number of Kohn-Sham states=          154
     kinetic-energy cutoff     =      71.0000  Ry
     charge density cutoff     =     430.0000  Ry
     convergence threshold     =      1.0E-06
     mixing beta               =       0.1000
     number of iterations used =           10  plain     mixing
     Exchange-correlation      = SLA PW PBX PBC ( 1  4  3  4 0 0)

     celldm(1)=  10.593520  celldm(2)=   0.000000  celldm(3)=   0.000000
     celldm(4)=   0.000000  celldm(5)=   0.000000  celldm(6)=   0.000000

     crystal axes: (cart. coord. in units of alat)
               a(1) = (   1.000004   0.003333   0.000000 )  
               a(2) = (   0.003333   1.000004   0.000000 )  
               a(3) = (   0.000000   0.000000   1.000004 )  

     reciprocal axes: (cart. coord. in units 2 pi/alat)
               b(1) = (  1.000007 -0.003333  0.000000 )  
               b(2) = ( -0.003333  1.000007  0.000000 )  
               b(3) = (  0.000000  0.000000  0.999996 )  


     PseudoPot. # 1 for Fe read from file:
     /rds/homes/b/bxp912/pp/Fe.pbe-spn-kjpaw_psl.1.0.0.UPF
     MD5 check sum: 42f43b795421b414b0dc916aa790dbcb
     Pseudo is Projector augmented-wave + core cor, Zval = 16.0
     Generated using "atomic" code by A. Dal Corso v.6.3
     Shape of augmentation charge: PSQ
     Using radial grid of 1191 points,  6 beta functions with: 
                l(1) =   0
                l(2) =   0
                l(3) =   1
                l(4) =   1
                l(5) =   2
                l(6) =   2
     Q(r) pseudized with 0 coefficients 


     PseudoPot. # 2 for Fe read from file:
     /rds/homes/b/bxp912/pp/Fe.pbe-spn-kjpaw_psl.1.0.0.UPF
     MD5 check sum: 42f43b795421b414b0dc916aa790dbcb
     Pseudo is Projector augmented-wave + core cor, Zval = 16.0
     Generated using "atomic" code by A. Dal Corso v.6.3
     Shape of augmentation charge: PSQ
     Using radial grid of 1191 points,  6 beta functions with: 
                l(1) =   0
                l(2) =   0
                l(3) =   1
                l(4) =   1
                l(5) =   2
                l(6) =   2
     Q(r) pseudized with 0 coefficients 


     atomic species   valence    mass     pseudopotential
        Fe1           16.00    55.84500     Fe( 1.00)
        Fe2           16.00    55.84500     Fe( 1.00)

     Starting magnetic structure 
     atomic species   magnetization
        Fe1          0.100
        Fe2          0.100

      8 Sym. Ops., with inversion, found



   Cartesian axes

     site n.     atom                  positions (alat units)
         1           Fe1 tau(   1) = (   0.0000000   0.0000000   0.0000000  )
         2           Fe2 tau(   2) = (   0.2508347   0.2508347   0.2500014  )
         3           Fe1 tau(   3) = (   0.0000000   0.0000000   0.5000019  )
         4           Fe2 tau(   4) = (   0.2508347   0.2508347   0.7500023  )
         5           Fe1 tau(   5) = (   0.0016667   0.5000019   0.0000000  )
         6           Fe2 tau(   6) = (   0.2525014   0.7508357   0.2500014  )
         7           Fe1 tau(   7) = (   0.0016667   0.5000019   0.5000019  )
         8           Fe2 tau(   8) = (   0.2525014   0.7508357   0.7500023  )
         9           Fe1 tau(   9) = (   0.5000019   0.0016667   0.0000000  )
        10           Fe2 tau(  10) = (   0.7508357   0.2525014   0.2500014  )
        11           Fe1 tau(  11) = (   0.5000019   0.0016667   0.5000019  )
        12           Fe2 tau(  12) = (   0.7508357   0.2525014   0.7500023  )
        13           Fe1 tau(  13) = (   0.5016685   0.5016685   0.0000000  )
        14           Fe2 tau(  14) = (   0.7525024   0.7525024   0.2500014  )
        15           Fe1 tau(  15) = (   0.5016685   0.5016685   0.5000019  )
        16           Fe2 tau(  16) = (   0.7525024   0.7525024   0.7500023  )

     number of k points=   125  Marzari-Vanderbilt smearing, width (Ry)=  0.0400

     Number of k-points >= 100: set verbosity='high' to print them.

     Dense  grid:   179025 G-vectors     FFT dimensions: (  72,  72,  72)

     Smooth grid:    96125 G-vectors     FFT dimensions: (  60,  60,  60)

     Estimated max dynamical RAM per process >     215.38 MB

     Estimated total dynamical RAM >       8.41 GB
     Generating pointlists ...
     new r_m :   0.1782 (alat units)  1.8880 (a.u.) for type    1
     new r_m :   0.1782 (alat units)  1.8880 (a.u.) for type    2

     Check: negative/imaginary core charge=   -0.000006    0.000000

     Initial potential from superposition of free atoms

     starting charge  255.99300, renormalised to  256.00000
     Starting wfcs are  160 randomized atomic wfcs
     Checking if some PAW data can be deallocated... 

     total cpu time spent up to now is       23.6 secs

     Self-consistent Calculation

     iteration #  1     ecut=    71.00 Ry     beta= 0.10
     Davidson diagonalization with overlap
     ethr =  1.00E-02,  avg # of iterations =  3.4

     Threshold (ethr) on eigenvalues was too large:
     Diagonalizing with lowered threshold

     Davidson diagonalization with overlap
     ethr =  2.16E-04,  avg # of iterations =  3.6

     total cpu time spent up to now is      216.8 secs

     total energy              =   -5268.02474239 Ry
     Harris-Foulkes estimate   =   -5268.09740154 Ry
     estimated scf accuracy    <       0.63346925 Ry

     total magnetization       =    27.93 Bohr mag/cell
     absolute magnetization    =    28.05 Bohr mag/cell

     iteration #  2     ecut=    71.00 Ry     beta= 0.10
     Davidson diagonalization with overlap
     ethr =  2.47E-04,  avg # of iterations =  1.0

     total cpu time spent up to now is      272.3 secs

     total energy              =   -5267.99322196 Ry
     Harris-Foulkes estimate   =   -5268.03892244 Ry
     estimated scf accuracy    <       0.38579928 Ry

     total magnetization       =    28.58 Bohr mag/cell
     absolute magnetization    =    28.72 Bohr mag/cell

     iteration #  3     ecut=    71.00 Ry     beta= 0.10
     Davidson diagonalization with overlap
     ethr =  1.51E-04,  avg # of iterations =  2.4

     total cpu time spent up to now is      347.6 secs

     total energy              =   -5268.02023003 Ry
     Harris-Foulkes estimate   =   -5268.03005852 Ry
     estimated scf accuracy    <       0.39968566 Ry

     total magnetization       =    29.35 Bohr mag/cell
     absolute magnetization    =    29.62 Bohr mag/cell

     iteration #  4     ecut=    71.00 Ry     beta= 0.10
     Davidson diagonalization with overlap
     ethr =  1.51E-04,  avg # of iterations =  1.5

     total cpu time spent up to now is      408.6 secs

     total energy              =   -5268.04484726 Ry
     Harris-Foulkes estimate   =   -5268.04174729 Ry
     estimated scf accuracy    <       0.13107574 Ry

     total magnetization       =    30.13 Bohr mag/cell
     absolute magnetization    =    30.45 Bohr mag/cell

     iteration #  5     ecut=    71.00 Ry     beta= 0.10
     Davidson diagonalization with overlap
     ethr =  5.12E-05,  avg # of iterations =  1.5

     total cpu time spent up to now is      470.2 secs

     total energy              =   -5268.10623288 Ry
     Harris-Foulkes estimate   =   -5268.04764212 Ry
     estimated scf accuracy    <       0.10607054 Ry

     total magnetization       =    30.21 Bohr mag/cell
     absolute magnetization    =    30.56 Bohr mag/cell

     iteration #  6     ecut=    71.00 Ry     beta= 0.10
     Davidson diagonalization with overlap
     ethr =  4.14E-05,  avg # of iterations =  3.2

     negative rho (up, down):  0.000E+00 7.623E-04

     total cpu time spent up to now is      571.5 secs

     total energy              =   -5268.16084269 Ry
     Harris-Foulkes estimate   =   -5268.14085508 Ry
     estimated scf accuracy    <       0.13388123 Ry

     total magnetization       =    31.01 Bohr mag/cell
     absolute magnetization    =    31.75 Bohr mag/cell

     iteration #  7     ecut=    71.00 Ry     beta= 0.10
     Davidson diagonalization with overlap
     ethr =  4.14E-05,  avg # of iterations =  2.7

     negative rho (up, down):  0.000E+00 1.195E-03

     total cpu time spent up to now is      656.1 secs

     total energy              =   -5268.17747666 Ry
     Harris-Foulkes estimate   =   -5268.17698793 Ry
     estimated scf accuracy    <       0.04090857 Ry

     total magnetization       =    31.86 Bohr mag/cell
     absolute magnetization    =    33.01 Bohr mag/cell

     iteration #  8     ecut=    71.00 Ry     beta= 0.10
     Davidson diagonalization with overlap
     ethr =  1.60E-05,  avg # of iterations =  1.2

     negative rho (up, down):  0.000E+00 1.295E-03

     total cpu time spent up to now is      714.7 secs

     total energy              =   -5268.17908641 Ry
     Harris-Foulkes estimate   =   -5268.17916765 Ry
     estimated scf accuracy    <       0.02735934 Ry

     total magnetization       =    32.02 Bohr mag/cell
     absolute magnetization    =    33.23 Bohr mag/cell

     iteration #  9     ecut=    71.00 Ry     beta= 0.10
     Davidson diagonalization with overlap
     ethr =  1.07E-05,  avg # of iterations =  2.1

     negative rho (up, down):  0.000E+00 1.826E-03

     total cpu time spent up to now is      787.2 secs

     total energy              =   -5268.18537624 Ry
     Harris-Foulkes estimate   =   -5268.18119205 Ry
     estimated scf accuracy    <       0.01368571 Ry

     total magnetization       =    32.26 Bohr mag/cell
     absolute magnetization    =    33.60 Bohr mag/cell

     iteration # 10     ecut=    71.00 Ry     beta= 0.10
     Davidson diagonalization with overlap
     ethr =  5.35E-06,  avg # of iterations =  1.5

     negative rho (up, down):  0.000E+00 2.419E-03

     total cpu time spent up to now is      849.2 secs

     total energy              =   -5268.18755691 Ry
     Harris-Foulkes estimate   =   -5268.18605507 Ry
     estimated scf accuracy    <       0.00632505 Ry

     total magnetization       =    32.44 Bohr mag/cell
     absolute magnetization    =    33.88 Bohr mag/cell

     iteration # 11     ecut=    71.00 Ry     beta= 0.10
     Davidson diagonalization with overlap
     ethr =  2.47E-06,  avg # of iterations =  3.5

     negative rho (up, down):  0.000E+00 2.348E-03

     total cpu time spent up to now is      943.6 secs

     total energy              =   -5268.18846931 Ry
     Harris-Foulkes estimate   =   -5268.18845459 Ry
     estimated scf accuracy    <       0.00135724 Ry

     total magnetization       =    32.64 Bohr mag/cell
     absolute magnetization    =    34.26 Bohr mag/cell

     iteration # 12     ecut=    71.00 Ry     beta= 0.10
     Davidson diagonalization with overlap
     ethr =  5.30E-07,  avg # of iterations =  1.3

     negative rho (up, down):  0.000E+00 2.319E-03

     total cpu time spent up to now is     1002.9 secs

     total energy              =   -5268.18877530 Ry
     Harris-Foulkes estimate   =   -5268.18851138 Ry
     estimated scf accuracy    <       0.00087133 Ry

     total magnetization       =    32.65 Bohr mag/cell
     absolute magnetization    =    34.27 Bohr mag/cell

     iteration # 13     ecut=    71.00 Ry     beta= 0.10
     Davidson diagonalization with overlap
     ethr =  3.40E-07,  avg # of iterations =  2.5

     negative rho (up, down):  0.000E+00 2.401E-03

     total cpu time spent up to now is     1082.3 secs

     total energy              =   -5268.18905264 Ry
     Harris-Foulkes estimate   =   -5268.18889234 Ry
     estimated scf accuracy    <       0.00116634 Ry

     total magnetization       =    32.72 Bohr mag/cell
     absolute magnetization    =    34.39 Bohr mag/cell

     iteration # 14     ecut=    71.00 Ry     beta= 0.10
     Davidson diagonalization with overlap
     ethr =  3.40E-07,  avg # of iterations =  2.0

     negative rho (up, down):  0.000E+00 2.451E-03

     total cpu time spent up to now is     1155.3 secs

     total energy              =   -5268.18910987 Ry
     Harris-Foulkes estimate   =   -5268.18912818 Ry
     estimated scf accuracy    <       0.00062980 Ry

     total magnetization       =    32.79 Bohr mag/cell
     absolute magnetization    =    34.50 Bohr mag/cell

     iteration # 15     ecut=    71.00 Ry     beta= 0.10
     Davidson diagonalization with overlap
     ethr =  2.46E-07,  avg # of iterations =  1.4

     negative rho (up, down):  0.000E+00 2.345E-03

     total cpu time spent up to now is     1215.5 secs

     total energy              =   -5268.18917024 Ry
     Harris-Foulkes estimate   =   -5268.18914523 Ry
     estimated scf accuracy    <       0.00010392 Ry

     total magnetization       =    32.82 Bohr mag/cell
     absolute magnetization    =    34.55 Bohr mag/cell

     iteration # 16     ecut=    71.00 Ry     beta= 0.10
     Davidson diagonalization with overlap
     ethr =  4.06E-08,  avg # of iterations =  3.1

     negative rho (up, down):  0.000E+00 2.431E-03

     total cpu time spent up to now is     1308.0 secs

     total energy              =   -5268.18920139 Ry
     Harris-Foulkes estimate   =   -5268.18919253 Ry
     estimated scf accuracy    <       0.00015953 Ry

     total magnetization       =    32.82 Bohr mag/cell
     absolute magnetization    =    34.55 Bohr mag/cell

     iteration # 17     ecut=    71.00 Ry     beta= 0.10
     Davidson diagonalization with overlap
     ethr =  4.06E-08,  avg # of iterations =  2.6

     negative rho (up, down):  0.000E+00 2.413E-03

     total cpu time spent up to now is     1393.7 secs

     total energy              =   -5268.18924111 Ry
     Harris-Foulkes estimate   =   -5268.18923343 Ry
     estimated scf accuracy    <       0.00004200 Ry

     total magnetization       =    32.86 Bohr mag/cell
     absolute magnetization    =    34.62 Bohr mag/cell

     iteration # 18     ecut=    71.00 Ry     beta= 0.10
     Davidson diagonalization with overlap
     ethr =  1.64E-08,  avg # of iterations =  2.2

     negative rho (up, down):  0.000E+00 2.411E-03

     total cpu time spent up to now is     1465.7 secs

     total energy              =   -5268.18924671 Ry
     Harris-Foulkes estimate   =   -5268.18924491 Ry
     estimated scf accuracy    <       0.00001821 Ry

     total magnetization       =    32.88 Bohr mag/cell
     absolute magnetization    =    34.63 Bohr mag/cell

     iteration # 19     ecut=    71.00 Ry     beta= 0.10
     Davidson diagonalization with overlap
     ethr =  7.11E-09,  avg # of iterations =  1.1

     negative rho (up, down):  0.000E+00 2.430E-03

     total cpu time spent up to now is     1522.5 secs

     total energy              =   -5268.18924668 Ry
     Harris-Foulkes estimate   =   -5268.18924726 Ry
     estimated scf accuracy    <       0.00001145 Ry

     total magnetization       =    32.88 Bohr mag/cell
     absolute magnetization    =    34.64 Bohr mag/cell

     iteration # 20     ecut=    71.00 Ry     beta= 0.10
     Davidson diagonalization with overlap
     ethr =  4.47E-09,  avg # of iterations =  3.1

     negative rho (up, down):  0.000E+00 2.437E-03

     total cpu time spent up to now is     1615.0 secs

     total energy              =   -5268.18925026 Ry
     Harris-Foulkes estimate   =   -5268.18924991 Ry
     estimated scf accuracy    <       0.00000241 Ry

     total magnetization       =    32.90 Bohr mag/cell
     absolute magnetization    =    34.66 Bohr mag/cell

     iteration # 21     ecut=    71.00 Ry     beta= 0.10
     Davidson diagonalization with overlap
     ethr =  9.42E-10,  avg # of iterations =  1.3

     negative rho (up, down):  0.000E+00 2.438E-03

     total cpu time spent up to now is     1673.6 secs

     total energy              =   -5268.18925059 Ry
     Harris-Foulkes estimate   =   -5268.18925043 Ry
     estimated scf accuracy    <       0.00000124 Ry

     total magnetization       =    32.90 Bohr mag/cell
     absolute magnetization    =    34.66 Bohr mag/cell

     iteration # 22     ecut=    71.00 Ry     beta= 0.10
     Davidson diagonalization with overlap
     ethr =  4.83E-10,  avg # of iterations =  1.0

     negative rho (up, down):  0.000E+00 2.463E-03
 
     Magnetic moment per site:
     atom:    1    charge:   14.3529    magn:    2.0995    constr:    0.0000
     atom:    2    charge:   14.3529    magn:    2.1005    constr:    0.0000
     atom:    3    charge:   14.3529    magn:    2.1002    constr:    0.0000
     atom:    4    charge:   14.3529    magn:    2.1005    constr:    0.0000
     atom:    5    charge:   14.3529    magn:    2.0994    constr:    0.0000
     atom:    6    charge:   14.3528    magn:    2.1008    constr:    0.0000
     atom:    7    charge:   14.3529    magn:    2.0999    constr:    0.0000
     atom:    8    charge:   14.3528    magn:    2.1008    constr:    0.0000
     atom:    9    charge:   14.3529    magn:    2.0994    constr:    0.0000
     atom:   10    charge:   14.3528    magn:    2.1008    constr:    0.0000
     atom:   11    charge:   14.3529    magn:    2.0999    constr:    0.0000
     atom:   12    charge:   14.3528    magn:    2.1008    constr:    0.0000
     atom:   13    charge:   14.3529    magn:    2.0993    constr:    0.0000
     atom:   14    charge:   14.3529    magn:    2.1005    constr:    0.0000
     atom:   15    charge:   14.3528    magn:    2.1000    constr:    0.0000
     atom:   16    charge:   14.3529    magn:    2.1005    constr:    0.0000

     total cpu time spent up to now is     1729.0 secs

     End of self-consistent calculation

     Number of k-points >= 100: set verbosity='high' to print the bands.

     the Fermi energy is    18.9745 ev

!    total energy              =   -5268.18925157 Ry
     Harris-Foulkes estimate   =   -5268.18925063 Ry
     estimated scf accuracy    <       0.00000068 Ry

     total all-electron energy =    -40728.933781 Ry

     The total energy is the sum of the following terms:

     one-electron contribution =   -1707.45659592 Ry
     hartree contribution      =    1022.29218999 Ry
     xc contribution           =    -444.26066964 Ry
     ewald contribution        =   -2814.21722472 Ry
     one-center paw contrib.   =   -1324.67106931 Ry
     smearing contrib. (-TS)   =       0.12411803 Ry

     total magnetization       =    32.90 Bohr mag/cell
     absolute magnetization    =    34.66 Bohr mag/cell

     convergence has been achieved in  22 iterations

     negative rho (up, down):  0.000E+00 2.463E-03

     Forces acting on atoms (cartesian axes, Ry/au):

     atom    1 type  1   force =     0.00000000    0.00000000    0.00000000
     atom    2 type  2   force =     0.00005156    0.00005156   -0.00006521
     atom    3 type  1   force =     0.00000000    0.00000000    0.00000000
     atom    4 type  2   force =     0.00005156    0.00005156    0.00006521
     atom    5 type  1   force =     0.00000000    0.00000000    0.00000000
     atom    6 type  2   force =     0.00032188   -0.00032188    0.00026145
     atom    7 type  1   force =     0.00000000    0.00000000    0.00000000
     atom    8 type  2   force =     0.00032188   -0.00032188   -0.00026145
     atom    9 type  1   force =     0.00000000    0.00000000    0.00000000
     atom   10 type  2   force =    -0.00032188    0.00032188    0.00026145
     atom   11 type  1   force =     0.00000000    0.00000000    0.00000000
     atom   12 type  2   force =    -0.00032188    0.00032188   -0.00026145
     atom   13 type  1   force =     0.00000000    0.00000000    0.00000000
     atom   14 type  2   force =    -0.00005156   -0.00005156   -0.00006521
     atom   15 type  1   force =     0.00000000    0.00000000    0.00000000
     atom   16 type  2   force =    -0.00005156   -0.00005156    0.00006521

     Total force =     0.001068     Total SCF correction =     0.005317
     SCF correction compared to forces is large: reduce conv_thr to get better values


     Computing stress (Cartesian axis) and pressure


     negative rho (up, down):  0.000E+00 2.463E-03
          total   stress  (Ry/bohr**3)                   (kbar)     P=   -2.38
  -0.00001634  -0.00006180   0.00000000         -2.40     -9.09      0.00
  -0.00006180  -0.00001634   0.00000000         -9.09     -2.40      0.00
   0.00000000   0.00000000  -0.00001578          0.00      0.00     -2.32


     Writing output data file cHvmlkfHCXfzzFHO.save/
 
     init_run     :     21.44s CPU     22.33s WALL (       1 calls)
     electrons    :   1653.70s CPU   1705.39s WALL (       1 calls)
     forces       :      7.69s CPU      8.37s WALL (       1 calls)
     stress       :     21.57s CPU     21.79s WALL (       1 calls)

     Called by init_run:
     wfcinit      :     21.00s CPU     21.81s WALL (       1 calls)
     potinit      :      0.20s CPU      0.22s WALL (       1 calls)
     hinit0       :      0.14s CPU      0.18s WALL (       1 calls)

     Called by electrons:
     c_bands      :   1488.49s CPU   1531.21s WALL (      23 calls)
     sum_band     :    160.67s CPU    169.07s WALL (      23 calls)
     v_of_rho     :      0.35s CPU      0.35s WALL (      23 calls)
     newd         :      0.72s CPU      0.92s WALL (      23 calls)
     PAW_pot      :      3.44s CPU      3.71s WALL (      23 calls)
     mix_rho      :      0.12s CPU      0.14s WALL (      23 calls)

     Called by c_bands:
     init_us_2    :      8.56s CPU      8.75s WALL (   12250 calls)
     cegterg      :   1446.74s CPU   1488.85s WALL (    5750 calls)

     Called by sum_band:
     sum_band:bec :      2.43s CPU      2.47s WALL (    5750 calls)
     addusdens    :      1.23s CPU      1.41s WALL (      23 calls)

     Called by *egterg:
     h_psi        :    624.89s CPU    650.89s WALL (   18372 calls)
     s_psi        :     34.79s CPU     34.99s WALL (   18372 calls)
     g_psi        :      1.43s CPU      1.45s WALL (   12372 calls)
     cdiaghg      :    642.57s CPU    644.52s WALL (   17872 calls)

     Called by h_psi:
     h_psi:pot    :    621.24s CPU    647.20s WALL (   18372 calls)
     h_psi:calbec :     52.24s CPU     60.22s WALL (   18372 calls)
     vloc_psi     :    533.45s CPU    551.23s WALL (   18372 calls)
     add_vuspsi   :     35.39s CPU     35.63s WALL (   18372 calls)

     General routines
     calbec       :     79.56s CPU     92.13s WALL (   25372 calls)
     fft          :      0.36s CPU      0.39s WALL (     617 calls)
     ffts         :      0.06s CPU      0.23s WALL (      92 calls)
     fftw         :    623.40s CPU    644.05s WALL ( 4758088 calls)
     interpolate  :      0.07s CPU      0.15s WALL (      46 calls)
 
     Parallel routines
     fft_scatt_xy :     42.00s CPU     43.39s WALL ( 4758797 calls)
     fft_scatt_yz :    412.35s CPU    426.34s WALL ( 4758797 calls)
 
     PWSCF        : 28m39.69s CPU    30m20.77s WALL

 
   This run was terminated on:   0:59:24  10Sep2020            

=------------------------------------------------------------------------------=
   JOB DONE.
=------------------------------------------------------------------------------=
