--------------------------------------------------------------------------
WARNING: No preset parameters were found for the device that Open MPI
detected:

  Local host:            bear-pg0206u26a
  Device name:           mlx5_0
  Device vendor ID:      0x02c9
  Device vendor part ID: 4123

Default device parameters will be used, which may result in lower
performance.  You can edit any of the files specified by the
btl_openib_device_param_files MCA parameter to set values for your
device.

NOTE: You can turn off this warning by setting the MCA parameter
      btl_openib_warn_no_device_params_found to 0.
--------------------------------------------------------------------------
--------------------------------------------------------------------------
WARNING: There was an error initializing an OpenFabrics device.

  Local host:   bear-pg0206u26a
  Local device: mlx5_0
--------------------------------------------------------------------------

     Program PWSCF v.6.3 starts on  3Nov2020 at  0:11: 6 

     This program is part of the open-source Quantum ESPRESSO suite
     for quantum simulation of materials; please cite
         "P. Giannozzi et al., J. Phys.:Condens. Matter 21 395502 (2009);
         "P. Giannozzi et al., J. Phys.:Condens. Matter 29 465901 (2017);
          URL http://www.quantum-espresso.org", 
     in publications or presentations arising from this work. More details at
     http://www.quantum-espresso.org/quote

     Parallel version (MPI & OpenMP), running on      40 processor cores
     Number of MPI processes:                40
     Threads/MPI process:                     1

     MPI processes distributed on     1 nodes
     R & G space division:  proc/nbgrp/npool/nimage =      40
     Reading input from wd/ec/ec_9_007.in
Warning: card &IONS ignored
Warning: card ION_DYNAMICS = 'BFGS', ignored
Warning: card / ignored
Warning: card &CELL ignored
Warning: card CELL_DYNAMICS = 'BFGS', ignored
Warning: card CELL_FACTOR = 2.0, ignored
Warning: card PRESS = 0.0, ignored
Warning: card / ignored

     Current dimensions of program PWSCF are:
     Max number of different atomic species (ntypx) = 10
     Max number of k-points (npk) =  40000
     Max angular momentum in pseudopotentials (lmaxx) =  3
               file Fe.pbe-spn-kjpaw_psl.1.0.0.UPF: wavefunction(s)  3P 3D renormalized
               file Fe.pbe-spn-kjpaw_psl.1.0.0.UPF: wavefunction(s)  3P 3D renormalized

     Subspace diagonalization in iterative solution of the eigenvalue problem:
     a serial algorithm will be used

     Found symmetry operation: I + (  0.0000  0.0000  0.5000)
     This is a supercell, fractional translations are disabled
 
     Parallelization info
     --------------------
     sticks:   dense  smooth     PW     G-vecs:    dense   smooth      PW
     Min          96      63     17                 4473     2401     355
     Max          98      64     18                 4475     2406     360
     Sum        3859    2553    717               178967    96149   14307
 


     bravais-lattice index     =            0
     lattice parameter (alat)  =      10.5935  a.u.
     unit-cell volume          =    1188.8329 (a.u.)^3
     number of atoms/cell      =           16
     number of atomic types    =            2
     number of electrons       =       256.00
     number of Kohn-Sham states=          154
     kinetic-energy cutoff     =      71.0000  Ry
     charge density cutoff     =     430.0000  Ry
     convergence threshold     =      1.0E-06
     mixing beta               =       0.1000
     number of iterations used =           10  plain     mixing
     Exchange-correlation      = SLA PW PBX PBC ( 1  4  3  4 0 0)

     celldm(1)=  10.593520  celldm(2)=   0.000000  celldm(3)=   0.000000
     celldm(4)=   0.000000  celldm(5)=   0.000000  celldm(6)=   0.000000

     crystal axes: (cart. coord. in units of alat)
               a(1) = (   1.000005   0.000000   0.000000 )  
               a(2) = (   0.000000   1.004005   0.000000 )  
               a(3) = (   0.000000   0.000000   0.996005 )  

     reciprocal axes: (cart. coord. in units 2 pi/alat)
               b(1) = (  0.999995  0.000000  0.000000 )  
               b(2) = (  0.000000  0.996011  0.000000 )  
               b(3) = (  0.000000  0.000000  1.004011 )  


     PseudoPot. # 1 for Fe read from file:
     /rds/homes/b/bxp912/pp/Fe.pbe-spn-kjpaw_psl.1.0.0.UPF
     MD5 check sum: 42f43b795421b414b0dc916aa790dbcb
     Pseudo is Projector augmented-wave + core cor, Zval = 16.0
     Generated using "atomic" code by A. Dal Corso v.6.3
     Shape of augmentation charge: PSQ
     Using radial grid of 1191 points,  6 beta functions with: 
                l(1) =   0
                l(2) =   0
                l(3) =   1
                l(4) =   1
                l(5) =   2
                l(6) =   2
     Q(r) pseudized with 0 coefficients 


     PseudoPot. # 2 for Fe read from file:
     /rds/homes/b/bxp912/pp/Fe.pbe-spn-kjpaw_psl.1.0.0.UPF
     MD5 check sum: 42f43b795421b414b0dc916aa790dbcb
     Pseudo is Projector augmented-wave + core cor, Zval = 16.0
     Generated using "atomic" code by A. Dal Corso v.6.3
     Shape of augmentation charge: PSQ
     Using radial grid of 1191 points,  6 beta functions with: 
                l(1) =   0
                l(2) =   0
                l(3) =   1
                l(4) =   1
                l(5) =   2
                l(6) =   2
     Q(r) pseudized with 0 coefficients 


     atomic species   valence    mass     pseudopotential
        Fe1           16.00    55.84500     Fe( 1.00)
        Fe2           16.00    55.84500     Fe( 1.00)

     Starting magnetic structure 
     atomic species   magnetization
        Fe1          0.100
        Fe2          0.100

      8 Sym. Ops., with inversion, found



   Cartesian axes

     site n.     atom                  positions (alat units)
         1           Fe1 tau(   1) = (   0.0000000   0.0000000   0.0000000  )
         2           Fe2 tau(   2) = (   0.2500018   0.2510018   0.2490018  )
         3           Fe1 tau(   3) = (   0.0000000   0.0000000   0.4980027  )
         4           Fe2 tau(   4) = (   0.2500018   0.2510018   0.7470036  )
         5           Fe1 tau(   5) = (   0.0000000   0.5020027   0.0000000  )
         6           Fe2 tau(   6) = (   0.2500018   0.7530036   0.2490018  )
         7           Fe1 tau(   7) = (   0.0000000   0.5020027   0.4980027  )
         8           Fe2 tau(   8) = (   0.2500018   0.7530036   0.7470036  )
         9           Fe1 tau(   9) = (   0.5000027   0.0000000   0.0000000  )
        10           Fe2 tau(  10) = (   0.7500036   0.2510018   0.2490018  )
        11           Fe1 tau(  11) = (   0.5000027   0.0000000   0.4980027  )
        12           Fe2 tau(  12) = (   0.7500036   0.2510018   0.7470036  )
        13           Fe1 tau(  13) = (   0.5000027   0.5020027   0.0000000  )
        14           Fe2 tau(  14) = (   0.7500036   0.7530036   0.2490018  )
        15           Fe1 tau(  15) = (   0.5000027   0.5020027   0.4980027  )
        16           Fe2 tau(  16) = (   0.7500036   0.7530036   0.7470036  )

     number of k points=   125  Marzari-Vanderbilt smearing, width (Ry)=  0.0400

     Number of k-points >= 100: set verbosity='high' to print them.

     Dense  grid:   178967 G-vectors     FFT dimensions: (  72,  72,  72)

     Smooth grid:    96149 G-vectors     FFT dimensions: (  60,  60,  60)

     Estimated max dynamical RAM per process >     215.38 MB

     Estimated total dynamical RAM >       8.41 GB
     Generating pointlists ...
     new r_m :   0.1786 (alat units)  1.8922 (a.u.) for type    1
     new r_m :   0.1786 (alat units)  1.8922 (a.u.) for type    2

     Check: negative/imaginary core charge=   -0.000006    0.000000

     Initial potential from superposition of free atoms

     starting charge  255.99300, renormalised to  256.00000
     Starting wfcs are  160 randomized atomic wfcs
     Checking if some PAW data can be deallocated... 

     total cpu time spent up to now is       23.3 secs

     Self-consistent Calculation

     iteration #  1     ecut=    71.00 Ry     beta= 0.10
     Davidson diagonalization with overlap
     ethr =  1.00E-02,  avg # of iterations =  3.3

     Threshold (ethr) on eigenvalues was too large:
     Diagonalizing with lowered threshold

     Davidson diagonalization with overlap
     ethr =  2.83E-04,  avg # of iterations =  3.4

     total cpu time spent up to now is      208.7 secs

     total energy              =   -5268.17612153 Ry
     Harris-Foulkes estimate   =   -5268.32780082 Ry
     estimated scf accuracy    <       0.82019898 Ry

     total magnetization       =    28.04 Bohr mag/cell
     absolute magnetization    =    28.40 Bohr mag/cell

     iteration #  2     ecut=    71.00 Ry     beta= 0.10
     Davidson diagonalization with overlap
     ethr =  3.20E-04,  avg # of iterations =  1.0

     total cpu time spent up to now is      266.5 secs

     total energy              =   -5268.07037143 Ry
     Harris-Foulkes estimate   =   -5268.19493342 Ry
     estimated scf accuracy    <       0.49805889 Ry

     total magnetization       =    28.67 Bohr mag/cell
     absolute magnetization    =    28.95 Bohr mag/cell

     iteration #  3     ecut=    71.00 Ry     beta= 0.10
     Davidson diagonalization with overlap
     ethr =  1.95E-04,  avg # of iterations =  2.5

     total cpu time spent up to now is      341.5 secs

     total energy              =   -5268.03684715 Ry
     Harris-Foulkes estimate   =   -5268.11708592 Ry
     estimated scf accuracy    <       0.58279429 Ry

     total magnetization       =    29.36 Bohr mag/cell
     absolute magnetization    =    29.70 Bohr mag/cell

     iteration #  4     ecut=    71.00 Ry     beta= 0.10
     Davidson diagonalization with overlap
     ethr =  1.95E-04,  avg # of iterations =  2.1

     total cpu time spent up to now is      410.2 secs

     total energy              =   -5268.06905788 Ry
     Harris-Foulkes estimate   =   -5268.07318092 Ry
     estimated scf accuracy    <       0.18392084 Ry

     total magnetization       =    30.20 Bohr mag/cell
     absolute magnetization    =    30.58 Bohr mag/cell

     iteration #  5     ecut=    71.00 Ry     beta= 0.10
     Davidson diagonalization with overlap
     ethr =  7.18E-05,  avg # of iterations =  1.3

     total cpu time spent up to now is      469.2 secs

     total energy              =   -5268.08791903 Ry
     Harris-Foulkes estimate   =   -5268.07343068 Ry
     estimated scf accuracy    <       0.11157008 Ry

     total magnetization       =    30.29 Bohr mag/cell
     absolute magnetization    =    30.69 Bohr mag/cell

     iteration #  6     ecut=    71.00 Ry     beta= 0.10
     Davidson diagonalization with overlap
     ethr =  4.36E-05,  avg # of iterations =  3.3

     total cpu time spent up to now is      571.9 secs

     total energy              =   -5268.14421875 Ry
     Harris-Foulkes estimate   =   -5268.12612361 Ry
     estimated scf accuracy    <       0.13226144 Ry

     total magnetization       =    30.91 Bohr mag/cell
     absolute magnetization    =    31.61 Bohr mag/cell

     iteration #  7     ecut=    71.00 Ry     beta= 0.10
     Davidson diagonalization with overlap
     ethr =  4.36E-05,  avg # of iterations =  2.0

     total cpu time spent up to now is      642.8 secs

     total energy              =   -5268.15346041 Ry
     Harris-Foulkes estimate   =   -5268.15237634 Ry
     estimated scf accuracy    <       0.09918279 Ry

     total magnetization       =    31.45 Bohr mag/cell
     absolute magnetization    =    32.36 Bohr mag/cell

     iteration #  8     ecut=    71.00 Ry     beta= 0.10
     Davidson diagonalization with overlap
     ethr =  3.87E-05,  avg # of iterations =  1.0

     negative rho (up, down):  0.000E+00 1.891E-03

     total cpu time spent up to now is      697.7 secs

     total energy              =   -5268.16953565 Ry
     Harris-Foulkes estimate   =   -5268.15484317 Ry
     estimated scf accuracy    <       0.07711959 Ry

     total magnetization       =    31.60 Bohr mag/cell
     absolute magnetization    =    32.58 Bohr mag/cell

     iteration #  9     ecut=    71.00 Ry     beta= 0.10
     Davidson diagonalization with overlap
     ethr =  3.01E-05,  avg # of iterations =  2.8

     negative rho (up, down):  0.000E+00 2.167E-03

     total cpu time spent up to now is      791.4 secs

     total energy              =   -5268.18947001 Ry
     Harris-Foulkes estimate   =   -5268.18850410 Ry
     estimated scf accuracy    <       0.02735802 Ry

     total magnetization       =    32.38 Bohr mag/cell
     absolute magnetization    =    33.81 Bohr mag/cell

     iteration # 10     ecut=    71.00 Ry     beta= 0.10
     Davidson diagonalization with overlap
     ethr =  1.07E-05,  avg # of iterations =  1.0

     negative rho (up, down):  0.000E+00 2.502E-03

     total cpu time spent up to now is      847.1 secs

     total energy              =   -5268.18802202 Ry
     Harris-Foulkes estimate   =   -5268.18993307 Ry
     estimated scf accuracy    <       0.01503595 Ry

     total magnetization       =    32.49 Bohr mag/cell
     absolute magnetization    =    33.96 Bohr mag/cell

     iteration # 11     ecut=    71.00 Ry     beta= 0.10
     Davidson diagonalization with overlap
     ethr =  5.87E-06,  avg # of iterations =  2.3

     negative rho (up, down):  0.000E+00 2.559E-03

     total cpu time spent up to now is      921.6 secs

     total energy              =   -5268.18863362 Ry
     Harris-Foulkes estimate   =   -5268.18885838 Ry
     estimated scf accuracy    <       0.00188712 Ry

     total magnetization       =    32.65 Bohr mag/cell
     absolute magnetization    =    34.26 Bohr mag/cell

     iteration # 12     ecut=    71.00 Ry     beta= 0.10
     Davidson diagonalization with overlap
     ethr =  7.37E-07,  avg # of iterations =  2.6

     negative rho (up, down):  0.000E+00 2.573E-03

     total cpu time spent up to now is      996.7 secs

     total energy              =   -5268.18880846 Ry
     Harris-Foulkes estimate   =   -5268.18873608 Ry
     estimated scf accuracy    <       0.00079600 Ry

     total magnetization       =    32.69 Bohr mag/cell
     absolute magnetization    =    34.33 Bohr mag/cell

     iteration # 13     ecut=    71.00 Ry     beta= 0.10
     Davidson diagonalization with overlap
     ethr =  3.11E-07,  avg # of iterations =  2.6

     negative rho (up, down):  0.000E+00 2.549E-03

     total cpu time spent up to now is     1076.4 secs

     total energy              =   -5268.18883297 Ry
     Harris-Foulkes estimate   =   -5268.18892221 Ry
     estimated scf accuracy    <       0.00126101 Ry

     total magnetization       =    32.75 Bohr mag/cell
     absolute magnetization    =    34.43 Bohr mag/cell

     iteration # 14     ecut=    71.00 Ry     beta= 0.10
     Davidson diagonalization with overlap
     ethr =  3.11E-07,  avg # of iterations =  2.5

     negative rho (up, down):  0.000E+00 2.491E-03

     total cpu time spent up to now is     1157.0 secs

     total energy              =   -5268.18907671 Ry
     Harris-Foulkes estimate   =   -5268.18894740 Ry
     estimated scf accuracy    <       0.00073296 Ry

     total magnetization       =    32.78 Bohr mag/cell
     absolute magnetization    =    34.51 Bohr mag/cell

     iteration # 15     ecut=    71.00 Ry     beta= 0.10
     Davidson diagonalization with overlap
     ethr =  2.86E-07,  avg # of iterations =  1.2

     negative rho (up, down):  0.000E+00 2.479E-03

     total cpu time spent up to now is     1214.9 secs

     total energy              =   -5268.18917137 Ry
     Harris-Foulkes estimate   =   -5268.18911709 Ry
     estimated scf accuracy    <       0.00020349 Ry

     total magnetization       =    32.78 Bohr mag/cell
     absolute magnetization    =    34.50 Bohr mag/cell

     iteration # 16     ecut=    71.00 Ry     beta= 0.10
     Davidson diagonalization with overlap
     ethr =  7.95E-08,  avg # of iterations =  2.4

     negative rho (up, down):  0.000E+00 2.458E-03

     total cpu time spent up to now is     1295.1 secs

     total energy              =   -5268.18924019 Ry
     Harris-Foulkes estimate   =   -5268.18919599 Ry
     estimated scf accuracy    <       0.00010724 Ry

     total magnetization       =    32.82 Bohr mag/cell
     absolute magnetization    =    34.55 Bohr mag/cell

     iteration # 17     ecut=    71.00 Ry     beta= 0.10
     Davidson diagonalization with overlap
     ethr =  4.19E-08,  avg # of iterations =  2.2

     negative rho (up, down):  0.000E+00 2.385E-03

     total cpu time spent up to now is     1368.5 secs

     total energy              =   -5268.18927305 Ry
     Harris-Foulkes estimate   =   -5268.18925049 Ry
     estimated scf accuracy    <       0.00006983 Ry

     total magnetization       =    32.84 Bohr mag/cell
     absolute magnetization    =    34.58 Bohr mag/cell

     iteration # 18     ecut=    71.00 Ry     beta= 0.10
     Davidson diagonalization with overlap
     ethr =  2.73E-08,  avg # of iterations =  2.6

     negative rho (up, down):  0.000E+00 2.440E-03

     total cpu time spent up to now is     1454.6 secs

     total energy              =   -5268.18929591 Ry
     Harris-Foulkes estimate   =   -5268.18929512 Ry
     estimated scf accuracy    <       0.00004268 Ry

     total magnetization       =    32.85 Bohr mag/cell
     absolute magnetization    =    34.60 Bohr mag/cell

     iteration # 19     ecut=    71.00 Ry     beta= 0.10
     Davidson diagonalization with overlap
     ethr =  1.67E-08,  avg # of iterations =  2.8

     negative rho (up, down):  0.000E+00 2.456E-03

     total cpu time spent up to now is     1539.8 secs

     total energy              =   -5268.18930511 Ry
     Harris-Foulkes estimate   =   -5268.18930584 Ry
     estimated scf accuracy    <       0.00001643 Ry

     total magnetization       =    32.88 Bohr mag/cell
     absolute magnetization    =    34.64 Bohr mag/cell

     iteration # 20     ecut=    71.00 Ry     beta= 0.10
     Davidson diagonalization with overlap
     ethr =  6.42E-09,  avg # of iterations =  2.2

     negative rho (up, down):  0.000E+00 2.457E-03

     total cpu time spent up to now is     1610.8 secs

     total energy              =   -5268.18930863 Ry
     Harris-Foulkes estimate   =   -5268.18930614 Ry
     estimated scf accuracy    <       0.00001229 Ry

     total magnetization       =    32.88 Bohr mag/cell
     absolute magnetization    =    34.65 Bohr mag/cell

     iteration # 21     ecut=    71.00 Ry     beta= 0.10
     Davidson diagonalization with overlap
     ethr =  4.80E-09,  avg # of iterations =  1.0

     negative rho (up, down):  0.000E+00 2.460E-03

     total cpu time spent up to now is     1666.0 secs

     total energy              =   -5268.18931200 Ry
     Harris-Foulkes estimate   =   -5268.18930912 Ry
     estimated scf accuracy    <       0.00000822 Ry

     total magnetization       =    32.89 Bohr mag/cell
     absolute magnetization    =    34.65 Bohr mag/cell

     iteration # 22     ecut=    71.00 Ry     beta= 0.10
     Davidson diagonalization with overlap
     ethr =  3.21E-09,  avg # of iterations =  2.0

     negative rho (up, down):  0.000E+00 2.454E-03

     total cpu time spent up to now is     1732.6 secs

     total energy              =   -5268.18931464 Ry
     Harris-Foulkes estimate   =   -5268.18931302 Ry
     estimated scf accuracy    <       0.00000546 Ry

     total magnetization       =    32.89 Bohr mag/cell
     absolute magnetization    =    34.66 Bohr mag/cell

     iteration # 23     ecut=    71.00 Ry     beta= 0.10
     Davidson diagonalization with overlap
     ethr =  2.13E-09,  avg # of iterations =  2.5

     negative rho (up, down):  0.000E+00 2.451E-03

     total cpu time spent up to now is     1809.3 secs

     total energy              =   -5268.18931641 Ry
     Harris-Foulkes estimate   =   -5268.18931552 Ry
     estimated scf accuracy    <       0.00000149 Ry

     total magnetization       =    32.90 Bohr mag/cell
     absolute magnetization    =    34.67 Bohr mag/cell

     iteration # 24     ecut=    71.00 Ry     beta= 0.10
     Davidson diagonalization with overlap
     ethr =  5.83E-10,  avg # of iterations =  2.3

     negative rho (up, down):  0.000E+00 2.463E-03
 
     Magnetic moment per site:
     atom:    1    charge:   14.3666    magn:    2.0994    constr:    0.0000
     atom:    2    charge:   14.3664    magn:    2.1017    constr:    0.0000
     atom:    3    charge:   14.3665    magn:    2.1000    constr:    0.0000
     atom:    4    charge:   14.3664    magn:    2.1017    constr:    0.0000
     atom:    5    charge:   14.3665    magn:    2.1002    constr:    0.0000
     atom:    6    charge:   14.3664    magn:    2.1017    constr:    0.0000
     atom:    7    charge:   14.3665    magn:    2.1003    constr:    0.0000
     atom:    8    charge:   14.3664    magn:    2.1017    constr:    0.0000
     atom:    9    charge:   14.3666    magn:    2.0986    constr:    0.0000
     atom:   10    charge:   14.3664    magn:    2.1017    constr:    0.0000
     atom:   11    charge:   14.3665    magn:    2.0988    constr:    0.0000
     atom:   12    charge:   14.3664    magn:    2.1017    constr:    0.0000
     atom:   13    charge:   14.3664    magn:    2.0992    constr:    0.0000
     atom:   14    charge:   14.3664    magn:    2.1017    constr:    0.0000
     atom:   15    charge:   14.3663    magn:    2.0995    constr:    0.0000
     atom:   16    charge:   14.3664    magn:    2.1017    constr:    0.0000

     total cpu time spent up to now is     1880.1 secs

     End of self-consistent calculation

     Number of k-points >= 100: set verbosity='high' to print the bands.

     the Fermi energy is    18.9746 ev

!    total energy              =   -5268.18931825 Ry
     Harris-Foulkes estimate   =   -5268.18931652 Ry
     estimated scf accuracy    <       0.00000076 Ry

     total all-electron energy =    -40728.933847 Ry

     The total energy is the sum of the following terms:

     one-electron contribution =   -1707.43160838 Ry
     hartree contribution      =    1022.27643059 Ry
     xc contribution           =    -444.25957356 Ry
     ewald contribution        =   -2814.22752014 Ry
     one-center paw contrib.   =   -1324.67103791 Ry
     smearing contrib. (-TS)   =       0.12399115 Ry

     total magnetization       =    32.90 Bohr mag/cell
     absolute magnetization    =    34.67 Bohr mag/cell

     convergence has been achieved in  24 iterations

     negative rho (up, down):  0.000E+00 2.463E-03

     Forces acting on atoms (cartesian axes, Ry/au):

     atom    1 type  1   force =     0.00000000    0.00000000    0.00000000
     atom    2 type  2   force =     0.00000567    0.00022753    0.00003461
     atom    3 type  1   force =     0.00000000    0.00000000    0.00000000
     atom    4 type  2   force =     0.00000567    0.00022753   -0.00003461
     atom    5 type  1   force =     0.00000000    0.00000000    0.00000000
     atom    6 type  2   force =     0.00000567   -0.00022753    0.00003461
     atom    7 type  1   force =     0.00000000    0.00000000    0.00000000
     atom    8 type  2   force =     0.00000567   -0.00022753   -0.00003461
     atom    9 type  1   force =     0.00000000    0.00000000    0.00000000
     atom   10 type  2   force =    -0.00000567    0.00022753    0.00003461
     atom   11 type  1   force =     0.00000000    0.00000000    0.00000000
     atom   12 type  2   force =    -0.00000567    0.00022753   -0.00003461
     atom   13 type  1   force =     0.00000000    0.00000000    0.00000000
     atom   14 type  2   force =    -0.00000567   -0.00022753    0.00003461
     atom   15 type  1   force =     0.00000000    0.00000000    0.00000000
     atom   16 type  2   force =    -0.00000567   -0.00022753   -0.00003461

     Total force =     0.000651     Total SCF correction =     0.005414
     SCF correction compared to forces is large: reduce conv_thr to get better values


     Computing stress (Cartesian axis) and pressure


     negative rho (up, down):  0.000E+00 2.463E-03
          total   stress  (Ry/bohr**3)                   (kbar)     P=   -3.29
  -0.00002290   0.00000000   0.00000000         -3.37      0.00      0.00
   0.00000000  -0.00005770   0.00000000          0.00     -8.49      0.00
   0.00000000   0.00000000   0.00001358          0.00      0.00      2.00


     Writing output data file kpYkvsGENISDYswn.save/
 
     init_run     :     21.06s CPU     21.99s WALL (       1 calls)
     electrons    :   1800.87s CPU   1856.80s WALL (       1 calls)
     forces       :      7.56s CPU      8.25s WALL (       1 calls)
     stress       :     20.98s CPU     21.24s WALL (       1 calls)

     Called by init_run:
     wfcinit      :     20.61s CPU     21.47s WALL (       1 calls)
     potinit      :      0.21s CPU      0.23s WALL (       1 calls)
     hinit0       :      0.15s CPU      0.17s WALL (       1 calls)

     Called by electrons:
     c_bands      :   1624.56s CPU   1671.31s WALL (      25 calls)
     sum_band     :    171.15s CPU    179.80s WALL (      25 calls)
     v_of_rho     :      0.38s CPU      0.38s WALL (      25 calls)
     newd         :      0.79s CPU      1.01s WALL (      25 calls)
     PAW_pot      :      3.83s CPU      4.05s WALL (      25 calls)
     mix_rho      :      0.15s CPU      0.16s WALL (      25 calls)

     Called by c_bands:
     init_us_2    :      8.88s CPU      9.01s WALL (   13250 calls)
     cegterg      :   1580.06s CPU   1626.32s WALL (    6250 calls)

     Called by sum_band:
     sum_band:bec :      2.25s CPU      2.29s WALL (    6250 calls)
     addusdens    :      1.38s CPU      1.58s WALL (      25 calls)

     Called by *egterg:
     h_psi        :    676.21s CPU    704.84s WALL (   20256 calls)
     s_psi        :     35.71s CPU     35.94s WALL (   20256 calls)
     g_psi        :      1.45s CPU      1.47s WALL (   13756 calls)
     cdiaghg      :    708.41s CPU    710.91s WALL (   19756 calls)

     Called by h_psi:
     h_psi:pot    :    672.18s CPU    700.77s WALL (   20256 calls)
     h_psi:calbec :     55.69s CPU     64.46s WALL (   20256 calls)
     vloc_psi     :    580.37s CPU    599.96s WALL (   20256 calls)
     add_vuspsi   :     35.95s CPU     36.23s WALL (   20256 calls)

     General routines
     calbec       :     85.21s CPU     98.79s WALL (   27756 calls)
     fft          :      0.43s CPU      0.46s WALL (     667 calls)
     ffts         :      0.06s CPU      0.24s WALL (     100 calls)
     fftw         :    676.71s CPU    699.23s WALL ( 5184318 calls)
     interpolate  :      0.11s CPU      0.19s WALL (      50 calls)
 
     Parallel routines
     fft_scatt_xy :     44.92s CPU     46.32s WALL ( 5185085 calls)
     fft_scatt_yz :    455.06s CPU    470.48s WALL ( 5185085 calls)
 
     PWSCF        : 31m 5.51s CPU    32m51.97s WALL

 
   This run was terminated on:   0:43:57   3Nov2020            

=------------------------------------------------------------------------------=
   JOB DONE.
=------------------------------------------------------------------------------=
