--------------------------------------------------------------------------
WARNING: No preset parameters were found for the device that Open MPI
detected:

  Local host:            bear-pg0206u20a
  Device name:           mlx5_0
  Device vendor ID:      0x02c9
  Device vendor part ID: 4123

Default device parameters will be used, which may result in lower
performance.  You can edit any of the files specified by the
btl_openib_device_param_files MCA parameter to set values for your
device.

NOTE: You can turn off this warning by setting the MCA parameter
      btl_openib_warn_no_device_params_found to 0.
--------------------------------------------------------------------------
--------------------------------------------------------------------------
WARNING: There was an error initializing an OpenFabrics device.

  Local host:   bear-pg0206u20a
  Local device: mlx5_0
--------------------------------------------------------------------------

     Program PWSCF v.6.3 starts on 21Oct2020 at  5:51:11 

     This program is part of the open-source Quantum ESPRESSO suite
     for quantum simulation of materials; please cite
         "P. Giannozzi et al., J. Phys.:Condens. Matter 21 395502 (2009);
         "P. Giannozzi et al., J. Phys.:Condens. Matter 29 465901 (2017);
          URL http://www.quantum-espresso.org", 
     in publications or presentations arising from this work. More details at
     http://www.quantum-espresso.org/quote

     Parallel version (MPI & OpenMP), running on      40 processor cores
     Number of MPI processes:                40
     Threads/MPI process:                     1

     MPI processes distributed on     1 nodes
     R & G space division:  proc/nbgrp/npool/nimage =      40
     Reading input from wd/ec/ec_8_007.in
Warning: card &IONS ignored
Warning: card ION_DYNAMICS = 'BFGS', ignored
Warning: card / ignored
Warning: card &CELL ignored
Warning: card CELL_DYNAMICS = 'BFGS', ignored
Warning: card CELL_FACTOR = 2.0, ignored
Warning: card PRESS = 0.0, ignored
Warning: card / ignored

     Current dimensions of program PWSCF are:
     Max number of different atomic species (ntypx) = 10
     Max number of k-points (npk) =  40000
     Max angular momentum in pseudopotentials (lmaxx) =  3
               file Fe.pbe-spn-kjpaw_psl.1.0.0.UPF: wavefunction(s)  3P 3D renormalized
               file Fe.pbe-spn-kjpaw_psl.1.0.0.UPF: wavefunction(s)  3P 3D renormalized
               file Fe.pbe-spn-kjpaw_psl.1.0.0.UPF: wavefunction(s)  3P 3D renormalized
               file Fe.pbe-spn-kjpaw_psl.1.0.0.UPF: wavefunction(s)  3P 3D renormalized

     Subspace diagonalization in iterative solution of the eigenvalue problem:
     a serial algorithm will be used

     Found symmetry operation: I + (  0.0000  0.0000  0.5000)
     This is a supercell, fractional translations are disabled
 
     Parallelization info
     --------------------
     sticks:   dense  smooth     PW     G-vecs:    dense   smooth      PW
     Min         152     100     27                 8594     4612     663
     Max         153     101     28                 8599     4615     666
     Sum        6101    4031   1115               343845   184567   26607
 


     bravais-lattice index     =            0
     lattice parameter (alat)  =      12.9382  a.u.
     unit-cell volume          =    2283.7593 (a.u.)^3
     number of atoms/cell      =           32
     number of atomic types    =            4
     number of electrons       =       512.00
     number of Kohn-Sham states=          307
     kinetic-energy cutoff     =      71.0000  Ry
     charge density cutoff     =     430.0000  Ry
     convergence threshold     =      1.0E-06
     mixing beta               =       0.1000
     number of iterations used =           10  plain     mixing
     Exchange-correlation      = SLA PW PBX PBC ( 1  4  3  4 0 0)

     celldm(1)=  12.938187  celldm(2)=   0.000000  celldm(3)=   0.000000
     celldm(4)=   0.000000  celldm(5)=   0.000000  celldm(6)=   0.000000

     crystal axes: (cart. coord. in units of alat)
               a(1) = (   1.010034   0.000000   0.000000 )  
               a(2) = (   0.000000   1.054509   0.000000 )  
               a(3) = (   0.000000   0.000000   0.990020 )  

     reciprocal axes: (cart. coord. in units 2 pi/alat)
               b(1) = (  0.990066  0.000000  0.000000 )  
               b(2) = (  0.000000  0.948309  0.000000 )  
               b(3) = (  0.000000  0.000000  1.010080 )  


     PseudoPot. # 1 for Fe read from file:
     /rds/homes/b/bxp912/pp/Fe.pbe-spn-kjpaw_psl.1.0.0.UPF
     MD5 check sum: 42f43b795421b414b0dc916aa790dbcb
     Pseudo is Projector augmented-wave + core cor, Zval = 16.0
     Generated using "atomic" code by A. Dal Corso v.6.3
     Shape of augmentation charge: PSQ
     Using radial grid of 1191 points,  6 beta functions with: 
                l(1) =   0
                l(2) =   0
                l(3) =   1
                l(4) =   1
                l(5) =   2
                l(6) =   2
     Q(r) pseudized with 0 coefficients 


     PseudoPot. # 2 for Fe read from file:
     /rds/homes/b/bxp912/pp/Fe.pbe-spn-kjpaw_psl.1.0.0.UPF
     MD5 check sum: 42f43b795421b414b0dc916aa790dbcb
     Pseudo is Projector augmented-wave + core cor, Zval = 16.0
     Generated using "atomic" code by A. Dal Corso v.6.3
     Shape of augmentation charge: PSQ
     Using radial grid of 1191 points,  6 beta functions with: 
                l(1) =   0
                l(2) =   0
                l(3) =   1
                l(4) =   1
                l(5) =   2
                l(6) =   2
     Q(r) pseudized with 0 coefficients 


     PseudoPot. # 3 for Fe read from file:
     /rds/homes/b/bxp912/pp/Fe.pbe-spn-kjpaw_psl.1.0.0.UPF
     MD5 check sum: 42f43b795421b414b0dc916aa790dbcb
     Pseudo is Projector augmented-wave + core cor, Zval = 16.0
     Generated using "atomic" code by A. Dal Corso v.6.3
     Shape of augmentation charge: PSQ
     Using radial grid of 1191 points,  6 beta functions with: 
                l(1) =   0
                l(2) =   0
                l(3) =   1
                l(4) =   1
                l(5) =   2
                l(6) =   2
     Q(r) pseudized with 0 coefficients 


     PseudoPot. # 4 for Fe read from file:
     /rds/homes/b/bxp912/pp/Fe.pbe-spn-kjpaw_psl.1.0.0.UPF
     MD5 check sum: 42f43b795421b414b0dc916aa790dbcb
     Pseudo is Projector augmented-wave + core cor, Zval = 16.0
     Generated using "atomic" code by A. Dal Corso v.6.3
     Shape of augmentation charge: PSQ
     Using radial grid of 1191 points,  6 beta functions with: 
                l(1) =   0
                l(2) =   0
                l(3) =   1
                l(4) =   1
                l(5) =   2
                l(6) =   2
     Q(r) pseudized with 0 coefficients 


     atomic species   valence    mass     pseudopotential
        Fe1           16.00    55.84500     Fe( 1.00)
        Fe2           16.00    55.84500     Fe( 1.00)
        Fe3           16.00    55.84500     Fe( 1.00)
        Fe4           16.00    55.84500     Fe( 1.00)

     Starting magnetic structure 
     atomic species   magnetization
        Fe1          0.100
        Fe2         -0.100
        Fe3          0.100
        Fe4         -0.100

      8 Sym. Ops., with inversion, found



   Cartesian axes

     site n.     atom                  positions (alat units)
         1           Fe1 tau(   1) = (   0.0000000   0.0000000   0.0000000  )
         2           Fe2 tau(   2) = (   0.2525052   0.2636299   0.0000000  )
         3           Fe3 tau(   3) = (   0.2525065   0.0000000   0.2475030  )
         4           Fe4 tau(   4) = (   0.0000000   0.2636285   0.2475090  )
         5           Fe1 tau(   5) = (   0.0000000   0.0000000   0.4950101  )
         6           Fe2 tau(   6) = (   0.2525081   0.2636327   0.4950101  )
         7           Fe3 tau(   7) = (   0.2525065   0.0000000   0.7425161  )
         8           Fe4 tau(   8) = (   0.0000000   0.2636285   0.7425101  )
         9           Fe1 tau(   9) = (   0.0000000   0.5272545   0.0000000  )
        10           Fe2 tau(  10) = (   0.2525052   0.7908793   0.0000000  )
        11           Fe3 tau(  11) = (   0.2525088   0.5272545   0.2475070  )
        12           Fe4 tau(  12) = (   0.0000000   0.7908807   0.2475090  )
        13           Fe1 tau(  13) = (   0.0000000   0.5272545   0.4950101  )
        14           Fe2 tau(  14) = (   0.2525081   0.7908765   0.4950101  )
        15           Fe3 tau(  15) = (   0.2525088   0.5272545   0.7425131  )
        16           Fe4 tau(  16) = (   0.0000000   0.7908807   0.7425101  )
        17           Fe1 tau(  17) = (   0.5050166   0.0000000   0.0000000  )
        18           Fe2 tau(  18) = (   0.7575279   0.2636299   0.0000000  )
        19           Fe3 tau(  19) = (   0.7575267   0.0000000   0.2475030  )
        20           Fe4 tau(  20) = (   0.5050166   0.2636275   0.2475070  )
        21           Fe1 tau(  21) = (   0.5050166   0.0000000   0.4950101  )
        22           Fe2 tau(  22) = (   0.7575251   0.2636327   0.4950101  )
        23           Fe3 tau(  23) = (   0.7575267   0.0000000   0.7425161  )
        24           Fe4 tau(  24) = (   0.5050166   0.2636275   0.7425121  )
        25           Fe1 tau(  25) = (   0.5050166   0.5272545   0.0000000  )
        26           Fe2 tau(  26) = (   0.7575279   0.7908793   0.0000000  )
        27           Fe3 tau(  27) = (   0.7575245   0.5272545   0.2475070  )
        28           Fe4 tau(  28) = (   0.5050166   0.7908817   0.2475070  )
        29           Fe1 tau(  29) = (   0.5050166   0.5272545   0.4950101  )
        30           Fe2 tau(  30) = (   0.7575251   0.7908765   0.4950101  )
        31           Fe3 tau(  31) = (   0.7575245   0.5272545   0.7425131  )
        32           Fe4 tau(  32) = (   0.5050166   0.7908817   0.7425121  )

     number of k points=   125  Marzari-Vanderbilt smearing, width (Ry)=  0.0400

     Number of k-points >= 100: set verbosity='high' to print them.

     Dense  grid:   343845 G-vectors     FFT dimensions: (  90,  96,  90)

     Smooth grid:   184567 G-vectors     FFT dimensions: (  72,  75,  72)

     Estimated max dynamical RAM per process >     810.89 MB

     Estimated total dynamical RAM >      31.68 GB
     Generating pointlists ...
     new r_m :   0.1459 (alat units)  1.8870 (a.u.) for type    1
     new r_m :   0.1459 (alat units)  1.8870 (a.u.) for type    2
     new r_m :   0.1459 (alat units)  1.8870 (a.u.) for type    3
     new r_m :   0.1459 (alat units)  1.8870 (a.u.) for type    4

     Check: negative/imaginary core charge=   -0.000006    0.000000

     Initial potential from superposition of free atoms

     starting charge  511.98600, renormalised to  512.00000
     Starting wfcs are  320 randomized atomic wfcs
     Checking if some PAW data can be deallocated... 

     total cpu time spent up to now is       85.7 secs

     Self-consistent Calculation

     iteration #  1     ecut=    71.00 Ry     beta= 0.10
     Davidson diagonalization with overlap
     ethr =  1.00E-02,  avg # of iterations =  3.6

     Threshold (ethr) on eigenvalues was too large:
     Diagonalizing with lowered threshold

     Davidson diagonalization with overlap
     ethr =  3.18E-04,  avg # of iterations =  4.0

     total cpu time spent up to now is     1039.1 secs

     total energy              =  -10536.43007677 Ry
     Harris-Foulkes estimate   =  -10536.77151243 Ry
     estimated scf accuracy    <       1.88279327 Ry

     total magnetization       =     0.23 Bohr mag/cell
     absolute magnetization    =    44.23 Bohr mag/cell

     iteration #  2     ecut=    71.00 Ry     beta= 0.10
     Davidson diagonalization with overlap
     ethr =  3.68E-04,  avg # of iterations =  1.0

     total cpu time spent up to now is     1270.6 secs

     total energy              =  -10536.21143553 Ry
     Harris-Foulkes estimate   =  -10536.47572659 Ry
     estimated scf accuracy    <       1.11854029 Ry

     total magnetization       =    -0.11 Bohr mag/cell
     absolute magnetization    =    44.95 Bohr mag/cell

     iteration #  3     ecut=    71.00 Ry     beta= 0.10
     Davidson diagonalization with overlap
     ethr =  2.18E-04,  avg # of iterations =  2.3

     total cpu time spent up to now is     1594.1 secs

     total energy              =  -10536.07551061 Ry
     Harris-Foulkes estimate   =  -10536.35123139 Ry
     estimated scf accuracy    <       2.74074884 Ry

     total magnetization       =     0.23 Bohr mag/cell
     absolute magnetization    =    45.32 Bohr mag/cell

     iteration #  4     ecut=    71.00 Ry     beta= 0.10
     Davidson diagonalization with overlap
     ethr =  2.18E-04,  avg # of iterations =  2.4

     total cpu time spent up to now is     1914.9 secs

     total energy              =  -10536.17827547 Ry
     Harris-Foulkes estimate   =  -10536.20999524 Ry
     estimated scf accuracy    <       0.52588297 Ry

     total magnetization       =     0.35 Bohr mag/cell
     absolute magnetization    =    46.34 Bohr mag/cell

     iteration #  5     ecut=    71.00 Ry     beta= 0.10
     Davidson diagonalization with overlap
     ethr =  1.03E-04,  avg # of iterations =  1.4

     total cpu time spent up to now is     2169.3 secs

     total energy              =  -10536.19003897 Ry
     Harris-Foulkes estimate   =  -10536.19807412 Ry
     estimated scf accuracy    <       0.08491561 Ry

     total magnetization       =     0.03 Bohr mag/cell
     absolute magnetization    =    46.47 Bohr mag/cell

     iteration #  6     ecut=    71.00 Ry     beta= 0.10
     Davidson diagonalization with overlap
     ethr =  1.66E-05,  avg # of iterations =  3.5

     total cpu time spent up to now is     2567.4 secs

     total energy              =  -10536.18055340 Ry
     Harris-Foulkes estimate   =  -10536.19330846 Ry
     estimated scf accuracy    <       0.07230689 Ry

     total magnetization       =    -0.10 Bohr mag/cell
     absolute magnetization    =    46.43 Bohr mag/cell

     iteration #  7     ecut=    71.00 Ry     beta= 0.10
     Davidson diagonalization with overlap
     ethr =  1.41E-05,  avg # of iterations =  3.5

     total cpu time spent up to now is     3090.4 secs

     total energy              =  -10536.19806784 Ry
     Harris-Foulkes estimate   =  -10536.19771556 Ry
     estimated scf accuracy    <       0.10550725 Ry

     total magnetization       =     0.01 Bohr mag/cell
     absolute magnetization    =    46.54 Bohr mag/cell

     iteration #  8     ecut=    71.00 Ry     beta= 0.10
     Davidson diagonalization with overlap
     ethr =  1.41E-05,  avg # of iterations =  2.0

     total cpu time spent up to now is     3401.7 secs

     total energy              =  -10536.19817956 Ry
     Harris-Foulkes estimate   =  -10536.20320490 Ry
     estimated scf accuracy    <       0.07711285 Ry

     total magnetization       =     0.07 Bohr mag/cell
     absolute magnetization    =    46.77 Bohr mag/cell

     iteration #  9     ecut=    71.00 Ry     beta= 0.10
     Davidson diagonalization with overlap
     ethr =  1.41E-05,  avg # of iterations =  1.0

     total cpu time spent up to now is     3629.8 secs

     total energy              =  -10536.20635504 Ry
     Harris-Foulkes estimate   =  -10536.19994588 Ry
     estimated scf accuracy    <       0.03998930 Ry

     total magnetization       =     0.02 Bohr mag/cell
     absolute magnetization    =    46.95 Bohr mag/cell

     iteration # 10     ecut=    71.00 Ry     beta= 0.10
     Davidson diagonalization with overlap
     ethr =  7.81E-06,  avg # of iterations =  2.4

     total cpu time spent up to now is     3960.3 secs

     total energy              =  -10536.22845754 Ry
     Harris-Foulkes estimate   =  -10536.20853517 Ry
     estimated scf accuracy    <       0.03585020 Ry

     total magnetization       =    -0.06 Bohr mag/cell
     absolute magnetization    =    47.20 Bohr mag/cell

     iteration # 11     ecut=    71.00 Ry     beta= 0.10
     Davidson diagonalization with overlap
     ethr =  7.00E-06,  avg # of iterations =  3.6

     total cpu time spent up to now is     4487.6 secs

     total energy              =  -10536.24456023 Ry
     Harris-Foulkes estimate   =  -10536.23755828 Ry
     estimated scf accuracy    <       0.04193252 Ry

     total magnetization       =    -0.13 Bohr mag/cell
     absolute magnetization    =    47.86 Bohr mag/cell

     iteration # 12     ecut=    71.00 Ry     beta= 0.10
     Davidson diagonalization with overlap
     ethr =  7.00E-06,  avg # of iterations =  1.4

     total cpu time spent up to now is     4752.5 secs

     total energy              =  -10536.24566727 Ry
     Harris-Foulkes estimate   =  -10536.24646122 Ry
     estimated scf accuracy    <       0.02238706 Ry

     total magnetization       =    -0.10 Bohr mag/cell
     absolute magnetization    =    48.15 Bohr mag/cell

     iteration # 13     ecut=    71.00 Ry     beta= 0.10
     Davidson diagonalization with overlap
     ethr =  4.37E-06,  avg # of iterations =  2.4

     total cpu time spent up to now is     5087.3 secs

     total energy              =  -10536.24724104 Ry
     Harris-Foulkes estimate   =  -10536.24734852 Ry
     estimated scf accuracy    <       0.00267475 Ry

     total magnetization       =    -0.03 Bohr mag/cell
     absolute magnetization    =    48.43 Bohr mag/cell

     iteration # 14     ecut=    71.00 Ry     beta= 0.10
     Davidson diagonalization with overlap
     ethr =  5.22E-07,  avg # of iterations =  3.9

     total cpu time spent up to now is     5602.0 secs

     total energy              =  -10536.24757415 Ry
     Harris-Foulkes estimate   =  -10536.24760460 Ry
     estimated scf accuracy    <       0.00145609 Ry

     total magnetization       =    -0.02 Bohr mag/cell
     absolute magnetization    =    48.47 Bohr mag/cell

     iteration # 15     ecut=    71.00 Ry     beta= 0.10
     Davidson diagonalization with overlap
     ethr =  2.84E-07,  avg # of iterations =  2.2

     total cpu time spent up to now is     5916.4 secs

     total energy              =  -10536.24786952 Ry
     Harris-Foulkes estimate   =  -10536.24768245 Ry
     estimated scf accuracy    <       0.00085172 Ry

     total magnetization       =    -0.01 Bohr mag/cell
     absolute magnetization    =    48.57 Bohr mag/cell

     iteration # 16     ecut=    71.00 Ry     beta= 0.10
     Davidson diagonalization with overlap
     ethr =  1.66E-07,  avg # of iterations =  2.3

     total cpu time spent up to now is     6234.1 secs

     total energy              =  -10536.24783582 Ry
     Harris-Foulkes estimate   =  -10536.24795288 Ry
     estimated scf accuracy    <       0.00102148 Ry

     total magnetization       =    -0.00 Bohr mag/cell
     absolute magnetization    =    48.68 Bohr mag/cell

     iteration # 17     ecut=    71.00 Ry     beta= 0.10
     Davidson diagonalization with overlap
     ethr =  1.66E-07,  avg # of iterations =  1.3

     total cpu time spent up to now is     6488.7 secs

     total energy              =  -10536.24806244 Ry
     Harris-Foulkes estimate   =  -10536.24790257 Ry
     estimated scf accuracy    <       0.00076021 Ry

     total magnetization       =    -0.03 Bohr mag/cell
     absolute magnetization    =    48.69 Bohr mag/cell

     iteration # 18     ecut=    71.00 Ry     beta= 0.10
     Davidson diagonalization with overlap
     ethr =  1.48E-07,  avg # of iterations =  1.3

     total cpu time spent up to now is     6740.5 secs

     total energy              =  -10536.24822299 Ry
     Harris-Foulkes estimate   =  -10536.24811059 Ry
     estimated scf accuracy    <       0.00044293 Ry

     total magnetization       =    -0.01 Bohr mag/cell
     absolute magnetization    =    48.80 Bohr mag/cell

     iteration # 19     ecut=    71.00 Ry     beta= 0.10
     Davidson diagonalization with overlap
     ethr =  8.65E-08,  avg # of iterations =  2.5

     total cpu time spent up to now is     7076.9 secs

     total energy              =  -10536.24838129 Ry
     Harris-Foulkes estimate   =  -10536.24825370 Ry
     estimated scf accuracy    <       0.00027463 Ry

     total magnetization       =    -0.01 Bohr mag/cell
     absolute magnetization    =    48.89 Bohr mag/cell

     iteration # 20     ecut=    71.00 Ry     beta= 0.10
     Davidson diagonalization with overlap
     ethr =  5.36E-08,  avg # of iterations =  3.0

     total cpu time spent up to now is     7470.5 secs

     total energy              =  -10536.24848620 Ry
     Harris-Foulkes estimate   =  -10536.24843629 Ry
     estimated scf accuracy    <       0.00031907 Ry

     total magnetization       =    -0.01 Bohr mag/cell
     absolute magnetization    =    49.06 Bohr mag/cell

     iteration # 21     ecut=    71.00 Ry     beta= 0.10
     Davidson diagonalization with overlap
     ethr =  5.36E-08,  avg # of iterations =  1.6

     total cpu time spent up to now is     7741.1 secs

     total energy              =  -10536.24852624 Ry
     Harris-Foulkes estimate   =  -10536.24851268 Ry
     estimated scf accuracy    <       0.00012438 Ry

     total magnetization       =    -0.01 Bohr mag/cell
     absolute magnetization    =    49.16 Bohr mag/cell

     iteration # 22     ecut=    71.00 Ry     beta= 0.10
     Davidson diagonalization with overlap
     ethr =  2.43E-08,  avg # of iterations =  2.5

     total cpu time spent up to now is     8078.1 secs

     total energy              =  -10536.24855008 Ry
     Harris-Foulkes estimate   =  -10536.24853378 Ry
     estimated scf accuracy    <       0.00009593 Ry

     total magnetization       =    -0.01 Bohr mag/cell
     absolute magnetization    =    49.21 Bohr mag/cell

     iteration # 23     ecut=    71.00 Ry     beta= 0.10
     Davidson diagonalization with overlap
     ethr =  1.87E-08,  avg # of iterations =  2.2

     total cpu time spent up to now is     8390.3 secs

     total energy              =  -10536.24856801 Ry
     Harris-Foulkes estimate   =  -10536.24855715 Ry
     estimated scf accuracy    <       0.00007086 Ry

     total magnetization       =    -0.01 Bohr mag/cell
     absolute magnetization    =    49.27 Bohr mag/cell

     iteration # 24     ecut=    71.00 Ry     beta= 0.10
     Davidson diagonalization with overlap
     ethr =  1.38E-08,  avg # of iterations =  3.1

     total cpu time spent up to now is     8852.2 secs

     total energy              =  -10536.24859739 Ry
     Harris-Foulkes estimate   =  -10536.24859395 Ry
     estimated scf accuracy    <       0.00004871 Ry

     total magnetization       =    -0.01 Bohr mag/cell
     absolute magnetization    =    49.40 Bohr mag/cell

     iteration # 25     ecut=    71.00 Ry     beta= 0.10
     Davidson diagonalization with overlap
     ethr =  9.51E-09,  avg # of iterations =  1.2

     total cpu time spent up to now is     9097.3 secs

     total energy              =  -10536.24860241 Ry
     Harris-Foulkes estimate   =  -10536.24860129 Ry
     estimated scf accuracy    <       0.00001786 Ry

     total magnetization       =    -0.00 Bohr mag/cell
     absolute magnetization    =    49.45 Bohr mag/cell

     iteration # 26     ecut=    71.00 Ry     beta= 0.10
     Davidson diagonalization with overlap
     ethr =  3.49E-09,  avg # of iterations =  1.8

     total cpu time spent up to now is     9385.8 secs

     total energy              =  -10536.24860414 Ry
     Harris-Foulkes estimate   =  -10536.24860307 Ry
     estimated scf accuracy    <       0.00001805 Ry

     total magnetization       =    -0.00 Bohr mag/cell
     absolute magnetization    =    49.46 Bohr mag/cell

     iteration # 27     ecut=    71.00 Ry     beta= 0.10
     Davidson diagonalization with overlap
     ethr =  3.49E-09,  avg # of iterations =  1.0

     total cpu time spent up to now is     9617.6 secs

     total energy              =  -10536.24860598 Ry
     Harris-Foulkes estimate   =  -10536.24860462 Ry
     estimated scf accuracy    <       0.00001338 Ry

     total magnetization       =    -0.00 Bohr mag/cell
     absolute magnetization    =    49.46 Bohr mag/cell

     iteration # 28     ecut=    71.00 Ry     beta= 0.10
     Davidson diagonalization with overlap
     ethr =  2.61E-09,  avg # of iterations =  1.1

     total cpu time spent up to now is     9850.0 secs

     total energy              =  -10536.24860899 Ry
     Harris-Foulkes estimate   =  -10536.24860634 Ry
     estimated scf accuracy    <       0.00001181 Ry

     total magnetization       =    -0.00 Bohr mag/cell
     absolute magnetization    =    49.47 Bohr mag/cell

     iteration # 29     ecut=    71.00 Ry     beta= 0.10
     Davidson diagonalization with overlap
     ethr =  2.31E-09,  avg # of iterations =  2.4

     total cpu time spent up to now is    10178.1 secs

     total energy              =  -10536.24861184 Ry
     Harris-Foulkes estimate   =  -10536.24861012 Ry
     estimated scf accuracy    <       0.00000790 Ry

     total magnetization       =    -0.00 Bohr mag/cell
     absolute magnetization    =    49.49 Bohr mag/cell

     iteration # 30     ecut=    71.00 Ry     beta= 0.10
     Davidson diagonalization with overlap
     ethr =  1.54E-09,  avg # of iterations =  2.7

     total cpu time spent up to now is    10528.1 secs

     total energy              =  -10536.24861359 Ry
     Harris-Foulkes estimate   =  -10536.24861250 Ry
     estimated scf accuracy    <       0.00000498 Ry

     total magnetization       =    -0.00 Bohr mag/cell
     absolute magnetization    =    49.51 Bohr mag/cell

     iteration # 31     ecut=    71.00 Ry     beta= 0.10
     Davidson diagonalization with overlap
     ethr =  9.74E-10,  avg # of iterations =  2.4

     total cpu time spent up to now is    10856.4 secs

     total energy              =  -10536.24861563 Ry
     Harris-Foulkes estimate   =  -10536.24861389 Ry
     estimated scf accuracy    <       0.00000368 Ry

     total magnetization       =    -0.00 Bohr mag/cell
     absolute magnetization    =    49.52 Bohr mag/cell

     iteration # 32     ecut=    71.00 Ry     beta= 0.10
     Davidson diagonalization with overlap
     ethr =  7.18E-10,  avg # of iterations =  3.0

     total cpu time spent up to now is    11266.9 secs

     total energy              =  -10536.24861633 Ry
     Harris-Foulkes estimate   =  -10536.24861619 Ry
     estimated scf accuracy    <       0.00000244 Ry

     total magnetization       =    -0.00 Bohr mag/cell
     absolute magnetization    =    49.54 Bohr mag/cell

     iteration # 33     ecut=    71.00 Ry     beta= 0.10
     Davidson diagonalization with overlap
     ethr =  4.76E-10,  avg # of iterations =  1.1

     total cpu time spent up to now is    11508.8 secs

     total energy              =  -10536.24861710 Ry
     Harris-Foulkes estimate   =  -10536.24861658 Ry
     estimated scf accuracy    <       0.00000457 Ry

     total magnetization       =    -0.00 Bohr mag/cell
     absolute magnetization    =    49.55 Bohr mag/cell

     iteration # 34     ecut=    71.00 Ry     beta= 0.10
     Davidson diagonalization with overlap
     ethr =  4.76E-10,  avg # of iterations =  2.1

     total cpu time spent up to now is    11818.2 secs

     total energy              =  -10536.24861767 Ry
     Harris-Foulkes estimate   =  -10536.24861740 Ry
     estimated scf accuracy    <       0.00000117 Ry

     total magnetization       =    -0.00 Bohr mag/cell
     absolute magnetization    =    49.56 Bohr mag/cell

     iteration # 35     ecut=    71.00 Ry     beta= 0.10
     Davidson diagonalization with overlap
     ethr =  2.28E-10,  avg # of iterations =  2.8
 
     Magnetic moment per site:
     atom:    1    charge:   14.3918    magn:    1.4911    constr:    0.0000
     atom:    2    charge:   14.3922    magn:   -1.4913    constr:    0.0000
     atom:    3    charge:   14.3917    magn:    1.4941    constr:    0.0000
     atom:    4    charge:   14.3919    magn:   -1.4953    constr:    0.0000
     atom:    5    charge:   14.3920    magn:    1.4917    constr:    0.0000
     atom:    6    charge:   14.3923    magn:   -1.4909    constr:    0.0000
     atom:    7    charge:   14.3917    magn:    1.4941    constr:    0.0000
     atom:    8    charge:   14.3919    magn:   -1.4953    constr:    0.0000
     atom:    9    charge:   14.3918    magn:    1.4920    constr:    0.0000
     atom:   10    charge:   14.3922    magn:   -1.4913    constr:    0.0000
     atom:   11    charge:   14.3917    magn:    1.4935    constr:    0.0000
     atom:   12    charge:   14.3919    magn:   -1.4953    constr:    0.0000
     atom:   13    charge:   14.3918    magn:    1.4924    constr:    0.0000
     atom:   14    charge:   14.3923    magn:   -1.4909    constr:    0.0000
     atom:   15    charge:   14.3917    magn:    1.4935    constr:    0.0000
     atom:   16    charge:   14.3919    magn:   -1.4953    constr:    0.0000
     atom:   17    charge:   14.3918    magn:    1.4925    constr:    0.0000
     atom:   18    charge:   14.3922    magn:   -1.4913    constr:    0.0000
     atom:   19    charge:   14.3917    magn:    1.4941    constr:    0.0000
     atom:   20    charge:   14.3919    magn:   -1.4945    constr:    0.0000
     atom:   21    charge:   14.3918    magn:    1.4928    constr:    0.0000
     atom:   22    charge:   14.3923    magn:   -1.4909    constr:    0.0000
     atom:   23    charge:   14.3917    magn:    1.4941    constr:    0.0000
     atom:   24    charge:   14.3919    magn:   -1.4945    constr:    0.0000
     atom:   25    charge:   14.3920    magn:    1.4916    constr:    0.0000
     atom:   26    charge:   14.3922    magn:   -1.4913    constr:    0.0000
     atom:   27    charge:   14.3917    magn:    1.4935    constr:    0.0000
     atom:   28    charge:   14.3919    magn:   -1.4945    constr:    0.0000
     atom:   29    charge:   14.3921    magn:    1.4916    constr:    0.0000
     atom:   30    charge:   14.3923    magn:   -1.4909    constr:    0.0000
     atom:   31    charge:   14.3917    magn:    1.4935    constr:    0.0000
     atom:   32    charge:   14.3919    magn:   -1.4945    constr:    0.0000

     total cpu time spent up to now is    12182.0 secs

     End of self-consistent calculation

     Number of k-points >= 100: set verbosity='high' to print the bands.

     the Fermi energy is    20.1187 ev

!    total energy              =  -10536.24861825 Ry
     Harris-Foulkes estimate   =  -10536.24861776 Ry
     estimated scf accuracy    <       0.00000057 Ry

     total all-electron energy =    -81457.737676 Ry

     The total energy is the sum of the following terms:

     one-electron contribution =   -3292.36568596 Ry
     hartree contribution      =    1996.50403392 Ry
     xc contribution           =    -886.95849496 Ry
     ewald contribution        =   -5703.88286949 Ry
     one-center paw contrib.   =   -2649.56044299 Ry
     smearing contrib. (-TS)   =       0.01484123 Ry

     total magnetization       =    -0.00 Bohr mag/cell
     absolute magnetization    =    49.57 Bohr mag/cell

     convergence has been achieved in  35 iterations

     Forces acting on atoms (cartesian axes, Ry/au):

     atom    1 type  1   force =     0.00000000    0.00000000    0.00000000
     atom    2 type  2   force =     0.00004572    0.00005645    0.00000000
     atom    3 type  3   force =     0.00016141    0.00000000    0.00002378
     atom    4 type  4   force =     0.00000000   -0.00010231   -0.00009656
     atom    5 type  1   force =     0.00000000    0.00000000    0.00000000
     atom    6 type  2   force =     0.00005418   -0.00005700    0.00000000
     atom    7 type  3   force =     0.00016141    0.00000000   -0.00002378
     atom    8 type  4   force =     0.00000000   -0.00010231    0.00009656
     atom    9 type  1   force =     0.00000000    0.00000000    0.00000000
     atom   10 type  2   force =     0.00004572   -0.00005645    0.00000000
     atom   11 type  3   force =    -0.00000147    0.00000000   -0.00002083
     atom   12 type  4   force =     0.00000000    0.00010231   -0.00009656
     atom   13 type  1   force =     0.00000000    0.00000000    0.00000000
     atom   14 type  2   force =     0.00005418    0.00005700    0.00000000
     atom   15 type  3   force =    -0.00000147   -0.00000000    0.00002083
     atom   16 type  4   force =     0.00000000    0.00010231    0.00009656
     atom   17 type  1   force =     0.00000000    0.00000000    0.00000000
     atom   18 type  2   force =    -0.00004572    0.00005645    0.00000000
     atom   19 type  3   force =    -0.00016141    0.00000000    0.00002378
     atom   20 type  4   force =     0.00000000    0.00006397   -0.00006899
     atom   21 type  1   force =     0.00000000    0.00000000    0.00000000
     atom   22 type  2   force =    -0.00005418   -0.00005700    0.00000000
     atom   23 type  3   force =    -0.00016141    0.00000000   -0.00002378
     atom   24 type  4   force =     0.00000000    0.00006397    0.00006899
     atom   25 type  1   force =     0.00000000    0.00000000    0.00000000
     atom   26 type  2   force =    -0.00004572   -0.00005645    0.00000000
     atom   27 type  3   force =     0.00000147   -0.00000000   -0.00002083
     atom   28 type  4   force =     0.00000000   -0.00006397   -0.00006899
     atom   29 type  1   force =     0.00000000    0.00000000    0.00000000
     atom   30 type  2   force =    -0.00005418    0.00005700    0.00000000
     atom   31 type  3   force =     0.00000147    0.00000000    0.00002083
     atom   32 type  4   force =     0.00000000   -0.00006397    0.00006899

     Total force =     0.000518     Total SCF correction =     0.003236
     SCF correction compared to forces is large: reduce conv_thr to get better values


     Computing stress (Cartesian axis) and pressure

          total   stress  (Ry/bohr**3)                   (kbar)     P=   -0.87
  -0.00009332   0.00000000   0.00000000        -13.73      0.00      0.00
   0.00000000  -0.00000108   0.00000000          0.00     -0.16      0.00
   0.00000000   0.00000000   0.00007661          0.00      0.00     11.27


     Writing output data file wrVzrqddAWxBclGp.save/
-------------------------------------------------------
Primary job  terminated normally, but 1 process returned
a non-zero exit code.. Per user-direction, the job has been aborted.
-------------------------------------------------------
--------------------------------------------------------------------------
mpirun detected that one or more processes exited with non-zero status, thus causing
the job to be terminated. The first process to do so was:

  Process name: [[48557,1],0]
  Exit code:    38
--------------------------------------------------------------------------
