
     Program PWSCF v.6.3 starts on 11Nov2020 at  7:46:11 

     This program is part of the open-source Quantum ESPRESSO suite
     for quantum simulation of materials; please cite
         "P. Giannozzi et al., J. Phys.:Condens. Matter 21 395502 (2009);
         "P. Giannozzi et al., J. Phys.:Condens. Matter 29 465901 (2017);
          URL http://www.quantum-espresso.org", 
     in publications or presentations arising from this work. More details at
     http://www.quantum-espresso.org/quote

     Parallel version (MPI & OpenMP), running on      40 processor cores
     Number of MPI processes:                40
     Threads/MPI process:                     1

     MPI processes distributed on     1 nodes
     R & G space division:  proc/nbgrp/npool/nimage =      40
     Reading input from wd/configs/1/config_0002.in
Warning: card &IONS ignored
Warning: card ION_DYNAMICS = 'BFGS', ignored
Warning: card / ignored
Warning: card &CELL ignored
Warning: card CELL_DYNAMICS = 'BFGS', ignored
Warning: card CELL_FACTOR = 2.0, ignored
Warning: card PRESS = 0.0, ignored
Warning: card / ignored

     Current dimensions of program PWSCF are:
     Max number of different atomic species (ntypx) = 10
     Max number of k-points (npk) =  40000
     Max angular momentum in pseudopotentials (lmaxx) =  3
               file Pd.pbe-spn-kjpaw_psl.1.0.0.UPF: wavefunction(s)  4S 5S 4D renormalized
               file Fe.pbe-spn-kjpaw_psl.1.0.0.UPF: wavefunction(s)  3P 3D renormalized
               file Fe.pbe-spn-kjpaw_psl.1.0.0.UPF: wavefunction(s)  3P 3D renormalized
               file Fe.pbe-spn-kjpaw_psl.1.0.0.UPF: wavefunction(s)  3P 3D renormalized
               file Fe.pbe-spn-kjpaw_psl.1.0.0.UPF: wavefunction(s)  3P 3D renormalized

     Subspace diagonalization in iterative solution of the eigenvalue problem:
     a serial algorithm will be used

 
     Parallelization info
     --------------------
     sticks:   dense  smooth     PW     G-vecs:    dense   smooth      PW
     Min         153     100     27                 8751     4696     677
     Max         154     101     28                 8755     4703     682
     Sum        6123    4025   1119               350131   187977   27183
 


     bravais-lattice index     =            0
     lattice parameter (alat)  =      13.0187  a.u.
     unit-cell volume          =    2325.9404 (a.u.)^3
     number of atoms/cell      =           32
     number of atomic types    =            5
     number of electrons       =       514.00
     number of Kohn-Sham states=          308
     kinetic-energy cutoff     =      71.0000  Ry
     charge density cutoff     =     430.0000  Ry
     convergence threshold     =      1.0E-06
     mixing beta               =       0.1000
     number of iterations used =           10  plain     mixing
     Exchange-correlation      = SLA PW PBX PBC ( 1  4  3  4 0 0)

     celldm(1)=  13.018749  celldm(2)=   0.000000  celldm(3)=   0.000000
     celldm(4)=   0.000000  celldm(5)=   0.000000  celldm(6)=   0.000000

     crystal axes: (cart. coord. in units of alat)
               a(1) = (   1.000000   0.000000   0.000000 )  
               a(2) = (   0.000000   1.054129   0.000000 )  
               a(3) = (   0.000000   0.000000   0.999993 )  

     reciprocal axes: (cart. coord. in units 2 pi/alat)
               b(1) = (  1.000000  0.000000  0.000000 )  
               b(2) = (  0.000000  0.948650  0.000000 )  
               b(3) = (  0.000000  0.000000  1.000007 )  


     PseudoPot. # 1 for Pd read from file:
     /rds/homes/b/bxp912/pp/Pd.pbe-spn-kjpaw_psl.1.0.0.UPF
     MD5 check sum: 790f2ebce206edfd9790dcb9844eca51
     Pseudo is Projector augmented-wave + core cor, Zval = 18.0
     Generated using "atomic" code by A. Dal Corso v.6.3
     Shape of augmentation charge: PSQ
     Using radial grid of 1235 points,  6 beta functions with: 
                l(1) =   0
                l(2) =   0
                l(3) =   1
                l(4) =   1
                l(5) =   2
                l(6) =   2
     Q(r) pseudized with 0 coefficients 


     PseudoPot. # 2 for Fe read from file:
     /rds/homes/b/bxp912/pp/Fe.pbe-spn-kjpaw_psl.1.0.0.UPF
     MD5 check sum: 42f43b795421b414b0dc916aa790dbcb
     Pseudo is Projector augmented-wave + core cor, Zval = 16.0
     Generated using "atomic" code by A. Dal Corso v.6.3
     Shape of augmentation charge: PSQ
     Using radial grid of 1191 points,  6 beta functions with: 
                l(1) =   0
                l(2) =   0
                l(3) =   1
                l(4) =   1
                l(5) =   2
                l(6) =   2
     Q(r) pseudized with 0 coefficients 


     PseudoPot. # 3 for Fe read from file:
     /rds/homes/b/bxp912/pp/Fe.pbe-spn-kjpaw_psl.1.0.0.UPF
     MD5 check sum: 42f43b795421b414b0dc916aa790dbcb
     Pseudo is Projector augmented-wave + core cor, Zval = 16.0
     Generated using "atomic" code by A. Dal Corso v.6.3
     Shape of augmentation charge: PSQ
     Using radial grid of 1191 points,  6 beta functions with: 
                l(1) =   0
                l(2) =   0
                l(3) =   1
                l(4) =   1
                l(5) =   2
                l(6) =   2
     Q(r) pseudized with 0 coefficients 


     PseudoPot. # 4 for Fe read from file:
     /rds/homes/b/bxp912/pp/Fe.pbe-spn-kjpaw_psl.1.0.0.UPF
     MD5 check sum: 42f43b795421b414b0dc916aa790dbcb
     Pseudo is Projector augmented-wave + core cor, Zval = 16.0
     Generated using "atomic" code by A. Dal Corso v.6.3
     Shape of augmentation charge: PSQ
     Using radial grid of 1191 points,  6 beta functions with: 
                l(1) =   0
                l(2) =   0
                l(3) =   1
                l(4) =   1
                l(5) =   2
                l(6) =   2
     Q(r) pseudized with 0 coefficients 


     PseudoPot. # 5 for Fe read from file:
     /rds/homes/b/bxp912/pp/Fe.pbe-spn-kjpaw_psl.1.0.0.UPF
     MD5 check sum: 42f43b795421b414b0dc916aa790dbcb
     Pseudo is Projector augmented-wave + core cor, Zval = 16.0
     Generated using "atomic" code by A. Dal Corso v.6.3
     Shape of augmentation charge: PSQ
     Using radial grid of 1191 points,  6 beta functions with: 
                l(1) =   0
                l(2) =   0
                l(3) =   1
                l(4) =   1
                l(5) =   2
                l(6) =   2
     Q(r) pseudized with 0 coefficients 


     atomic species   valence    mass     pseudopotential
        Pd            18.00   106.42000     Pd( 1.00)
        Fe1           16.00    55.84500     Fe( 1.00)
        Fe2           16.00    55.84500     Fe( 1.00)
        Fe3           16.00    55.84500     Fe( 1.00)
        Fe4           16.00    55.84500     Fe( 1.00)

     Starting magnetic structure 
     atomic species   magnetization
        Pd          -0.080
        Fe1          1.000
        Fe2         -1.000
        Fe3          1.000
        Fe4         -1.000

     No symmetry found



   Cartesian axes

     site n.     atom                  positions (alat units)
         1           Pd  tau(   1) = (  -0.0008448  -0.0007458  -0.0006085  )
         2           Fe2 tau(   2) = (   0.2546029   0.2676863  -0.0006031  )
         3           Fe3 tau(   3) = (   0.2560735  -0.0006966   0.2569751  )
         4           Fe4 tau(   4) = (  -0.0008151   0.2686353   0.2548390  )
         5           Fe1 tau(   5) = (  -0.0001680  -0.0001766   0.4989491  )
         6           Fe2 tau(   6) = (   0.2499882   0.2631774   0.4992367  )
         7           Fe3 tau(   7) = (   0.2563566  -0.0004071   0.7419111  )
         8           Fe4 tau(   8) = (  -0.0006393   0.2683888   0.7445405  )
         9           Fe1 tau(   9) = (  -0.0002110   0.5265496  -0.0008043  )
        10           Fe2 tau(  10) = (   0.2547437   0.7848749   0.0001829  )
        11           Fe3 tau(  11) = (   0.2504751   0.5265521   0.2506186  )
        12           Fe4 tau(  12) = (  -0.0006782   0.7845782   0.2544675  )
        13           Fe1 tau(  13) = (  -0.0005097   0.5266631   0.4994606  )
        14           Fe2 tau(  14) = (   0.2496236   0.7891717   0.4989249  )
        15           Fe3 tau(  15) = (   0.2508211   0.5258025   0.7477139  )
        16           Fe4 tau(  16) = (  -0.0015376   0.7837805   0.7440315  )
        17           Fe1 tau(  17) = (   0.4997095  -0.0010037  -0.0008590  )
        18           Fe2 tau(  18) = (   0.7438414   0.2683527  -0.0013151  )
        19           Fe3 tau(  19) = (   0.7413166  -0.0009931   0.2564628  )
        20           Fe4 tau(  20) = (   0.4991734   0.2634869   0.2493030  )
        21           Fe1 tau(  21) = (   0.4990466  -0.0000809   0.4991640  )
        22           Fe2 tau(  22) = (   0.7489156   0.2628566   0.4991164  )
        23           Fe3 tau(  23) = (   0.7422558  -0.0009292   0.7422340  )
        24           Fe4 tau(  24) = (   0.4992584   0.2633111   0.7487458  )
        25           Fe1 tau(  25) = (   0.4988858   0.5265679  -0.0012825  )
        26           Fe2 tau(  26) = (   0.7435129   0.7846909  -0.0001262  )
        27           Fe3 tau(  27) = (   0.7486681   0.5258317   0.2499033  )
        28           Fe4 tau(  28) = (   0.4994376   0.7885251   0.2501887  )
        29           Fe1 tau(  29) = (   0.4984718   0.5265376   0.4993231  )
        30           Fe2 tau(  30) = (   0.7491442   0.7889933   0.4988874  )
        31           Fe3 tau(  31) = (   0.7483079   0.5263189   0.7487540  )
        32           Fe4 tau(  32) = (   0.4992650   0.7888954   0.7485648  )

     number of k points=   365  Marzari-Vanderbilt smearing, width (Ry)=  0.0400

     Number of k-points >= 100: set verbosity='high' to print them.

     Dense  grid:   350131 G-vectors     FFT dimensions: (  90,  96,  90)

     Smooth grid:   187977 G-vectors     FFT dimensions: (  72,  75,  72)

     Estimated max dynamical RAM per process >       2.10 GB

     Estimated total dynamical RAM >      84.20 GB
     Generating pointlists ...
     new r_m :   0.1499 (alat units)  1.9520 (a.u.) for type    1
     new r_m :   0.1415 (alat units)  1.8416 (a.u.) for type    2
     new r_m :   0.1442 (alat units)  1.8776 (a.u.) for type    3
     new r_m :   0.1415 (alat units)  1.8416 (a.u.) for type    4
     new r_m :   0.1442 (alat units)  1.8776 (a.u.) for type    5

     Check: negative/imaginary core charge=   -0.000006    0.000000

     Initial potential from superposition of free atoms

     starting charge  513.98605, renormalised to  514.00000
     Starting wfcs are  320 randomized atomic wfcs
     Checking if some PAW data can be deallocated... 

     total cpu time spent up to now is      247.1 secs

     Self-consistent Calculation

     iteration #  1     ecut=    71.00 Ry     beta= 0.10
     Davidson diagonalization with overlap
     ethr =  1.00E-02,  avg # of iterations =  5.0

     negative rho (up, down):  1.054E+01 9.372E+00

     total cpu time spent up to now is     3283.0 secs

     total energy              =  -10338.05436776 Ry
     Harris-Foulkes estimate   =  -10664.61942230 Ry
     estimated scf accuracy    <   12578.86097813 Ry

     total magnetization       =    -2.52 Bohr mag/cell
     absolute magnetization    =   553.66 Bohr mag/cell

     iteration #  2     ecut=    71.00 Ry     beta= 0.10
     Davidson diagonalization with overlap
     ethr =  1.00E-02,  avg # of iterations =  4.6

     negative rho (up, down):  9.303E+00 1.216E+01

     total cpu time spent up to now is     5396.5 secs

     total energy              =  -10541.61158851 Ry
     Harris-Foulkes estimate   =  -10660.54212578 Ry
     estimated scf accuracy    <    4081.08115965 Ry

     total magnetization       =   -13.32 Bohr mag/cell
     absolute magnetization    =   265.63 Bohr mag/cell

     iteration #  3     ecut=    71.00 Ry     beta= 0.10
     Davidson diagonalization with overlap
     ethr =  1.00E-02,  avg # of iterations =  4.4

     negative rho (up, down):  7.979E+00 1.023E+01

     total cpu time spent up to now is     6862.9 secs

     total energy              =  -10660.32434801 Ry
     Harris-Foulkes estimate   =  -10652.40022115 Ry
     estimated scf accuracy    <     215.69079890 Ry

     total magnetization       =    -3.52 Bohr mag/cell
     absolute magnetization    =   142.47 Bohr mag/cell

     iteration #  4     ecut=    71.00 Ry     beta= 0.10
     Davidson diagonalization with overlap
     ethr =  1.00E-02,  avg # of iterations =  1.0

     negative rho (up, down):  4.956E+00 5.806E+00

     total cpu time spent up to now is     7535.7 secs

     total energy              =  -10679.92447278 Ry
     Harris-Foulkes estimate   =  -10660.79571905 Ry
     estimated scf accuracy    <     175.99301455 Ry

     total magnetization       =    -3.99 Bohr mag/cell
     absolute magnetization    =   139.78 Bohr mag/cell

     iteration #  5     ecut=    71.00 Ry     beta= 0.10
     Davidson diagonalization with overlap
     ethr =  1.00E-02,  avg # of iterations =  2.1

     negative rho (up, down):  2.060E+00 1.933E+00

     total cpu time spent up to now is     8453.0 secs

     total energy              =  -10700.64543750 Ry
     Harris-Foulkes estimate   =  -10681.40983735 Ry
     estimated scf accuracy    <     101.61727501 Ry

     total magnetization       =    -4.66 Bohr mag/cell
     absolute magnetization    =   129.34 Bohr mag/cell

     iteration #  6     ecut=    71.00 Ry     beta= 0.10
     Davidson diagonalization with overlap
     ethr =  1.00E-02,  avg # of iterations =  3.3

     negative rho (up, down):  1.255E+00 1.416E+00

     total cpu time spent up to now is     9672.4 secs

     total energy              =  -10707.38264276 Ry
     Harris-Foulkes estimate   =  -10703.12713291 Ry
     estimated scf accuracy    <      45.34404490 Ry

     total magnetization       =    -6.80 Bohr mag/cell
     absolute magnetization    =   111.55 Bohr mag/cell

     iteration #  7     ecut=    71.00 Ry     beta= 0.10
     Davidson diagonalization with overlap
     ethr =  8.82E-03,  avg # of iterations =  1.5

     negative rho (up, down):  8.141E-02 1.053E+00

     total cpu time spent up to now is    10467.4 secs

     total energy              =  -10714.95847314 Ry
     Harris-Foulkes estimate   =  -10708.36121444 Ry
     estimated scf accuracy    <      25.93018451 Ry

     total magnetization       =    -3.88 Bohr mag/cell
     absolute magnetization    =   107.05 Bohr mag/cell

     iteration #  8     ecut=    71.00 Ry     beta= 0.10
     Davidson diagonalization with overlap
     ethr =  5.04E-03,  avg # of iterations =  2.6

     negative rho (up, down):  3.805E-02 1.207E+00

     total cpu time spent up to now is    11506.4 secs

     total energy              =  -10717.19849619 Ry
     Harris-Foulkes estimate   =  -10716.28365604 Ry
     estimated scf accuracy    <      16.27222644 Ry

     total magnetization       =    -2.92 Bohr mag/cell
     absolute magnetization    =    92.04 Bohr mag/cell

     iteration #  9     ecut=    71.00 Ry     beta= 0.10
     Davidson diagonalization with overlap
     ethr =  3.17E-03,  avg # of iterations =  4.2

     negative rho (up, down):  1.189E-01 1.333E+00

     total cpu time spent up to now is    12888.9 secs

     total energy              =  -10718.02111551 Ry
     Harris-Foulkes estimate   =  -10717.82388150 Ry
     estimated scf accuracy    <      12.83451572 Ry

     total magnetization       =    -2.79 Bohr mag/cell
     absolute magnetization    =    84.52 Bohr mag/cell

     iteration # 10     ecut=    71.00 Ry     beta= 0.10
     Davidson diagonalization with overlap
     ethr =  2.50E-03,  avg # of iterations =  3.1

     negative rho (up, down):  2.065E-01 1.328E+00

     total cpu time spent up to now is    14036.0 secs

     total energy              =  -10718.35255046 Ry
     Harris-Foulkes estimate   =  -10718.39306661 Ry
     estimated scf accuracy    <      12.16797123 Ry

     total magnetization       =    -3.20 Bohr mag/cell
     absolute magnetization    =    76.70 Bohr mag/cell

     iteration # 11     ecut=    71.00 Ry     beta= 0.10
     Davidson diagonalization with overlap
     ethr =  2.37E-03,  avg # of iterations =  2.2

     negative rho (up, down):  2.113E-01 1.254E+00

     total cpu time spent up to now is    14991.3 secs

     total energy              =  -10718.64433840 Ry
     Harris-Foulkes estimate   =  -10718.64825765 Ry
     estimated scf accuracy    <      10.97592063 Ry

     total magnetization       =    -2.16 Bohr mag/cell
     absolute magnetization    =    67.49 Bohr mag/cell

     iteration # 12     ecut=    71.00 Ry     beta= 0.10
     Davidson diagonalization with overlap
     ethr =  2.14E-03,  avg # of iterations =  1.6

     negative rho (up, down):  4.036E-02 7.742E-01

     total cpu time spent up to now is    15810.3 secs

     total energy              =  -10718.30617618 Ry
     Harris-Foulkes estimate   =  -10718.70205966 Ry
     estimated scf accuracy    <       9.71258413 Ry

     total magnetization       =    -2.20 Bohr mag/cell
     absolute magnetization    =    64.74 Bohr mag/cell

     iteration # 13     ecut=    71.00 Ry     beta= 0.10
     Davidson diagonalization with overlap
     ethr =  1.89E-03,  avg # of iterations =  1.4

     negative rho (up, down):  7.906E-04 2.735E-02

     total cpu time spent up to now is    16576.3 secs

     total energy              =  -10718.58655734 Ry
     Harris-Foulkes estimate   =  -10718.44203389 Ry
     estimated scf accuracy    <       5.47423508 Ry

     total magnetization       =    -2.72 Bohr mag/cell
     absolute magnetization    =    72.92 Bohr mag/cell

     iteration # 14     ecut=    71.00 Ry     beta= 0.10
     Davidson diagonalization with overlap
     ethr =  1.07E-03,  avg # of iterations =  2.7

     negative rho (up, down):  4.199E-04 5.757E-03

     total cpu time spent up to now is    17623.0 secs

     total energy              =  -10718.74283442 Ry
     Harris-Foulkes estimate   =  -10718.79242887 Ry
     estimated scf accuracy    <       1.85978759 Ry

     total magnetization       =    -3.14 Bohr mag/cell
     absolute magnetization    =    65.04 Bohr mag/cell

     iteration # 15     ecut=    71.00 Ry     beta= 0.10
     Davidson diagonalization with overlap
     ethr =  3.62E-04,  avg # of iterations =  3.7

     negative rho (up, down):  1.119E-04 1.841E-03

     total cpu time spent up to now is    18913.8 secs

     total energy              =  -10718.83653359 Ry
     Harris-Foulkes estimate   =  -10718.84449594 Ry
     estimated scf accuracy    <       0.88593069 Ry

     total magnetization       =    -2.61 Bohr mag/cell
     absolute magnetization    =    62.58 Bohr mag/cell

     iteration # 16     ecut=    71.00 Ry     beta= 0.10
     Davidson diagonalization with overlap
     ethr =  1.72E-04,  avg # of iterations =  2.1

     negative rho (up, down):  3.184E-05 1.684E-03

     total cpu time spent up to now is    19847.9 secs

     total energy              =  -10718.87386460 Ry
     Harris-Foulkes estimate   =  -10718.87833311 Ry
     estimated scf accuracy    <       0.33814402 Ry

     total magnetization       =    -2.40 Bohr mag/cell
     absolute magnetization    =    60.31 Bohr mag/cell

     iteration # 17     ecut=    71.00 Ry     beta= 0.10
     Davidson diagonalization with overlap
     ethr =  6.58E-05,  avg # of iterations =  1.8

     negative rho (up, down):  3.136E-05 1.142E-03

     total cpu time spent up to now is    20699.7 secs

     total energy              =  -10718.89790379 Ry
     Harris-Foulkes estimate   =  -10718.88379475 Ry
     estimated scf accuracy    <       0.16495039 Ry

     total magnetization       =    -2.42 Bohr mag/cell
     absolute magnetization    =    59.55 Bohr mag/cell

     iteration # 18     ecut=    71.00 Ry     beta= 0.10
     Davidson diagonalization with overlap
     ethr =  3.21E-05,  avg # of iterations =  3.1

     negative rho (up, down):  6.924E-05 7.845E-04

     total cpu time spent up to now is    21847.9 secs

     total energy              =  -10718.91913569 Ry
     Harris-Foulkes estimate   =  -10718.90903066 Ry
     estimated scf accuracy    <       0.11341864 Ry

     total magnetization       =    -2.49 Bohr mag/cell
     absolute magnetization    =    57.62 Bohr mag/cell

     iteration # 19     ecut=    71.00 Ry     beta= 0.10
     Davidson diagonalization with overlap
     ethr =  2.21E-05,  avg # of iterations =  2.5

     negative rho (up, down):  6.345E-05 6.583E-04

     total cpu time spent up to now is    22877.3 secs

     total energy              =  -10718.93272540 Ry
     Harris-Foulkes estimate   =  -10718.92744592 Ry
     estimated scf accuracy    <       0.07347736 Ry

     total magnetization       =    -2.46 Bohr mag/cell
     absolute magnetization    =    56.01 Bohr mag/cell

     iteration # 20     ecut=    71.00 Ry     beta= 0.10
     Davidson diagonalization with overlap
     ethr =  1.43E-05,  avg # of iterations =  1.2

     negative rho (up, down):  4.336E-05 4.564E-04

     total cpu time spent up to now is    23604.7 secs

     total energy              =  -10718.94075113 Ry
     Harris-Foulkes estimate   =  -10718.93460626 Ry
     estimated scf accuracy    <       0.04289412 Ry

     total magnetization       =    -2.40 Bohr mag/cell
     absolute magnetization    =    55.52 Bohr mag/cell

     iteration # 21     ecut=    71.00 Ry     beta= 0.10
     Davidson diagonalization with overlap
     ethr =  8.35E-06,  avg # of iterations =  1.3

     negative rho (up, down):  1.914E-06 1.220E-04

     total cpu time spent up to now is    24352.9 secs

     total energy              =  -10718.94903598 Ry
     Harris-Foulkes estimate   =  -10718.94210111 Ry
     estimated scf accuracy    <       0.03561760 Ry

     total magnetization       =    -2.39 Bohr mag/cell
     absolute magnetization    =    54.86 Bohr mag/cell

     iteration # 22     ecut=    71.00 Ry     beta= 0.10
     Davidson diagonalization with overlap
     ethr =  6.93E-06,  avg # of iterations =  2.5

     negative rho (up, down):  0.000E+00 2.036E-05

     total cpu time spent up to now is    25350.8 secs

     total energy              =  -10718.95706673 Ry
     Harris-Foulkes estimate   =  -10718.95233853 Ry
     estimated scf accuracy    <       0.03515667 Ry

     total magnetization       =    -2.44 Bohr mag/cell
     absolute magnetization    =    53.63 Bohr mag/cell

     iteration # 23     ecut=    71.00 Ry     beta= 0.10
     Davidson diagonalization with overlap
     ethr =  6.84E-06,  avg # of iterations =  1.3

     negative rho (up, down):  0.000E+00 9.214E-06

     total cpu time spent up to now is    26111.8 secs

     total energy              =  -10718.96217831 Ry
     Harris-Foulkes estimate   =  -10718.95908586 Ry
     estimated scf accuracy    <       0.01650679 Ry

     total magnetization       =    -2.40 Bohr mag/cell
     absolute magnetization    =    53.05 Bohr mag/cell

     iteration # 24     ecut=    71.00 Ry     beta= 0.10
     Davidson diagonalization with overlap
     ethr =  3.21E-06,  avg # of iterations =  3.9

     total cpu time spent up to now is    27436.7 secs

     total energy              =  -10718.96582873 Ry
     Harris-Foulkes estimate   =  -10718.96376208 Ry
     estimated scf accuracy    <       0.01281936 Ry

     total magnetization       =    -2.40 Bohr mag/cell
     absolute magnetization    =    52.21 Bohr mag/cell

     iteration # 25     ecut=    71.00 Ry     beta= 0.10
     Davidson diagonalization with overlap
     c_bands:  1 eigenvalues not converged
     c_bands:  1 eigenvalues not converged
     c_bands:  1 eigenvalues not converged
     c_bands:  1 eigenvalues not converged
     ethr =  2.49E-06,  avg # of iterations =  1.3

     total cpu time spent up to now is    28194.4 secs

     total energy              =  -10718.96746271 Ry
     Harris-Foulkes estimate   =  -10718.96629841 Ry
     estimated scf accuracy    <       0.00807274 Ry

     total magnetization       =    -2.41 Bohr mag/cell
     absolute magnetization    =    52.04 Bohr mag/cell

     iteration # 26     ecut=    71.00 Ry     beta= 0.10
     Davidson diagonalization with overlap
     ethr =  1.57E-06,  avg # of iterations =  1.0

     total cpu time spent up to now is    28891.4 secs

     total energy              =  -10718.96900954 Ry
     Harris-Foulkes estimate   =  -10718.96776414 Ry
     estimated scf accuracy    <       0.00661076 Ry

     total magnetization       =    -2.41 Bohr mag/cell
     absolute magnetization    =    52.04 Bohr mag/cell

     iteration # 27     ecut=    71.00 Ry     beta= 0.10
     Davidson diagonalization with overlap
     ethr =  1.29E-06,  avg # of iterations =  1.0

     total cpu time spent up to now is    29582.8 secs

     total energy              =  -10718.97012121 Ry
     Harris-Foulkes estimate   =  -10718.96928459 Ry
     estimated scf accuracy    <       0.00450688 Ry

     total magnetization       =    -2.42 Bohr mag/cell
     absolute magnetization    =    51.88 Bohr mag/cell

     iteration # 28     ecut=    71.00 Ry     beta= 0.10
     Davidson diagonalization with overlap
     ethr =  8.77E-07,  avg # of iterations =  1.0

     total cpu time spent up to now is    30276.5 secs

     total energy              =  -10718.97111895 Ry
     Harris-Foulkes estimate   =  -10718.97025838 Ry
     estimated scf accuracy    <       0.00284464 Ry

     total magnetization       =    -2.43 Bohr mag/cell
     absolute magnetization    =    51.82 Bohr mag/cell

     iteration # 29     ecut=    71.00 Ry     beta= 0.10
     Davidson diagonalization with overlap
     ethr =  5.53E-07,  avg # of iterations =  1.1

     total cpu time spent up to now is    30984.5 secs

     total energy              =  -10718.97172110 Ry
     Harris-Foulkes estimate   =  -10718.97121908 Ry
     estimated scf accuracy    <       0.00256850 Ry

     total magnetization       =    -2.43 Bohr mag/cell
     absolute magnetization    =    51.65 Bohr mag/cell

     iteration # 30     ecut=    71.00 Ry     beta= 0.10
     Davidson diagonalization with overlap
     ethr =  5.00E-07,  avg # of iterations =  1.0

     total cpu time spent up to now is    31673.9 secs

     total energy              =  -10718.97230066 Ry
     Harris-Foulkes estimate   =  -10718.97179445 Ry
     estimated scf accuracy    <       0.00215364 Ry

     total magnetization       =    -2.43 Bohr mag/cell
     absolute magnetization    =    51.59 Bohr mag/cell

     iteration # 31     ecut=    71.00 Ry     beta= 0.10
     Davidson diagonalization with overlap
     ethr =  4.19E-07,  avg # of iterations =  1.0

     total cpu time spent up to now is    32361.3 secs

     total energy              =  -10718.97295427 Ry
     Harris-Foulkes estimate   =  -10718.97237668 Ry
     estimated scf accuracy    <       0.00232386 Ry

     total magnetization       =    -2.44 Bohr mag/cell
     absolute magnetization    =    51.49 Bohr mag/cell

     iteration # 32     ecut=    71.00 Ry     beta= 0.10
     Davidson diagonalization with overlap
     ethr =  4.19E-07,  avg # of iterations =  1.0

     total cpu time spent up to now is    33058.9 secs

     total energy              =  -10718.97360844 Ry
     Harris-Foulkes estimate   =  -10718.97307164 Ry
     estimated scf accuracy    <       0.00192176 Ry

     total magnetization       =    -2.45 Bohr mag/cell
     absolute magnetization    =    51.29 Bohr mag/cell

     iteration # 33     ecut=    71.00 Ry     beta= 0.10
     Davidson diagonalization with overlap
     ethr =  3.74E-07,  avg # of iterations =  1.2

     total cpu time spent up to now is    33792.9 secs

     total energy              =  -10718.97409334 Ry
     Harris-Foulkes estimate   =  -10718.97372490 Ry
     estimated scf accuracy    <       0.00122870 Ry

     total magnetization       =    -2.45 Bohr mag/cell
     absolute magnetization    =    51.05 Bohr mag/cell

     iteration # 34     ecut=    71.00 Ry     beta= 0.10
     Davidson diagonalization with overlap
     ethr =  2.39E-07,  avg # of iterations =  2.1

     total cpu time spent up to now is    34697.2 secs

     total energy              =  -10718.97436963 Ry
     Harris-Foulkes estimate   =  -10718.97417257 Ry
     estimated scf accuracy    <       0.00136270 Ry

     total magnetization       =    -2.44 Bohr mag/cell
     absolute magnetization    =    50.89 Bohr mag/cell

     iteration # 35     ecut=    71.00 Ry     beta= 0.10
     Davidson diagonalization with overlap
     ethr =  2.39E-07,  avg # of iterations =  1.0

     total cpu time spent up to now is    35385.7 secs

     total energy              =  -10718.97475502 Ry
     Harris-Foulkes estimate   =  -10718.97443836 Ry
     estimated scf accuracy    <       0.00121595 Ry

     total magnetization       =    -2.45 Bohr mag/cell
     absolute magnetization    =    50.80 Bohr mag/cell

     iteration # 36     ecut=    71.00 Ry     beta= 0.10
     Davidson diagonalization with overlap
     ethr =  2.37E-07,  avg # of iterations =  2.2

     total cpu time spent up to now is    36313.4 secs

     total energy              =  -10718.97504779 Ry
     Harris-Foulkes estimate   =  -10718.97488753 Ry
     estimated scf accuracy    <       0.00065531 Ry

     total magnetization       =    -2.45 Bohr mag/cell
     absolute magnetization    =    50.51 Bohr mag/cell

     iteration # 37     ecut=    71.00 Ry     beta= 0.10
     Davidson diagonalization with overlap
     ethr =  1.27E-07,  avg # of iterations =  2.0

     total cpu time spent up to now is    37207.4 secs

     total energy              =  -10718.97522720 Ry
     Harris-Foulkes estimate   =  -10718.97509570 Ry
     estimated scf accuracy    <       0.00053947 Ry

     total magnetization       =    -2.45 Bohr mag/cell
     absolute magnetization    =    50.39 Bohr mag/cell

     iteration # 38     ecut=    71.00 Ry     beta= 0.10
     Davidson diagonalization with overlap
     ethr =  1.05E-07,  avg # of iterations =  2.0

     total cpu time spent up to now is    38104.5 secs

     total energy              =  -10718.97537286 Ry
     Harris-Foulkes estimate   =  -10718.97527427 Ry
     estimated scf accuracy    <       0.00037769 Ry

     total magnetization       =    -2.46 Bohr mag/cell
     absolute magnetization    =    50.25 Bohr mag/cell

     iteration # 39     ecut=    71.00 Ry     beta= 0.10
     Davidson diagonalization with overlap
     ethr =  7.35E-08,  avg # of iterations =  1.3

     total cpu time spent up to now is    38849.0 secs

     total energy              =  -10718.97546435 Ry
     Harris-Foulkes estimate   =  -10718.97539141 Ry
     estimated scf accuracy    <       0.00023417 Ry

     total magnetization       =    -2.46 Bohr mag/cell
     absolute magnetization    =    50.17 Bohr mag/cell

     iteration # 40     ecut=    71.00 Ry     beta= 0.10
     Davidson diagonalization with overlap
     ethr =  4.56E-08,  avg # of iterations =  1.2

     total cpu time spent up to now is    39566.9 secs

     total energy              =  -10718.97554390 Ry
     Harris-Foulkes estimate   =  -10718.97547244 Ry
     estimated scf accuracy    <       0.00019982 Ry

     total magnetization       =    -2.46 Bohr mag/cell
     absolute magnetization    =    50.13 Bohr mag/cell

     iteration # 41     ecut=    71.00 Ry     beta= 0.10
     Davidson diagonalization with overlap
     ethr =  3.89E-08,  avg # of iterations =  1.1

     total cpu time spent up to now is    40265.9 secs

     total energy              =  -10718.97560448 Ry
     Harris-Foulkes estimate   =  -10718.97555292 Ry
     estimated scf accuracy    <       0.00021976 Ry

     total magnetization       =    -2.46 Bohr mag/cell
     absolute magnetization    =    50.09 Bohr mag/cell

     iteration # 42     ecut=    71.00 Ry     beta= 0.10
     Davidson diagonalization with overlap
     ethr =  3.89E-08,  avg # of iterations =  1.0

     total cpu time spent up to now is    40956.5 secs

     total energy              =  -10718.97565902 Ry
     Harris-Foulkes estimate   =  -10718.97561343 Ry
     estimated scf accuracy    <       0.00016302 Ry

     total magnetization       =    -2.47 Bohr mag/cell
     absolute magnetization    =    50.05 Bohr mag/cell

     iteration # 43     ecut=    71.00 Ry     beta= 0.10
     Davidson diagonalization with overlap
     ethr =  3.17E-08,  avg # of iterations =  1.0

     total cpu time spent up to now is    41638.4 secs

     total energy              =  -10718.97571310 Ry
     Harris-Foulkes estimate   =  -10718.97566535 Ry
     estimated scf accuracy    <       0.00015629 Ry

     total magnetization       =    -2.47 Bohr mag/cell
     absolute magnetization    =    50.03 Bohr mag/cell

     iteration # 44     ecut=    71.00 Ry     beta= 0.10
     Davidson diagonalization with overlap
     ethr =  3.04E-08,  avg # of iterations =  1.0

     total cpu time spent up to now is    42325.8 secs

     total energy              =  -10718.97576124 Ry
     Harris-Foulkes estimate   =  -10718.97571982 Ry
     estimated scf accuracy    <       0.00010721 Ry

     total magnetization       =    -2.47 Bohr mag/cell
     absolute magnetization    =    50.00 Bohr mag/cell

     iteration # 45     ecut=    71.00 Ry     beta= 0.10
     Davidson diagonalization with overlap
     ethr =  2.09E-08,  avg # of iterations =  1.0

     total cpu time spent up to now is    43013.3 secs

     total energy              =  -10718.97579716 Ry
     Harris-Foulkes estimate   =  -10718.97576554 Ry
     estimated scf accuracy    <       0.00008682 Ry

     total magnetization       =    -2.48 Bohr mag/cell
     absolute magnetization    =    49.97 Bohr mag/cell

     iteration # 46     ecut=    71.00 Ry     beta= 0.10
     Davidson diagonalization with overlap
     ethr =  1.69E-08,  avg # of iterations =  1.1

     total cpu time spent up to now is    43711.1 secs

     total energy              =  -10718.97583152 Ry
     Harris-Foulkes estimate   =  -10718.97580081 Ry
     estimated scf accuracy    <       0.00010511 Ry

     total magnetization       =    -2.48 Bohr mag/cell
     absolute magnetization    =    49.96 Bohr mag/cell

     iteration # 47     ecut=    71.00 Ry     beta= 0.10
     Davidson diagonalization with overlap
     ethr =  1.69E-08,  avg # of iterations =  1.1

     total cpu time spent up to now is    44408.7 secs

     total energy              =  -10718.97586419 Ry
     Harris-Foulkes estimate   =  -10718.97583763 Ry
     estimated scf accuracy    <       0.00010100 Ry

     total magnetization       =    -2.49 Bohr mag/cell
     absolute magnetization    =    49.94 Bohr mag/cell

     iteration # 48     ecut=    71.00 Ry     beta= 0.10
     Davidson diagonalization with overlap
     ethr =  1.69E-08,  avg # of iterations =  1.0

     total cpu time spent up to now is    45096.8 secs

     total energy              =  -10718.97588415 Ry
     Harris-Foulkes estimate   =  -10718.97586937 Ry
     estimated scf accuracy    <       0.00006951 Ry

     total magnetization       =    -2.49 Bohr mag/cell
     absolute magnetization    =    49.92 Bohr mag/cell

     iteration # 49     ecut=    71.00 Ry     beta= 0.10
     Davidson diagonalization with overlap
     ethr =  1.35E-08,  avg # of iterations =  1.0

     total cpu time spent up to now is    45781.0 secs

     total energy              =  -10718.97590939 Ry
     Harris-Foulkes estimate   =  -10718.97588575 Ry
     estimated scf accuracy    <       0.00006183 Ry

     total magnetization       =    -2.49 Bohr mag/cell
     absolute magnetization    =    49.92 Bohr mag/cell

     iteration # 50     ecut=    71.00 Ry     beta= 0.10
     Davidson diagonalization with overlap
     ethr =  1.20E-08,  avg # of iterations =  1.1

     total cpu time spent up to now is    46478.3 secs

     total energy              =  -10718.97592559 Ry
     Harris-Foulkes estimate   =  -10718.97591348 Ry
     estimated scf accuracy    <       0.00005429 Ry

     total magnetization       =    -2.50 Bohr mag/cell
     absolute magnetization    =    49.91 Bohr mag/cell

     iteration # 51     ecut=    71.00 Ry     beta= 0.10
     Davidson diagonalization with overlap
     ethr =  1.06E-08,  avg # of iterations =  1.0

     total cpu time spent up to now is    47165.9 secs

     total energy              =  -10718.97594487 Ry
     Harris-Foulkes estimate   =  -10718.97592690 Ry
     estimated scf accuracy    <       0.00005066 Ry

     total magnetization       =    -2.50 Bohr mag/cell
     absolute magnetization    =    49.91 Bohr mag/cell

     iteration # 52     ecut=    71.00 Ry     beta= 0.10
     Davidson diagonalization with overlap
     ethr =  9.86E-09,  avg # of iterations =  1.0

     total cpu time spent up to now is    47857.9 secs

     total energy              =  -10718.97596945 Ry
     Harris-Foulkes estimate   =  -10718.97594809 Ry
     estimated scf accuracy    <       0.00005170 Ry

     total magnetization       =    -2.51 Bohr mag/cell
     absolute magnetization    =    49.90 Bohr mag/cell

     iteration # 53     ecut=    71.00 Ry     beta= 0.10
     Davidson diagonalization with overlap
     ethr =  9.86E-09,  avg # of iterations =  2.2

     total cpu time spent up to now is    48806.2 secs

     total energy              =  -10718.97598589 Ry
     Harris-Foulkes estimate   =  -10718.97597802 Ry
     estimated scf accuracy    <       0.00005125 Ry

     total magnetization       =    -2.52 Bohr mag/cell
     absolute magnetization    =    49.89 Bohr mag/cell

     iteration # 54     ecut=    71.00 Ry     beta= 0.10
     Davidson diagonalization with overlap
     ethr =  9.86E-09,  avg # of iterations =  1.0

     total cpu time spent up to now is    49488.9 secs

     total energy              =  -10718.97600120 Ry
     Harris-Foulkes estimate   =  -10718.97598735 Ry
     estimated scf accuracy    <       0.00004088 Ry

     total magnetization       =    -2.52 Bohr mag/cell
     absolute magnetization    =    49.89 Bohr mag/cell

     iteration # 55     ecut=    71.00 Ry     beta= 0.10
     Davidson diagonalization with overlap
     ethr =  7.95E-09,  avg # of iterations =  1.0

     total cpu time spent up to now is    50174.4 secs

     total energy              =  -10718.97601435 Ry
     Harris-Foulkes estimate   =  -10718.97600418 Ry
     estimated scf accuracy    <       0.00003810 Ry

     total magnetization       =    -2.52 Bohr mag/cell
     absolute magnetization    =    49.88 Bohr mag/cell

     iteration # 56     ecut=    71.00 Ry     beta= 0.10
     Davidson diagonalization with overlap
     ethr =  7.41E-09,  avg # of iterations =  1.0

     total cpu time spent up to now is    50859.9 secs

     total energy              =  -10718.97602737 Ry
     Harris-Foulkes estimate   =  -10718.97601618 Ry
     estimated scf accuracy    <       0.00003497 Ry

     total magnetization       =    -2.53 Bohr mag/cell
     absolute magnetization    =    49.88 Bohr mag/cell

     iteration # 57     ecut=    71.00 Ry     beta= 0.10
     Davidson diagonalization with overlap
     ethr =  6.80E-09,  avg # of iterations =  1.0

     total cpu time spent up to now is    51556.0 secs

     total energy              =  -10718.97604521 Ry
     Harris-Foulkes estimate   =  -10718.97602975 Ry
     estimated scf accuracy    <       0.00003088 Ry

     total magnetization       =    -2.53 Bohr mag/cell
     absolute magnetization    =    49.88 Bohr mag/cell

     iteration # 58     ecut=    71.00 Ry     beta= 0.10
     Davidson diagonalization with overlap
     ethr =  6.01E-09,  avg # of iterations =  2.8

     total cpu time spent up to now is    52671.7 secs

     total energy              =  -10718.97606771 Ry
     Harris-Foulkes estimate   =  -10718.97605503 Ry
     estimated scf accuracy    <       0.00003610 Ry

     total magnetization       =    -2.54 Bohr mag/cell
     absolute magnetization    =    49.86 Bohr mag/cell

     iteration # 59     ecut=    71.00 Ry     beta= 0.10
     Davidson diagonalization with overlap
     ethr =  6.01E-09,  avg # of iterations =  2.2

     total cpu time spent up to now is    53624.8 secs

     total energy              =  -10718.97608805 Ry
     Harris-Foulkes estimate   =  -10718.97608009 Ry
     estimated scf accuracy    <       0.00003380 Ry

     total magnetization       =    -2.55 Bohr mag/cell
     absolute magnetization    =    49.85 Bohr mag/cell

     iteration # 60     ecut=    71.00 Ry     beta= 0.10
     Davidson diagonalization with overlap
     ethr =  6.01E-09,  avg # of iterations =  1.0

     total cpu time spent up to now is    54309.2 secs

     total energy              =  -10718.97609744 Ry
     Harris-Foulkes estimate   =  -10718.97609149 Ry
     estimated scf accuracy    <       0.00002370 Ry

     total magnetization       =    -2.56 Bohr mag/cell
     absolute magnetization    =    49.84 Bohr mag/cell

     iteration # 61     ecut=    71.00 Ry     beta= 0.10
     Davidson diagonalization with overlap
     ethr =  4.61E-09,  avg # of iterations =  1.5

     total cpu time spent up to now is    55092.1 secs

     total energy              =  -10718.97610719 Ry
     Harris-Foulkes estimate   =  -10718.97609944 Ry
     estimated scf accuracy    <       0.00002156 Ry

     total magnetization       =    -2.56 Bohr mag/cell
     absolute magnetization    =    49.84 Bohr mag/cell

     iteration # 62     ecut=    71.00 Ry     beta= 0.10
     Davidson diagonalization with overlap
     ethr =  4.20E-09,  avg # of iterations =  2.7

     total cpu time spent up to now is    56172.1 secs

     total energy              =  -10718.97611717 Ry
     Harris-Foulkes estimate   =  -10718.97611367 Ry
     estimated scf accuracy    <       0.00001828 Ry

     total magnetization       =    -2.57 Bohr mag/cell
     absolute magnetization    =    49.83 Bohr mag/cell

     iteration # 63     ecut=    71.00 Ry     beta= 0.10
     Davidson diagonalization with overlap
     ethr =  3.56E-09,  avg # of iterations =  1.0

     total cpu time spent up to now is    56855.3 secs

     total energy              =  -10718.97612382 Ry
     Harris-Foulkes estimate   =  -10718.97611811 Ry
     estimated scf accuracy    <       0.00001760 Ry

     total magnetization       =    -2.57 Bohr mag/cell
     absolute magnetization    =    49.83 Bohr mag/cell

     iteration # 64     ecut=    71.00 Ry     beta= 0.10
     Davidson diagonalization with overlap
     ethr =  3.42E-09,  avg # of iterations =  1.9

     total cpu time spent up to now is    57732.8 secs

     total energy              =  -10718.97613168 Ry
     Harris-Foulkes estimate   =  -10718.97612716 Ry
     estimated scf accuracy    <       0.00001631 Ry

     total magnetization       =    -2.57 Bohr mag/cell
     absolute magnetization    =    49.82 Bohr mag/cell

     iteration # 65     ecut=    71.00 Ry     beta= 0.10
     Davidson diagonalization with overlap
     ethr =  3.17E-09,  avg # of iterations =  3.0

     total cpu time spent up to now is    59012.1 secs

     total energy              =  -10718.97614221 Ry
     Harris-Foulkes estimate   =  -10718.97614213 Ry
     estimated scf accuracy    <       0.00001302 Ry

     total magnetization       =    -2.58 Bohr mag/cell
     absolute magnetization    =    49.80 Bohr mag/cell

     iteration # 66     ecut=    71.00 Ry     beta= 0.10
     Davidson diagonalization with overlap
     ethr =  2.53E-09,  avg # of iterations =  1.0

     total cpu time spent up to now is    59690.2 secs

     total energy              =  -10718.97614635 Ry
     Harris-Foulkes estimate   =  -10718.97614251 Ry
     estimated scf accuracy    <       0.00001351 Ry

     total magnetization       =    -2.58 Bohr mag/cell
     absolute magnetization    =    49.80 Bohr mag/cell

     iteration # 67     ecut=    71.00 Ry     beta= 0.10
     Davidson diagonalization with overlap
     ethr =  2.53E-09,  avg # of iterations =  1.1

     total cpu time spent up to now is    60394.7 secs

     total energy              =  -10718.97615133 Ry
     Harris-Foulkes estimate   =  -10718.97614796 Ry
     estimated scf accuracy    <       0.00001107 Ry

     total magnetization       =    -2.59 Bohr mag/cell
     absolute magnetization    =    49.80 Bohr mag/cell

     iteration # 68     ecut=    71.00 Ry     beta= 0.10
     Davidson diagonalization with overlap
     ethr =  2.15E-09,  avg # of iterations =  1.6

     total cpu time spent up to now is    61194.9 secs

     total energy              =  -10718.97615553 Ry
     Harris-Foulkes estimate   =  -10718.97615268 Ry
     estimated scf accuracy    <       0.00001083 Ry

     total magnetization       =    -2.59 Bohr mag/cell
     absolute magnetization    =    49.79 Bohr mag/cell

     iteration # 69     ecut=    71.00 Ry     beta= 0.10
     Davidson diagonalization with overlap
     ethr =  2.11E-09,  avg # of iterations =  1.1

     total cpu time spent up to now is    61897.3 secs

     total energy              =  -10718.97615968 Ry
     Harris-Foulkes estimate   =  -10718.97615640 Ry
     estimated scf accuracy    <       0.00000908 Ry

     total magnetization       =    -2.59 Bohr mag/cell
     absolute magnetization    =    49.79 Bohr mag/cell

     iteration # 70     ecut=    71.00 Ry     beta= 0.10
     Davidson diagonalization with overlap
     ethr =  1.77E-09,  avg # of iterations =  2.0

     total cpu time spent up to now is    62788.4 secs

     total energy              =  -10718.97616344 Ry
     Harris-Foulkes estimate   =  -10718.97616087 Ry
     estimated scf accuracy    <       0.00000935 Ry

     total magnetization       =    -2.59 Bohr mag/cell
     absolute magnetization    =    49.79 Bohr mag/cell

     iteration # 71     ecut=    71.00 Ry     beta= 0.10
     Davidson diagonalization with overlap
     ethr =  1.77E-09,  avg # of iterations =  1.0

     total cpu time spent up to now is    63479.0 secs

     total energy              =  -10718.97616554 Ry
     Harris-Foulkes estimate   =  -10718.97616425 Ry
     estimated scf accuracy    <       0.00000802 Ry

     total magnetization       =    -2.59 Bohr mag/cell
     absolute magnetization    =    49.78 Bohr mag/cell

     iteration # 72     ecut=    71.00 Ry     beta= 0.10
     Davidson diagonalization with overlap
     ethr =  1.56E-09,  avg # of iterations =  1.0

     total cpu time spent up to now is    64160.2 secs

     total energy              =  -10718.97616766 Ry
     Harris-Foulkes estimate   =  -10718.97616578 Ry
     estimated scf accuracy    <       0.00000711 Ry

     total magnetization       =    -2.59 Bohr mag/cell
     absolute magnetization    =    49.78 Bohr mag/cell

     iteration # 73     ecut=    71.00 Ry     beta= 0.10
     Davidson diagonalization with overlap
     ethr =  1.38E-09,  avg # of iterations =  1.0

     total cpu time spent up to now is    64846.1 secs

     total energy              =  -10718.97617090 Ry
     Harris-Foulkes estimate   =  -10718.97616807 Ry
     estimated scf accuracy    <       0.00000699 Ry

     total magnetization       =    -2.59 Bohr mag/cell
     absolute magnetization    =    49.78 Bohr mag/cell

     iteration # 74     ecut=    71.00 Ry     beta= 0.10
     Davidson diagonalization with overlap
     ethr =  1.36E-09,  avg # of iterations =  2.1

     total cpu time spent up to now is    65779.0 secs

     total energy              =  -10718.97617394 Ry
     Harris-Foulkes estimate   =  -10718.97617219 Ry
     estimated scf accuracy    <       0.00000668 Ry

     total magnetization       =    -2.60 Bohr mag/cell
     absolute magnetization    =    49.78 Bohr mag/cell

     iteration # 75     ecut=    71.00 Ry     beta= 0.10
     Davidson diagonalization with overlap
     ethr =  1.30E-09,  avg # of iterations =  1.0

     total cpu time spent up to now is    66465.5 secs

     total energy              =  -10718.97617716 Ry
     Harris-Foulkes estimate   =  -10718.97617439 Ry
     estimated scf accuracy    <       0.00000671 Ry

     total magnetization       =    -2.60 Bohr mag/cell
     absolute magnetization    =    49.78 Bohr mag/cell

     iteration # 76     ecut=    71.00 Ry     beta= 0.10
     Davidson diagonalization with overlap
     ethr =  1.30E-09,  avg # of iterations =  2.2

     total cpu time spent up to now is    67430.3 secs

     total energy              =  -10718.97618171 Ry
     Harris-Foulkes estimate   =  -10718.97617915 Ry
     estimated scf accuracy    <       0.00000657 Ry

     total magnetization       =    -2.60 Bohr mag/cell
     absolute magnetization    =    49.77 Bohr mag/cell

     iteration # 77     ecut=    71.00 Ry     beta= 0.10
     Davidson diagonalization with overlap
     ethr =  1.28E-09,  avg # of iterations =  2.4

     total cpu time spent up to now is    68443.3 secs

     total energy              =  -10718.97618455 Ry
     Harris-Foulkes estimate   =  -10718.97618389 Ry
     estimated scf accuracy    <       0.00000491 Ry

     total magnetization       =    -2.60 Bohr mag/cell
     absolute magnetization    =    49.77 Bohr mag/cell

     iteration # 78     ecut=    71.00 Ry     beta= 0.10
     Davidson diagonalization with overlap
     ethr =  9.56E-10,  avg # of iterations =  1.0

     total cpu time spent up to now is    69129.4 secs

     total energy              =  -10718.97618686 Ry
     Harris-Foulkes estimate   =  -10718.97618470 Ry
     estimated scf accuracy    <       0.00000570 Ry

     total magnetization       =    -2.60 Bohr mag/cell
     absolute magnetization    =    49.77 Bohr mag/cell

     iteration # 79     ecut=    71.00 Ry     beta= 0.10
     Davidson diagonalization with overlap
     ethr =  9.56E-10,  avg # of iterations =  2.3

     total cpu time spent up to now is    70111.6 secs

     total energy              =  -10718.97619046 Ry
     Harris-Foulkes estimate   =  -10718.97618842 Ry
     estimated scf accuracy    <       0.00000494 Ry

     total magnetization       =    -2.60 Bohr mag/cell
     absolute magnetization    =    49.76 Bohr mag/cell

     iteration # 80     ecut=    71.00 Ry     beta= 0.10
     Davidson diagonalization with overlap
     ethr =  9.56E-10,  avg # of iterations =  2.8

     total cpu time spent up to now is    71238.0 secs

     total energy              =  -10718.97619370 Ry
     Harris-Foulkes estimate   =  -10718.97619266 Ry
     estimated scf accuracy    <       0.00000554 Ry

     total magnetization       =    -2.60 Bohr mag/cell
     absolute magnetization    =    49.76 Bohr mag/cell

     iteration # 81     ecut=    71.00 Ry     beta= 0.10
     Davidson diagonalization with overlap
     ethr =  9.56E-10,  avg # of iterations =  1.0

     total cpu time spent up to now is    71918.4 secs

     total energy              =  -10718.97619451 Ry
     Harris-Foulkes estimate   =  -10718.97619404 Ry
     estimated scf accuracy    <       0.00000373 Ry

     total magnetization       =    -2.60 Bohr mag/cell
     absolute magnetization    =    49.76 Bohr mag/cell

     iteration # 82     ecut=    71.00 Ry     beta= 0.10
     Davidson diagonalization with overlap
     ethr =  7.26E-10,  avg # of iterations =  3.1

     total cpu time spent up to now is    73282.6 secs

     total energy              =  -10718.97620135 Ry
     Harris-Foulkes estimate   =  -10718.97620010 Ry
     estimated scf accuracy    <       0.00000339 Ry

     total magnetization       =    -2.61 Bohr mag/cell
     absolute magnetization    =    49.76 Bohr mag/cell

     iteration # 83     ecut=    71.00 Ry     beta= 0.10
     Davidson diagonalization with overlap
     ethr =  6.59E-10,  avg # of iterations =  1.7

     total cpu time spent up to now is    74118.2 secs

     total energy              =  -10718.97620321 Ry
     Harris-Foulkes estimate   =  -10718.97620218 Ry
     estimated scf accuracy    <       0.00000310 Ry

     total magnetization       =    -2.61 Bohr mag/cell
     absolute magnetization    =    49.75 Bohr mag/cell

     iteration # 84     ecut=    71.00 Ry     beta= 0.10
     Davidson diagonalization with overlap
     ethr =  6.02E-10,  avg # of iterations =  2.2

     total cpu time spent up to now is    75078.3 secs

     total energy              =  -10718.97620424 Ry
     Harris-Foulkes estimate   =  -10718.97620388 Ry
     estimated scf accuracy    <       0.00000302 Ry

     total magnetization       =    -2.61 Bohr mag/cell
     absolute magnetization    =    49.75 Bohr mag/cell

     iteration # 85     ecut=    71.00 Ry     beta= 0.10
     Davidson diagonalization with overlap
     ethr =  5.88E-10,  avg # of iterations =  3.1

     total cpu time spent up to now is    76378.1 secs

     total energy              =  -10718.97620768 Ry
     Harris-Foulkes estimate   =  -10718.97620741 Ry
     estimated scf accuracy    <       0.00000362 Ry

     total magnetization       =    -2.61 Bohr mag/cell
     absolute magnetization    =    49.75 Bohr mag/cell

     iteration # 86     ecut=    71.00 Ry     beta= 0.10
     Davidson diagonalization with overlap
     ethr =  5.88E-10,  avg # of iterations =  2.9

     total cpu time spent up to now is    77601.8 secs

     total energy              =  -10718.97621016 Ry
     Harris-Foulkes estimate   =  -10718.97621012 Ry
     estimated scf accuracy    <       0.00000232 Ry

     total magnetization       =    -2.61 Bohr mag/cell
     absolute magnetization    =    49.74 Bohr mag/cell

     iteration # 87     ecut=    71.00 Ry     beta= 0.10
     Davidson diagonalization with overlap
     ethr =  4.51E-10,  avg # of iterations =  1.0

     total cpu time spent up to now is    78280.2 secs

     total energy              =  -10718.97621074 Ry
     Harris-Foulkes estimate   =  -10718.97621023 Ry
     estimated scf accuracy    <       0.00000217 Ry

     total magnetization       =    -2.61 Bohr mag/cell
     absolute magnetization    =    49.74 Bohr mag/cell

     iteration # 88     ecut=    71.00 Ry     beta= 0.10
     Davidson diagonalization with overlap
     ethr =  4.23E-10,  avg # of iterations =  2.6

     total cpu time spent up to now is    79390.2 secs

     total energy              =  -10718.97621229 Ry
     Harris-Foulkes estimate   =  -10718.97621188 Ry
     estimated scf accuracy    <       0.00000153 Ry

     total magnetization       =    -2.61 Bohr mag/cell
     absolute magnetization    =    49.74 Bohr mag/cell

     iteration # 89     ecut=    71.00 Ry     beta= 0.10
     Davidson diagonalization with overlap
     ethr =  2.99E-10,  avg # of iterations =  3.0

     total cpu time spent up to now is    80658.9 secs

     total energy              =  -10718.97621368 Ry
     Harris-Foulkes estimate   =  -10718.97621339 Ry
     estimated scf accuracy    <       0.00000130 Ry

     total magnetization       =    -2.62 Bohr mag/cell
     absolute magnetization    =    49.74 Bohr mag/cell

     iteration # 90     ecut=    71.00 Ry     beta= 0.10
     Davidson diagonalization with overlap
     ethr =  2.53E-10,  avg # of iterations =  2.9

     total cpu time spent up to now is    81881.7 secs

     total energy              =  -10718.97621473 Ry
     Harris-Foulkes estimate   =  -10718.97621474 Ry
     estimated scf accuracy    <       0.00000175 Ry

     total magnetization       =    -2.62 Bohr mag/cell
     absolute magnetization    =    49.74 Bohr mag/cell

     iteration # 91     ecut=    71.00 Ry     beta= 0.10
     Davidson diagonalization with overlap
     ethr =  2.53E-10,  avg # of iterations =  3.1

     total cpu time spent up to now is    83198.2 secs

     total energy              =  -10718.97621589 Ry
     Harris-Foulkes estimate   =  -10718.97621612 Ry
     estimated scf accuracy    <       0.00000132 Ry

     total magnetization       =    -2.62 Bohr mag/cell
     absolute magnetization    =    49.73 Bohr mag/cell

     iteration # 92     ecut=    71.00 Ry     beta= 0.10
     Davidson diagonalization with overlap
     ethr =  2.53E-10,  avg # of iterations =  3.1
 
     Magnetic moment per site:
     atom:    1    charge:   15.8883    magn:   -0.0814    constr:    0.0000
     atom:    2    charge:   14.3296    magn:   -1.6936    constr:    0.0000
     atom:    3    charge:   14.2144    magn:    1.7462    constr:    0.0000
     atom:    4    charge:   14.3297    magn:   -1.6907    constr:    0.0000
     atom:    5    charge:   14.2271    magn:    1.2921    constr:    0.0000
     atom:    6    charge:   14.3589    magn:   -1.4358    constr:    0.0000
     atom:    7    charge:   14.2121    magn:    1.7602    constr:    0.0000
     atom:    8    charge:   14.3299    magn:   -1.6865    constr:    0.0000
     atom:    9    charge:   14.2264    magn:    1.2174    constr:    0.0000
     atom:   10    charge:   14.3282    magn:   -1.7002    constr:    0.0000
     atom:   11    charge:   14.2305    magn:    1.5553    constr:    0.0000
     atom:   12    charge:   14.3312    magn:   -1.6844    constr:    0.0000
     atom:   13    charge:   14.2487    magn:    1.2302    constr:    0.0000
     atom:   14    charge:   14.3572    magn:   -1.4436    constr:    0.0000
     atom:   15    charge:   14.2296    magn:    1.5656    constr:    0.0000
     atom:   16    charge:   14.3280    magn:   -1.6970    constr:    0.0000
     atom:   17    charge:   14.2276    magn:    1.2878    constr:    0.0000
     atom:   18    charge:   14.3307    magn:   -1.6848    constr:    0.0000
     atom:   19    charge:   14.2138    magn:    1.7473    constr:    0.0000
     atom:   20    charge:   14.3561    magn:   -1.4619    constr:    0.0000
     atom:   21    charge:   14.2641    magn:    1.4067    constr:    0.0000
     atom:   22    charge:   14.3545    magn:   -1.4688    constr:    0.0000
     atom:   23    charge:   14.2124    magn:    1.7537    constr:    0.0000
     atom:   24    charge:   14.3579    magn:   -1.4474    constr:    0.0000
     atom:   25    charge:   14.2492    magn:    1.2298    constr:    0.0000
     atom:   26    charge:   14.3311    magn:   -1.6827    constr:    0.0000
     atom:   27    charge:   14.2280    magn:    1.5612    constr:    0.0000
     atom:   28    charge:   14.3577    magn:   -1.4565    constr:    0.0000
     atom:   29    charge:   14.2298    magn:    1.5180    constr:    0.0000
     atom:   30    charge:   14.3552    magn:   -1.4676    constr:    0.0000
     atom:   31    charge:   14.2290    magn:    1.5592    constr:    0.0000
     atom:   32    charge:   14.3550    magn:   -1.4573    constr:    0.0000

     total cpu time spent up to now is    84496.5 secs

     End of self-consistent calculation

     Number of k-points >= 100: set verbosity='high' to print the bands.

     the Fermi energy is    20.0287 ev

!    total energy              =  -10718.97621736 Ry
     Harris-Foulkes estimate   =  -10718.97621735 Ry
     estimated scf accuracy    <       0.00000093 Ry

     total all-electron energy =    -89004.195421 Ry

     The total energy is the sum of the following terms:

     one-electron contribution =   -3290.34487004 Ry
     hartree contribution      =    1995.73240458 Ry
     xc contribution           =    -890.07367347 Ry
     ewald contribution        =   -5712.31131234 Ry
     one-center paw contrib.   =   -2821.98592867 Ry
     smearing contrib. (-TS)   =       0.00716258 Ry

     total magnetization       =    -2.62 Bohr mag/cell
     absolute magnetization    =    49.73 Bohr mag/cell

     convergence has been achieved in  92 iterations

     Forces acting on atoms (cartesian axes, Ry/au):

     atom    1 type  1   force =    -0.00026757   -0.00013856    0.00005194
     atom    2 type  3   force =    -0.00046026    0.00130585   -0.00029994
     atom    3 type  4   force =     0.00049347   -0.00022838   -0.00255332
     atom    4 type  5   force =     0.00051660   -0.00138555   -0.00133753
     atom    5 type  2   force =    -0.00192333   -0.00148140    0.00104261
     atom    6 type  3   force =    -0.00091444    0.00216129   -0.00015948
     atom    7 type  4   force =    -0.00108795   -0.00128216    0.00168862
     atom    8 type  5   force =    -0.00016795   -0.00030616   -0.00147131
     atom    9 type  2   force =    -0.00112422   -0.00032254    0.00040871
     atom   10 type  3   force =    -0.00054923   -0.00109998   -0.00281971
     atom   11 type  4   force =    -0.00124274   -0.00094827   -0.00130340
     atom   12 type  5   force =    -0.00021701   -0.00037296   -0.00011720
     atom   13 type  2   force =    -0.00095202   -0.00117312   -0.00068086
     atom   14 type  3   force =    -0.00034594   -0.00058057    0.00179199
     atom   15 type  4   force =    -0.00189544    0.00160221    0.00190000
     atom   16 type  5   force =     0.00259901    0.00186217    0.00091568
     atom   17 type  2   force =    -0.00101152    0.00068416    0.00035152
     atom   18 type  3   force =     0.00090733   -0.00031785    0.00128255
     atom   19 type  4   force =     0.00311020    0.00072597   -0.00103324
     atom   20 type  5   force =     0.00042275    0.00097938    0.00087302
     atom   21 type  2   force =     0.00074582   -0.00199211    0.00074574
     atom   22 type  3   force =    -0.00042575    0.00298993    0.00080316
     atom   23 type  4   force =     0.00044369   -0.00006672   -0.00002989
     atom   24 type  5   force =     0.00008515    0.00075981    0.00003673
     atom   25 type  2   force =     0.00092091   -0.00066528    0.00176802
     atom   26 type  3   force =     0.00137499   -0.00132463   -0.00155331
     atom   27 type  4   force =    -0.00053850    0.00084416    0.00025730
     atom   28 type  5   force =    -0.00069274    0.00088276   -0.00051692
     atom   29 type  2   force =     0.00345802   -0.00110467   -0.00030749
     atom   30 type  3   force =    -0.00098838   -0.00037923    0.00117231
     atom   31 type  4   force =    -0.00000944   -0.00011682   -0.00104963
     atom   32 type  5   force =    -0.00026350    0.00048928    0.00014334

     Total force =     0.011799     Total SCF correction =     0.005450
     SCF correction compared to forces is large: reduce conv_thr to get better values


     Computing stress (Cartesian axis) and pressure

          total   stress  (Ry/bohr**3)                   (kbar)     P=   -1.10
  -0.00000695   0.00000071   0.00000087         -1.02      0.10      0.13
   0.00000071  -0.00000804  -0.00000118          0.10     -1.18     -0.17
   0.00000087  -0.00000118  -0.00000746          0.13     -0.17     -1.10


     Writing output data file IzkfMihVRIKQEsvO.save/
-------------------------------------------------------
Primary job  terminated normally, but 1 process returned
a non-zero exit code.. Per user-direction, the job has been aborted.
-------------------------------------------------------
--------------------------------------------------------------------------
mpirun detected that one or more processes exited with non-zero status, thus causing
the job to be terminated. The first process to do so was:

  Process name: [[62723,1],0]
  Exit code:    38
--------------------------------------------------------------------------
