--------------------------------------------------------------------------
WARNING: No preset parameters were found for the device that Open MPI
detected:

  Local host:            bear-pg0206u26a
  Device name:           mlx5_0
  Device vendor ID:      0x02c9
  Device vendor part ID: 4123

Default device parameters will be used, which may result in lower
performance.  You can edit any of the files specified by the
btl_openib_device_param_files MCA parameter to set values for your
device.

NOTE: You can turn off this warning by setting the MCA parameter
      btl_openib_warn_no_device_params_found to 0.
--------------------------------------------------------------------------
--------------------------------------------------------------------------
WARNING: There was an error initializing an OpenFabrics device.

  Local host:   bear-pg0206u26a
  Local device: mlx5_0
--------------------------------------------------------------------------

     Program PWSCF v.6.3 starts on  2Nov2020 at 10: 8:13 

     This program is part of the open-source Quantum ESPRESSO suite
     for quantum simulation of materials; please cite
         "P. Giannozzi et al., J. Phys.:Condens. Matter 21 395502 (2009);
         "P. Giannozzi et al., J. Phys.:Condens. Matter 29 465901 (2017);
          URL http://www.quantum-espresso.org", 
     in publications or presentations arising from this work. More details at
     http://www.quantum-espresso.org/quote

     Parallel version (MPI & OpenMP), running on      40 processor cores
     Number of MPI processes:                40
     Threads/MPI process:                     1

     MPI processes distributed on     1 nodes
     R & G space division:  proc/nbgrp/npool/nimage =      40
     Reading input from wd/ec/ec_4_005.in
Warning: card &IONS ignored
Warning: card ION_DYNAMICS = 'BFGS', ignored
Warning: card / ignored
Warning: card &CELL ignored
Warning: card CELL_DYNAMICS = 'BFGS', ignored
Warning: card CELL_FACTOR = 2.0, ignored
Warning: card PRESS = 0.0, ignored
Warning: card / ignored

     Current dimensions of program PWSCF are:
     Max number of different atomic species (ntypx) = 10
     Max number of k-points (npk) =  40000
     Max angular momentum in pseudopotentials (lmaxx) =  3
               file Fe.pbe-spn-kjpaw_psl.1.0.0.UPF: wavefunction(s)  3P 3D renormalized
               file Fe.pbe-spn-kjpaw_psl.1.0.0.UPF: wavefunction(s)  3P 3D renormalized

     Subspace diagonalization in iterative solution of the eigenvalue problem:
     a serial algorithm will be used

     Found symmetry operation: I + (  0.0000 -0.0000  0.5000)
     This is a supercell, fractional translations are disabled
 
     Parallelization info
     --------------------
     sticks:   dense  smooth     PW     G-vecs:    dense   smooth      PW
     Min          95      63     17                 4472     2401     355
     Max          96      64     18                 4477     2406     359
     Sum        3833    2537    717               179001    96109   14299
 


     bravais-lattice index     =            0
     lattice parameter (alat)  =      10.5935  a.u.
     unit-cell volume          =    1188.8329 (a.u.)^3
     number of atoms/cell      =           16
     number of atomic types    =            2
     number of electrons       =       256.00
     number of Kohn-Sham states=          154
     kinetic-energy cutoff     =      71.0000  Ry
     charge density cutoff     =     430.0000  Ry
     convergence threshold     =      1.0E-06
     mixing beta               =       0.1000
     number of iterations used =           10  plain     mixing
     Exchange-correlation      = SLA PW PBX PBC ( 1  4  3  4 0 0)

     celldm(1)=  10.593520  celldm(2)=   0.000000  celldm(3)=   0.000000
     celldm(4)=   0.000000  celldm(5)=   0.000000  celldm(6)=   0.000000

     crystal axes: (cart. coord. in units of alat)
               a(1) = (   1.000002   0.000000   0.000000 )  
               a(2) = (   0.000000   1.000002   0.002667 )  
               a(3) = (   0.000000   0.002667   1.000002 )  

     reciprocal axes: (cart. coord. in units 2 pi/alat)
               b(1) = (  0.999998  0.000000  0.000000 )  
               b(2) = (  0.000000  1.000005 -0.002667 )  
               b(3) = (  0.000000 -0.002667  1.000005 )  


     PseudoPot. # 1 for Fe read from file:
     /rds/homes/b/bxp912/pp/Fe.pbe-spn-kjpaw_psl.1.0.0.UPF
     MD5 check sum: 42f43b795421b414b0dc916aa790dbcb
     Pseudo is Projector augmented-wave + core cor, Zval = 16.0
     Generated using "atomic" code by A. Dal Corso v.6.3
     Shape of augmentation charge: PSQ
     Using radial grid of 1191 points,  6 beta functions with: 
                l(1) =   0
                l(2) =   0
                l(3) =   1
                l(4) =   1
                l(5) =   2
                l(6) =   2
     Q(r) pseudized with 0 coefficients 


     PseudoPot. # 2 for Fe read from file:
     /rds/homes/b/bxp912/pp/Fe.pbe-spn-kjpaw_psl.1.0.0.UPF
     MD5 check sum: 42f43b795421b414b0dc916aa790dbcb
     Pseudo is Projector augmented-wave + core cor, Zval = 16.0
     Generated using "atomic" code by A. Dal Corso v.6.3
     Shape of augmentation charge: PSQ
     Using radial grid of 1191 points,  6 beta functions with: 
                l(1) =   0
                l(2) =   0
                l(3) =   1
                l(4) =   1
                l(5) =   2
                l(6) =   2
     Q(r) pseudized with 0 coefficients 


     atomic species   valence    mass     pseudopotential
        Fe1           16.00    55.84500     Fe( 1.00)
        Fe2           16.00    55.84500     Fe( 1.00)

     Starting magnetic structure 
     atomic species   magnetization
        Fe1          0.100
        Fe2          0.100

      8 Sym. Ops., with inversion, found



   Cartesian axes

     site n.     atom                  positions (alat units)
         1           Fe1 tau(   1) = (   0.0000000   0.0000000   0.0000000  )
         2           Fe2 tau(   2) = (   0.2500010   0.2506677   0.2506677  )
         3           Fe1 tau(   3) = (   0.0000000   0.0013333   0.5000012  )
         4           Fe2 tau(   4) = (   0.2500010   0.2520010   0.7506680  )
         5           Fe1 tau(   5) = (   0.0000000   0.5000012   0.0013333  )
         6           Fe2 tau(   6) = (   0.2500010   0.7506680   0.2520010  )
         7           Fe1 tau(   7) = (   0.0000000   0.5013345   0.5013345  )
         8           Fe2 tau(   8) = (   0.2500010   0.7520014   0.7520014  )
         9           Fe1 tau(   9) = (   0.5000012   0.0000000   0.0000000  )
        10           Fe2 tau(  10) = (   0.7500013   0.2506677   0.2506677  )
        11           Fe1 tau(  11) = (   0.5000012   0.0013333   0.5000012  )
        12           Fe2 tau(  12) = (   0.7500013   0.2520010   0.7506680  )
        13           Fe1 tau(  13) = (   0.5000012   0.5000012   0.0013333  )
        14           Fe2 tau(  14) = (   0.7500013   0.7506680   0.2520010  )
        15           Fe1 tau(  15) = (   0.5000012   0.5013345   0.5013345  )
        16           Fe2 tau(  16) = (   0.7500013   0.7520014   0.7520014  )

     number of k points=   125  Marzari-Vanderbilt smearing, width (Ry)=  0.0400

     Number of k-points >= 100: set verbosity='high' to print them.

     Dense  grid:   179001 G-vectors     FFT dimensions: (  72,  72,  72)

     Smooth grid:    96109 G-vectors     FFT dimensions: (  60,  60,  60)

     Estimated max dynamical RAM per process >     215.38 MB

     Estimated total dynamical RAM >       8.41 GB
     Generating pointlists ...
     new r_m :   0.1783 (alat units)  1.8888 (a.u.) for type    1
     new r_m :   0.1783 (alat units)  1.8888 (a.u.) for type    2

     Check: negative/imaginary core charge=   -0.000006    0.000000

     Initial potential from superposition of free atoms

     starting charge  255.99300, renormalised to  256.00000
     Starting wfcs are  160 randomized atomic wfcs
     Checking if some PAW data can be deallocated... 

     total cpu time spent up to now is       23.6 secs

     Self-consistent Calculation

     iteration #  1     ecut=    71.00 Ry     beta= 0.10
     Davidson diagonalization with overlap
     ethr =  1.00E-02,  avg # of iterations =  3.4

     Threshold (ethr) on eigenvalues was too large:
     Diagonalizing with lowered threshold

     Davidson diagonalization with overlap
     ethr =  2.83E-04,  avg # of iterations =  3.4

     total cpu time spent up to now is      213.5 secs

     total energy              =   -5268.17188188 Ry
     Harris-Foulkes estimate   =   -5268.32073194 Ry
     estimated scf accuracy    <       0.81974250 Ry

     total magnetization       =    28.03 Bohr mag/cell
     absolute magnetization    =    28.39 Bohr mag/cell

     iteration #  2     ecut=    71.00 Ry     beta= 0.10
     Davidson diagonalization with overlap
     ethr =  3.20E-04,  avg # of iterations =  1.0

     total cpu time spent up to now is      269.7 secs

     total energy              =   -5268.05685162 Ry
     Harris-Foulkes estimate   =   -5268.18992647 Ry
     estimated scf accuracy    <       0.48893288 Ry

     total magnetization       =    28.66 Bohr mag/cell
     absolute magnetization    =    28.95 Bohr mag/cell

     iteration #  3     ecut=    71.00 Ry     beta= 0.10
     Davidson diagonalization with overlap
     ethr =  1.91E-04,  avg # of iterations =  2.7

     total cpu time spent up to now is      349.2 secs

     total energy              =   -5268.04132502 Ry
     Harris-Foulkes estimate   =   -5268.10810632 Ry
     estimated scf accuracy    <       0.55218594 Ry

     total magnetization       =    29.46 Bohr mag/cell
     absolute magnetization    =    29.80 Bohr mag/cell

     iteration #  4     ecut=    71.00 Ry     beta= 0.10
     Davidson diagonalization with overlap
     ethr =  1.91E-04,  avg # of iterations =  1.5

     total cpu time spent up to now is      410.2 secs

     total energy              =   -5268.06919015 Ry
     Harris-Foulkes estimate   =   -5268.07179120 Ry
     estimated scf accuracy    <       0.16083636 Ry

     total magnetization       =    30.22 Bohr mag/cell
     absolute magnetization    =    30.58 Bohr mag/cell

     iteration #  5     ecut=    71.00 Ry     beta= 0.10
     Davidson diagonalization with overlap
     ethr =  6.28E-05,  avg # of iterations =  1.5

     total cpu time spent up to now is      471.8 secs

     total energy              =   -5268.08807773 Ry
     Harris-Foulkes estimate   =   -5268.07295571 Ry
     estimated scf accuracy    <       0.11152166 Ry

     total magnetization       =    30.30 Bohr mag/cell
     absolute magnetization    =    30.69 Bohr mag/cell

     iteration #  6     ecut=    71.00 Ry     beta= 0.10
     Davidson diagonalization with overlap
     ethr =  4.36E-05,  avg # of iterations =  3.2

     total cpu time spent up to now is      574.9 secs

     total energy              =   -5268.14607849 Ry
     Harris-Foulkes estimate   =   -5268.12715297 Ry
     estimated scf accuracy    <       0.13879783 Ry

     total magnetization       =    30.92 Bohr mag/cell
     absolute magnetization    =    31.63 Bohr mag/cell

     iteration #  7     ecut=    71.00 Ry     beta= 0.10
     Davidson diagonalization with overlap
     ethr =  4.36E-05,  avg # of iterations =  2.0

     total cpu time spent up to now is      646.0 secs

     total energy              =   -5268.15166469 Ry
     Harris-Foulkes estimate   =   -5268.15367232 Ry
     estimated scf accuracy    <       0.10580717 Ry

     total magnetization       =    31.43 Bohr mag/cell
     absolute magnetization    =    32.33 Bohr mag/cell

     iteration #  8     ecut=    71.00 Ry     beta= 0.10
     Davidson diagonalization with overlap
     ethr =  4.13E-05,  avg # of iterations =  1.0

     negative rho (up, down):  0.000E+00 2.214E-03

     total cpu time spent up to now is      701.3 secs

     total energy              =   -5268.16728820 Ry
     Harris-Foulkes estimate   =   -5268.15269147 Ry
     estimated scf accuracy    <       0.08245668 Ry

     total magnetization       =    31.55 Bohr mag/cell
     absolute magnetization    =    32.50 Bohr mag/cell

     iteration #  9     ecut=    71.00 Ry     beta= 0.10
     Davidson diagonalization with overlap
     ethr =  3.22E-05,  avg # of iterations =  2.7

     negative rho (up, down):  0.000E+00 2.343E-03

     total cpu time spent up to now is      795.5 secs

     total energy              =   -5268.19040078 Ry
     Harris-Foulkes estimate   =   -5268.19244202 Ry
     estimated scf accuracy    <       0.02658778 Ry

     total magnetization       =    32.46 Bohr mag/cell
     absolute magnetization    =    33.94 Bohr mag/cell

     iteration # 10     ecut=    71.00 Ry     beta= 0.10
     Davidson diagonalization with overlap
     ethr =  1.04E-05,  avg # of iterations =  1.2

     negative rho (up, down):  0.000E+00 2.462E-03

     total cpu time spent up to now is      853.5 secs

     total energy              =   -5268.18811211 Ry
     Harris-Foulkes estimate   =   -5268.19083901 Ry
     estimated scf accuracy    <       0.01179241 Ry

     total magnetization       =    32.54 Bohr mag/cell
     absolute magnetization    =    34.06 Bohr mag/cell

     iteration # 11     ecut=    71.00 Ry     beta= 0.10
     Davidson diagonalization with overlap
     ethr =  4.61E-06,  avg # of iterations =  2.4

     negative rho (up, down):  0.000E+00 2.565E-03

     total cpu time spent up to now is      929.2 secs

     total energy              =   -5268.18848143 Ry
     Harris-Foulkes estimate   =   -5268.18872619 Ry
     estimated scf accuracy    <       0.00135421 Ry

     total magnetization       =    32.65 Bohr mag/cell
     absolute magnetization    =    34.27 Bohr mag/cell

     iteration # 12     ecut=    71.00 Ry     beta= 0.10
     Davidson diagonalization with overlap
     ethr =  5.29E-07,  avg # of iterations =  2.5

     negative rho (up, down):  0.000E+00 2.641E-03

     total cpu time spent up to now is     1003.6 secs

     total energy              =   -5268.18854109 Ry
     Harris-Foulkes estimate   =   -5268.18855876 Ry
     estimated scf accuracy    <       0.00062166 Ry

     total magnetization       =    32.70 Bohr mag/cell
     absolute magnetization    =    34.36 Bohr mag/cell

     iteration # 13     ecut=    71.00 Ry     beta= 0.10
     Davidson diagonalization with overlap
     ethr =  2.43E-07,  avg # of iterations =  3.0

     negative rho (up, down):  0.000E+00 2.433E-03

     total cpu time spent up to now is     1090.2 secs

     total energy              =   -5268.18896889 Ry
     Harris-Foulkes estimate   =   -5268.18863818 Ry
     estimated scf accuracy    <       0.00088600 Ry

     total magnetization       =    32.77 Bohr mag/cell
     absolute magnetization    =    34.47 Bohr mag/cell

     iteration # 14     ecut=    71.00 Ry     beta= 0.10
     Davidson diagonalization with overlap
     ethr =  2.43E-07,  avg # of iterations =  3.3

     negative rho (up, down):  0.000E+00 2.461E-03

     total cpu time spent up to now is     1191.5 secs

     total energy              =   -5268.18920698 Ry
     Harris-Foulkes estimate   =   -5268.18920677 Ry
     estimated scf accuracy    <       0.00044737 Ry

     total magnetization       =    32.78 Bohr mag/cell
     absolute magnetization    =    34.50 Bohr mag/cell

     iteration # 15     ecut=    71.00 Ry     beta= 0.10
     Davidson diagonalization with overlap
     ethr =  1.75E-07,  avg # of iterations =  1.8

     negative rho (up, down):  0.000E+00 2.416E-03

     total cpu time spent up to now is     1257.6 secs

     total energy              =   -5268.18928415 Ry
     Harris-Foulkes estimate   =   -5268.18923640 Ry
     estimated scf accuracy    <       0.00010486 Ry

     total magnetization       =    32.81 Bohr mag/cell
     absolute magnetization    =    34.55 Bohr mag/cell

     iteration # 16     ecut=    71.00 Ry     beta= 0.10
     Davidson diagonalization with overlap
     ethr =  4.10E-08,  avg # of iterations =  2.7

     negative rho (up, down):  0.000E+00 2.406E-03

     total cpu time spent up to now is     1346.7 secs

     total energy              =   -5268.18930901 Ry
     Harris-Foulkes estimate   =   -5268.18930795 Ry
     estimated scf accuracy    <       0.00006847 Ry

     total magnetization       =    32.84 Bohr mag/cell
     absolute magnetization    =    34.58 Bohr mag/cell

     iteration # 17     ecut=    71.00 Ry     beta= 0.10
     Davidson diagonalization with overlap
     ethr =  2.67E-08,  avg # of iterations =  2.3

     negative rho (up, down):  0.000E+00 2.429E-03

     total cpu time spent up to now is     1418.5 secs

     total energy              =   -5268.18932194 Ry
     Harris-Foulkes estimate   =   -5268.18931468 Ry
     estimated scf accuracy    <       0.00004117 Ry

     total magnetization       =    32.85 Bohr mag/cell
     absolute magnetization    =    34.60 Bohr mag/cell

     iteration # 18     ecut=    71.00 Ry     beta= 0.10
     Davidson diagonalization with overlap
     ethr =  1.61E-08,  avg # of iterations =  3.0

     negative rho (up, down):  0.000E+00 2.462E-03

     total cpu time spent up to now is     1507.2 secs

     total energy              =   -5268.18932824 Ry
     Harris-Foulkes estimate   =   -5268.18932934 Ry
     estimated scf accuracy    <       0.00001675 Ry

     total magnetization       =    32.87 Bohr mag/cell
     absolute magnetization    =    34.64 Bohr mag/cell

     iteration # 19     ecut=    71.00 Ry     beta= 0.10
     Davidson diagonalization with overlap
     ethr =  6.54E-09,  avg # of iterations =  2.4

     negative rho (up, down):  0.000E+00 2.456E-03

     total cpu time spent up to now is     1586.2 secs

     total energy              =   -5268.18933354 Ry
     Harris-Foulkes estimate   =   -5268.18933031 Ry
     estimated scf accuracy    <       0.00000952 Ry

     total magnetization       =    32.89 Bohr mag/cell
     absolute magnetization    =    34.65 Bohr mag/cell

     iteration # 20     ecut=    71.00 Ry     beta= 0.10
     Davidson diagonalization with overlap
     ethr =  3.72E-09,  avg # of iterations =  1.5

     negative rho (up, down):  0.000E+00 2.460E-03

     total cpu time spent up to now is     1649.3 secs

     total energy              =   -5268.18933718 Ry
     Harris-Foulkes estimate   =   -5268.18933420 Ry
     estimated scf accuracy    <       0.00000755 Ry

     total magnetization       =    32.89 Bohr mag/cell
     absolute magnetization    =    34.66 Bohr mag/cell

     iteration # 21     ecut=    71.00 Ry     beta= 0.10
     Davidson diagonalization with overlap
     ethr =  2.95E-09,  avg # of iterations =  1.9

     negative rho (up, down):  0.000E+00 2.458E-03

     total cpu time spent up to now is     1715.0 secs

     total energy              =   -5268.18933884 Ry
     Harris-Foulkes estimate   =   -5268.18933813 Ry
     estimated scf accuracy    <       0.00000276 Ry

     total magnetization       =    32.90 Bohr mag/cell
     absolute magnetization    =    34.66 Bohr mag/cell

     iteration # 22     ecut=    71.00 Ry     beta= 0.10
     Davidson diagonalization with overlap
     ethr =  1.08E-09,  avg # of iterations =  2.4

     negative rho (up, down):  0.000E+00 2.453E-03

     total cpu time spent up to now is     1787.0 secs

     total energy              =   -5268.18934014 Ry
     Harris-Foulkes estimate   =   -5268.18933914 Ry
     estimated scf accuracy    <       0.00000305 Ry

     total magnetization       =    32.90 Bohr mag/cell
     absolute magnetization    =    34.67 Bohr mag/cell

     iteration # 23     ecut=    71.00 Ry     beta= 0.10
     Davidson diagonalization with overlap
     ethr =  1.08E-09,  avg # of iterations =  2.1

     negative rho (up, down):  0.000E+00 2.463E-03
 
     Magnetic moment per site:
     atom:    1    charge:   14.3557    magn:    2.0989    constr:    0.0000
     atom:    2    charge:   14.3555    magn:    2.1015    constr:    0.0000
     atom:    3    charge:   14.3555    magn:    2.0998    constr:    0.0000
     atom:    4    charge:   14.3556    magn:    2.1014    constr:    0.0000
     atom:    5    charge:   14.3555    magn:    2.0998    constr:    0.0000
     atom:    6    charge:   14.3556    magn:    2.1014    constr:    0.0000
     atom:    7    charge:   14.3558    magn:    2.1003    constr:    0.0000
     atom:    8    charge:   14.3555    magn:    2.1015    constr:    0.0000
     atom:    9    charge:   14.3557    magn:    2.0979    constr:    0.0000
     atom:   10    charge:   14.3555    magn:    2.1015    constr:    0.0000
     atom:   11    charge:   14.3556    magn:    2.0986    constr:    0.0000
     atom:   12    charge:   14.3556    magn:    2.1014    constr:    0.0000
     atom:   13    charge:   14.3556    magn:    2.0986    constr:    0.0000
     atom:   14    charge:   14.3556    magn:    2.1014    constr:    0.0000
     atom:   15    charge:   14.3553    magn:    2.0994    constr:    0.0000
     atom:   16    charge:   14.3555    magn:    2.1015    constr:    0.0000

     total cpu time spent up to now is     1856.9 secs

     End of self-consistent calculation

     Number of k-points >= 100: set verbosity='high' to print the bands.

     the Fermi energy is    18.9743 ev

!    total energy              =   -5268.18934266 Ry
     Harris-Foulkes estimate   =   -5268.18934044 Ry
     estimated scf accuracy    <       0.00000081 Ry

     total all-electron energy =    -40728.933872 Ry

     The total energy is the sum of the following terms:

     one-electron contribution =   -1707.44878235 Ry
     hartree contribution      =    1022.28892768 Ry
     xc contribution           =    -444.26078727 Ry
     ewald contribution        =   -2814.22181764 Ry
     one-center paw contrib.   =   -1324.67102848 Ry
     smearing contrib. (-TS)   =       0.12414539 Ry

     total magnetization       =    32.90 Bohr mag/cell
     absolute magnetization    =    34.67 Bohr mag/cell

     convergence has been achieved in  23 iterations

     negative rho (up, down):  0.000E+00 2.463E-03

     Forces acting on atoms (cartesian axes, Ry/au):

     atom    1 type  1   force =     0.00000000    0.00000000    0.00000000
     atom    2 type  2   force =    -0.00010040    0.00010459    0.00010459
     atom    3 type  1   force =     0.00000000    0.00000000    0.00000000
     atom    4 type  2   force =     0.00006007    0.00012201   -0.00012201
     atom    5 type  1   force =     0.00000000    0.00000000    0.00000000
     atom    6 type  2   force =     0.00006007   -0.00012201    0.00012201
     atom    7 type  1   force =     0.00000000    0.00000000    0.00000000
     atom    8 type  2   force =    -0.00010040   -0.00010459   -0.00010459
     atom    9 type  1   force =     0.00000000    0.00000000    0.00000000
     atom   10 type  2   force =     0.00010040    0.00010459    0.00010459
     atom   11 type  1   force =     0.00000000    0.00000000    0.00000000
     atom   12 type  2   force =    -0.00006007    0.00012201   -0.00012201
     atom   13 type  1   force =     0.00000000    0.00000000    0.00000000
     atom   14 type  2   force =    -0.00006007   -0.00012201    0.00012201
     atom   15 type  1   force =     0.00000000    0.00000000    0.00000000
     atom   16 type  2   force =     0.00010040   -0.00010459   -0.00010459

     Total force =     0.000511     Total SCF correction =     0.003871
     SCF correction compared to forces is large: reduce conv_thr to get better values


     Computing stress (Cartesian axis) and pressure


     negative rho (up, down):  0.000E+00 2.463E-03
          total   stress  (Ry/bohr**3)                   (kbar)     P=   -2.32
  -0.00001585   0.00000000   0.00000000         -2.33      0.00      0.00
   0.00000000  -0.00001577  -0.00004944          0.00     -2.32     -7.27
   0.00000000  -0.00004944  -0.00001577          0.00     -7.27     -2.32


     Writing output data file zaJFFHkkfjwAulQQ.save/
 
     init_run     :     21.40s CPU     22.28s WALL (       1 calls)
     electrons    :   1778.18s CPU   1833.36s WALL (       1 calls)
     forces       :      7.55s CPU      8.23s WALL (       1 calls)
     stress       :     20.66s CPU     20.87s WALL (       1 calls)

     Called by init_run:
     wfcinit      :     20.87s CPU     21.69s WALL (       1 calls)
     potinit      :      0.23s CPU      0.26s WALL (       1 calls)
     hinit0       :      0.20s CPU      0.21s WALL (       1 calls)

     Called by electrons:
     c_bands      :   1608.61s CPU   1654.62s WALL (      24 calls)
     sum_band     :    164.75s CPU    173.34s WALL (      24 calls)
     v_of_rho     :      0.36s CPU      0.36s WALL (      24 calls)
     newd         :      0.78s CPU      1.00s WALL (      24 calls)
     PAW_pot      :      3.63s CPU      3.89s WALL (      24 calls)
     mix_rho      :      0.13s CPU      0.15s WALL (      24 calls)

     Called by c_bands:
     init_us_2    :      8.49s CPU      8.67s WALL (   12750 calls)
     cegterg      :   1565.66s CPU   1611.04s WALL (    6000 calls)

     Called by sum_band:
     sum_band:bec :      2.29s CPU      2.32s WALL (    6000 calls)
     addusdens    :      1.37s CPU      1.54s WALL (      24 calls)

     Called by *egterg:
     h_psi        :    659.97s CPU    687.76s WALL (   19980 calls)
     s_psi        :     34.62s CPU     34.86s WALL (   19980 calls)
     g_psi        :      1.37s CPU      1.39s WALL (   13730 calls)
     cdiaghg      :    714.44s CPU    717.15s WALL (   19480 calls)

     Called by h_psi:
     h_psi:pot    :    656.47s CPU    684.21s WALL (   19980 calls)
     h_psi:calbec :     54.08s CPU     62.67s WALL (   19980 calls)
     vloc_psi     :    566.72s CPU    585.65s WALL (   19980 calls)
     add_vuspsi   :     35.50s CPU     35.77s WALL (   19980 calls)

     General routines
     calbec       :     82.45s CPU     95.77s WALL (   27230 calls)
     fft          :      0.42s CPU      0.44s WALL (     642 calls)
     ffts         :      0.04s CPU      0.23s WALL (      96 calls)
     fftw         :    658.82s CPU    680.67s WALL ( 5007178 calls)
     interpolate  :      0.07s CPU      0.15s WALL (      48 calls)
 
     Parallel routines
     fft_scatt_xy :     43.91s CPU     45.34s WALL ( 5007916 calls)
     fft_scatt_yz :    442.34s CPU    457.44s WALL ( 5007916 calls)
 
     PWSCF        : 30m43.02s CPU    32m27.90s WALL

 
   This run was terminated on:  10:40:41   2Nov2020            

=------------------------------------------------------------------------------=
   JOB DONE.
=------------------------------------------------------------------------------=
