--------------------------------------------------------------------------
WARNING: No preset parameters were found for the device that Open MPI
detected:

  Local host:            bear-pg0206u26a
  Device name:           mlx5_0
  Device vendor ID:      0x02c9
  Device vendor part ID: 4123

Default device parameters will be used, which may result in lower
performance.  You can edit any of the files specified by the
btl_openib_device_param_files MCA parameter to set values for your
device.

NOTE: You can turn off this warning by setting the MCA parameter
      btl_openib_warn_no_device_params_found to 0.
--------------------------------------------------------------------------
--------------------------------------------------------------------------
WARNING: There was an error initializing an OpenFabrics device.

  Local host:   bear-pg0206u26a
  Local device: mlx5_0
--------------------------------------------------------------------------

     Program PWSCF v.6.3 starts on  2Nov2020 at 18:38:40 

     This program is part of the open-source Quantum ESPRESSO suite
     for quantum simulation of materials; please cite
         "P. Giannozzi et al., J. Phys.:Condens. Matter 21 395502 (2009);
         "P. Giannozzi et al., J. Phys.:Condens. Matter 29 465901 (2017);
          URL http://www.quantum-espresso.org", 
     in publications or presentations arising from this work. More details at
     http://www.quantum-espresso.org/quote

     Parallel version (MPI & OpenMP), running on      40 processor cores
     Number of MPI processes:                40
     Threads/MPI process:                     1

     MPI processes distributed on     1 nodes
     R & G space division:  proc/nbgrp/npool/nimage =      40
     Reading input from wd/ec/ec_7_007.in
Warning: card &IONS ignored
Warning: card ION_DYNAMICS = 'BFGS', ignored
Warning: card / ignored
Warning: card &CELL ignored
Warning: card CELL_DYNAMICS = 'BFGS', ignored
Warning: card CELL_FACTOR = 2.0, ignored
Warning: card PRESS = 0.0, ignored
Warning: card / ignored

     Current dimensions of program PWSCF are:
     Max number of different atomic species (ntypx) = 10
     Max number of k-points (npk) =  40000
     Max angular momentum in pseudopotentials (lmaxx) =  3
               file Fe.pbe-spn-kjpaw_psl.1.0.0.UPF: wavefunction(s)  3P 3D renormalized
               file Fe.pbe-spn-kjpaw_psl.1.0.0.UPF: wavefunction(s)  3P 3D renormalized

     Subspace diagonalization in iterative solution of the eigenvalue problem:
     a serial algorithm will be used

     Found symmetry operation: I + (  0.0000  0.0000 -0.5000)
     This is a supercell, fractional translations are disabled
 
     Parallelization info
     --------------------
     sticks:   dense  smooth     PW     G-vecs:    dense   smooth      PW
     Min          95      63     17                 4471     2401     355
     Max          96      64     18                 4476     2406     360
     Sum        3839    2549    713               178967    96149   14307
 


     bravais-lattice index     =            0
     lattice parameter (alat)  =      10.5935  a.u.
     unit-cell volume          =    1188.8329 (a.u.)^3
     number of atoms/cell      =           16
     number of atomic types    =            2
     number of electrons       =       256.00
     number of Kohn-Sham states=          154
     kinetic-energy cutoff     =      71.0000  Ry
     charge density cutoff     =     430.0000  Ry
     convergence threshold     =      1.0E-06
     mixing beta               =       0.1000
     number of iterations used =           10  plain     mixing
     Exchange-correlation      = SLA PW PBX PBC ( 1  4  3  4 0 0)

     celldm(1)=  10.593520  celldm(2)=   0.000000  celldm(3)=   0.000000
     celldm(4)=   0.000000  celldm(5)=   0.000000  celldm(6)=   0.000000

     crystal axes: (cart. coord. in units of alat)
               a(1) = (   1.004005   0.000000   0.000000 )  
               a(2) = (   0.000000   0.996005   0.000000 )  
               a(3) = (   0.000000   0.000000   1.000005 )  

     reciprocal axes: (cart. coord. in units 2 pi/alat)
               b(1) = (  0.996011  0.000000  0.000000 )  
               b(2) = (  0.000000  1.004011  0.000000 )  
               b(3) = (  0.000000  0.000000  0.999995 )  


     PseudoPot. # 1 for Fe read from file:
     /rds/homes/b/bxp912/pp/Fe.pbe-spn-kjpaw_psl.1.0.0.UPF
     MD5 check sum: 42f43b795421b414b0dc916aa790dbcb
     Pseudo is Projector augmented-wave + core cor, Zval = 16.0
     Generated using "atomic" code by A. Dal Corso v.6.3
     Shape of augmentation charge: PSQ
     Using radial grid of 1191 points,  6 beta functions with: 
                l(1) =   0
                l(2) =   0
                l(3) =   1
                l(4) =   1
                l(5) =   2
                l(6) =   2
     Q(r) pseudized with 0 coefficients 


     PseudoPot. # 2 for Fe read from file:
     /rds/homes/b/bxp912/pp/Fe.pbe-spn-kjpaw_psl.1.0.0.UPF
     MD5 check sum: 42f43b795421b414b0dc916aa790dbcb
     Pseudo is Projector augmented-wave + core cor, Zval = 16.0
     Generated using "atomic" code by A. Dal Corso v.6.3
     Shape of augmentation charge: PSQ
     Using radial grid of 1191 points,  6 beta functions with: 
                l(1) =   0
                l(2) =   0
                l(3) =   1
                l(4) =   1
                l(5) =   2
                l(6) =   2
     Q(r) pseudized with 0 coefficients 


     atomic species   valence    mass     pseudopotential
        Fe1           16.00    55.84500     Fe( 1.00)
        Fe2           16.00    55.84500     Fe( 1.00)

     Starting magnetic structure 
     atomic species   magnetization
        Fe1          0.100
        Fe2          0.100

      8 Sym. Ops., with inversion, found



   Cartesian axes

     site n.     atom                  positions (alat units)
         1           Fe1 tau(   1) = (   0.0000000   0.0000000   0.0000000  )
         2           Fe2 tau(   2) = (   0.2510018   0.2490018   0.2500018  )
         3           Fe1 tau(   3) = (   0.0000000   0.0000000   0.5000027  )
         4           Fe2 tau(   4) = (   0.2510018   0.2490018   0.7500036  )
         5           Fe1 tau(   5) = (   0.0000000   0.4980027   0.0000000  )
         6           Fe2 tau(   6) = (   0.2510018   0.7470036   0.2500018  )
         7           Fe1 tau(   7) = (   0.0000000   0.4980027   0.5000027  )
         8           Fe2 tau(   8) = (   0.2510018   0.7470036   0.7500036  )
         9           Fe1 tau(   9) = (   0.5020027   0.0000000   0.0000000  )
        10           Fe2 tau(  10) = (   0.7530036   0.2490018   0.2500018  )
        11           Fe1 tau(  11) = (   0.5020027   0.0000000   0.5000027  )
        12           Fe2 tau(  12) = (   0.7530036   0.2490018   0.7500036  )
        13           Fe1 tau(  13) = (   0.5020027   0.4980027   0.0000000  )
        14           Fe2 tau(  14) = (   0.7530036   0.7470036   0.2500018  )
        15           Fe1 tau(  15) = (   0.5020027   0.4980027   0.5000027  )
        16           Fe2 tau(  16) = (   0.7530036   0.7470036   0.7500036  )

     number of k points=   125  Marzari-Vanderbilt smearing, width (Ry)=  0.0400

     Number of k-points >= 100: set verbosity='high' to print them.

     Dense  grid:   178967 G-vectors     FFT dimensions: (  72,  72,  72)

     Smooth grid:    96149 G-vectors     FFT dimensions: (  60,  60,  60)

     Estimated max dynamical RAM per process >     215.38 MB

     Estimated total dynamical RAM >       8.41 GB
     Generating pointlists ...
     new r_m :   0.1786 (alat units)  1.8922 (a.u.) for type    1
     new r_m :   0.1786 (alat units)  1.8922 (a.u.) for type    2

     Check: negative/imaginary core charge=   -0.000006    0.000000

     Initial potential from superposition of free atoms

     starting charge  255.99300, renormalised to  256.00000
     Starting wfcs are  160 randomized atomic wfcs
     Checking if some PAW data can be deallocated... 

     total cpu time spent up to now is       23.2 secs

     Self-consistent Calculation

     iteration #  1     ecut=    71.00 Ry     beta= 0.10
     Davidson diagonalization with overlap
     ethr =  1.00E-02,  avg # of iterations =  3.3

     Threshold (ethr) on eigenvalues was too large:
     Diagonalizing with lowered threshold

     Davidson diagonalization with overlap
     ethr =  2.83E-04,  avg # of iterations =  3.4

     total cpu time spent up to now is      208.6 secs

     total energy              =   -5268.17610481 Ry
     Harris-Foulkes estimate   =   -5268.32775667 Ry
     estimated scf accuracy    <       0.82026686 Ry

     total magnetization       =    28.04 Bohr mag/cell
     absolute magnetization    =    28.40 Bohr mag/cell

     iteration #  2     ecut=    71.00 Ry     beta= 0.10
     Davidson diagonalization with overlap
     ethr =  3.20E-04,  avg # of iterations =  1.0

     total cpu time spent up to now is      263.5 secs

     total energy              =   -5268.06979675 Ry
     Harris-Foulkes estimate   =   -5268.19488005 Ry
     estimated scf accuracy    <       0.49737423 Ry

     total magnetization       =    28.67 Bohr mag/cell
     absolute magnetization    =    28.95 Bohr mag/cell

     iteration #  3     ecut=    71.00 Ry     beta= 0.10
     Davidson diagonalization with overlap
     ethr =  1.94E-04,  avg # of iterations =  2.5

     total cpu time spent up to now is      338.0 secs

     total energy              =   -5268.03743596 Ry
     Harris-Foulkes estimate   =   -5268.11644163 Ry
     estimated scf accuracy    <       0.56897615 Ry

     total magnetization       =    29.37 Bohr mag/cell
     absolute magnetization    =    29.70 Bohr mag/cell

     iteration #  4     ecut=    71.00 Ry     beta= 0.10
     Davidson diagonalization with overlap
     ethr =  1.94E-04,  avg # of iterations =  2.1

     total cpu time spent up to now is      406.9 secs

     total energy              =   -5268.06932776 Ry
     Harris-Foulkes estimate   =   -5268.07288198 Ry
     estimated scf accuracy    <       0.17485172 Ry

     total magnetization       =    30.20 Bohr mag/cell
     absolute magnetization    =    30.58 Bohr mag/cell

     iteration #  5     ecut=    71.00 Ry     beta= 0.10
     Davidson diagonalization with overlap
     ethr =  6.83E-05,  avg # of iterations =  1.4

     total cpu time spent up to now is      466.7 secs

     total energy              =   -5268.08813650 Ry
     Harris-Foulkes estimate   =   -5268.07346816 Ry
     estimated scf accuracy    <       0.11134832 Ry

     total magnetization       =    30.30 Bohr mag/cell
     absolute magnetization    =    30.69 Bohr mag/cell

     iteration #  6     ecut=    71.00 Ry     beta= 0.10
     Davidson diagonalization with overlap
     ethr =  4.35E-05,  avg # of iterations =  3.3

     total cpu time spent up to now is      570.7 secs

     total energy              =   -5268.14478133 Ry
     Harris-Foulkes estimate   =   -5268.12692153 Ry
     estimated scf accuracy    <       0.13292798 Ry

     total magnetization       =    30.92 Bohr mag/cell
     absolute magnetization    =    31.63 Bohr mag/cell

     iteration #  7     ecut=    71.00 Ry     beta= 0.10
     Davidson diagonalization with overlap
     ethr =  4.35E-05,  avg # of iterations =  2.0

     total cpu time spent up to now is      641.2 secs

     total energy              =   -5268.15270474 Ry
     Harris-Foulkes estimate   =   -5268.15268439 Ry
     estimated scf accuracy    <       0.09974536 Ry

     total magnetization       =    31.45 Bohr mag/cell
     absolute magnetization    =    32.36 Bohr mag/cell

     iteration #  8     ecut=    71.00 Ry     beta= 0.10
     Davidson diagonalization with overlap
     ethr =  3.90E-05,  avg # of iterations =  1.0

     negative rho (up, down):  0.000E+00 1.310E-03

     total cpu time spent up to now is      696.3 secs

     total energy              =   -5268.16953358 Ry
     Harris-Foulkes estimate   =   -5268.15392875 Ry
     estimated scf accuracy    <       0.07929559 Ry

     total magnetization       =    31.58 Bohr mag/cell
     absolute magnetization    =    32.55 Bohr mag/cell

     iteration #  9     ecut=    71.00 Ry     beta= 0.10
     Davidson diagonalization with overlap
     ethr =  3.10E-05,  avg # of iterations =  2.7

     negative rho (up, down):  0.000E+00 2.159E-03

     total cpu time spent up to now is      782.6 secs

     total energy              =   -5268.18763059 Ry
     Harris-Foulkes estimate   =   -5268.18167931 Ry
     estimated scf accuracy    <       0.04150914 Ry

     total magnetization       =    32.20 Bohr mag/cell
     absolute magnetization    =    33.51 Bohr mag/cell

     iteration # 10     ecut=    71.00 Ry     beta= 0.10
     Davidson diagonalization with overlap
     ethr =  1.62E-05,  avg # of iterations =  1.8

     negative rho (up, down):  0.000E+00 2.506E-03

     total cpu time spent up to now is      849.1 secs

     total energy              =   -5268.18753464 Ry
     Harris-Foulkes estimate   =   -5268.19008390 Ry
     estimated scf accuracy    <       0.01647922 Ry

     total magnetization       =    32.48 Bohr mag/cell
     absolute magnetization    =    33.92 Bohr mag/cell

     iteration # 11     ecut=    71.00 Ry     beta= 0.10
     Davidson diagonalization with overlap
     ethr =  6.44E-06,  avg # of iterations =  2.9

     negative rho (up, down):  0.000E+00 2.550E-03

     total cpu time spent up to now is      931.2 secs

     total energy              =   -5268.18851178 Ry
     Harris-Foulkes estimate   =   -5268.18871639 Ry
     estimated scf accuracy    <       0.00164575 Ry

     total magnetization       =    32.65 Bohr mag/cell
     absolute magnetization    =    34.26 Bohr mag/cell

     iteration # 12     ecut=    71.00 Ry     beta= 0.10
     Davidson diagonalization with overlap
     ethr =  6.43E-07,  avg # of iterations =  2.9

     negative rho (up, down):  0.000E+00 2.582E-03

     total cpu time spent up to now is     1012.7 secs

     total energy              =   -5268.18880855 Ry
     Harris-Foulkes estimate   =   -5268.18863533 Ry
     estimated scf accuracy    <       0.00083052 Ry

     total magnetization       =    32.69 Bohr mag/cell
     absolute magnetization    =    34.33 Bohr mag/cell

     iteration # 13     ecut=    71.00 Ry     beta= 0.10
     Davidson diagonalization with overlap
     ethr =  3.24E-07,  avg # of iterations =  1.5

     negative rho (up, down):  0.000E+00 2.579E-03

     total cpu time spent up to now is     1073.5 secs

     total energy              =   -5268.18873293 Ry
     Harris-Foulkes estimate   =   -5268.18886050 Ry
     estimated scf accuracy    <       0.00072606 Ry

     total magnetization       =    32.72 Bohr mag/cell
     absolute magnetization    =    34.39 Bohr mag/cell

     iteration # 14     ecut=    71.00 Ry     beta= 0.10
     Davidson diagonalization with overlap
     ethr =  2.84E-07,  avg # of iterations =  2.3

     negative rho (up, down):  0.000E+00 2.446E-03

     total cpu time spent up to now is     1152.0 secs

     total energy              =   -5268.18903733 Ry
     Harris-Foulkes estimate   =   -5268.18881351 Ry
     estimated scf accuracy    <       0.00076353 Ry

     total magnetization       =    32.76 Bohr mag/cell
     absolute magnetization    =    34.46 Bohr mag/cell

     iteration # 15     ecut=    71.00 Ry     beta= 0.10
     Davidson diagonalization with overlap
     ethr =  2.84E-07,  avg # of iterations =  2.1

     negative rho (up, down):  0.000E+00 2.499E-03

     total cpu time spent up to now is     1224.8 secs

     total energy              =   -5268.18916190 Ry
     Harris-Foulkes estimate   =   -5268.18913310 Ry
     estimated scf accuracy    <       0.00018802 Ry

     total magnetization       =    32.78 Bohr mag/cell
     absolute magnetization    =    34.49 Bohr mag/cell

     iteration # 16     ecut=    71.00 Ry     beta= 0.10
     Davidson diagonalization with overlap
     ethr =  7.34E-08,  avg # of iterations =  2.8

     negative rho (up, down):  0.000E+00 2.475E-03

     total cpu time spent up to now is     1305.9 secs

     total energy              =   -5268.18922587 Ry
     Harris-Foulkes estimate   =   -5268.18918476 Ry
     estimated scf accuracy    <       0.00010517 Ry

     total magnetization       =    32.82 Bohr mag/cell
     absolute magnetization    =    34.56 Bohr mag/cell

     iteration # 17     ecut=    71.00 Ry     beta= 0.10
     Davidson diagonalization with overlap
     ethr =  4.11E-08,  avg # of iterations =  1.6

     negative rho (up, down):  0.000E+00 2.474E-03

     total cpu time spent up to now is     1370.4 secs

     total energy              =   -5268.18927100 Ry
     Harris-Foulkes estimate   =   -5268.18923167 Ry
     estimated scf accuracy    <       0.00007494 Ry

     total magnetization       =    32.83 Bohr mag/cell
     absolute magnetization    =    34.57 Bohr mag/cell

     iteration # 18     ecut=    71.00 Ry     beta= 0.10
     Davidson diagonalization with overlap
     ethr =  2.93E-08,  avg # of iterations =  2.8

     negative rho (up, down):  0.000E+00 2.461E-03

     total cpu time spent up to now is     1455.3 secs

     total energy              =   -5268.18929098 Ry
     Harris-Foulkes estimate   =   -5268.18928186 Ry
     estimated scf accuracy    <       0.00005019 Ry

     total magnetization       =    32.85 Bohr mag/cell
     absolute magnetization    =    34.61 Bohr mag/cell

     iteration # 19     ecut=    71.00 Ry     beta= 0.10
     Davidson diagonalization with overlap
     ethr =  1.96E-08,  avg # of iterations =  2.6

     negative rho (up, down):  0.000E+00 2.441E-03

     total cpu time spent up to now is     1537.1 secs

     total energy              =   -5268.18930539 Ry
     Harris-Foulkes estimate   =   -5268.18929932 Ry
     estimated scf accuracy    <       0.00002057 Ry

     total magnetization       =    32.87 Bohr mag/cell
     absolute magnetization    =    34.64 Bohr mag/cell

     iteration # 20     ecut=    71.00 Ry     beta= 0.10
     Davidson diagonalization with overlap
     ethr =  8.03E-09,  avg # of iterations =  2.0

     negative rho (up, down):  0.000E+00 2.423E-03

     total cpu time spent up to now is     1606.5 secs

     total energy              =   -5268.18931079 Ry
     Harris-Foulkes estimate   =   -5268.18930689 Ry
     estimated scf accuracy    <       0.00001400 Ry

     total magnetization       =    32.87 Bohr mag/cell
     absolute magnetization    =    34.64 Bohr mag/cell

     iteration # 21     ecut=    71.00 Ry     beta= 0.10
     Davidson diagonalization with overlap
     ethr =  5.47E-09,  avg # of iterations =  2.3

     negative rho (up, down):  0.000E+00 2.421E-03

     total cpu time spent up to now is     1683.2 secs

     total energy              =   -5268.18931439 Ry
     Harris-Foulkes estimate   =   -5268.18931300 Ry
     estimated scf accuracy    <       0.00000798 Ry

     total magnetization       =    32.88 Bohr mag/cell
     absolute magnetization    =    34.64 Bohr mag/cell

     iteration # 22     ecut=    71.00 Ry     beta= 0.10
     Davidson diagonalization with overlap
     ethr =  3.12E-09,  avg # of iterations =  2.3

     negative rho (up, down):  0.000E+00 2.436E-03

     total cpu time spent up to now is     1757.6 secs

     total energy              =   -5268.18931541 Ry
     Harris-Foulkes estimate   =   -5268.18931547 Ry
     estimated scf accuracy    <       0.00000493 Ry

     total magnetization       =    32.89 Bohr mag/cell
     absolute magnetization    =    34.65 Bohr mag/cell

     iteration # 23     ecut=    71.00 Ry     beta= 0.10
     Davidson diagonalization with overlap
     ethr =  1.92E-09,  avg # of iterations =  2.6

     negative rho (up, down):  0.000E+00 2.451E-03

     total cpu time spent up to now is     1836.7 secs

     total energy              =   -5268.18931622 Ry
     Harris-Foulkes estimate   =   -5268.18931608 Ry
     estimated scf accuracy    <       0.00000320 Ry

     total magnetization       =    32.90 Bohr mag/cell
     absolute magnetization    =    34.66 Bohr mag/cell

     iteration # 24     ecut=    71.00 Ry     beta= 0.10
     Davidson diagonalization with overlap
     ethr =  1.25E-09,  avg # of iterations =  2.4

     negative rho (up, down):  0.000E+00 2.463E-03
 
     Magnetic moment per site:
     atom:    1    charge:   14.3665    magn:    2.0995    constr:    0.0000
     atom:    2    charge:   14.3665    magn:    2.1017    constr:    0.0000
     atom:    3    charge:   14.3666    magn:    2.1001    constr:    0.0000
     atom:    4    charge:   14.3665    magn:    2.1017    constr:    0.0000
     atom:    5    charge:   14.3664    magn:    2.1001    constr:    0.0000
     atom:    6    charge:   14.3665    magn:    2.1017    constr:    0.0000
     atom:    7    charge:   14.3666    magn:    2.1004    constr:    0.0000
     atom:    8    charge:   14.3665    magn:    2.1017    constr:    0.0000
     atom:    9    charge:   14.3666    magn:    2.0985    constr:    0.0000
     atom:   10    charge:   14.3665    magn:    2.1017    constr:    0.0000
     atom:   11    charge:   14.3666    magn:    2.0988    constr:    0.0000
     atom:   12    charge:   14.3665    magn:    2.1017    constr:    0.0000
     atom:   13    charge:   14.3663    magn:    2.0989    constr:    0.0000
     atom:   14    charge:   14.3665    magn:    2.1017    constr:    0.0000
     atom:   15    charge:   14.3665    magn:    2.0994    constr:    0.0000
     atom:   16    charge:   14.3665    magn:    2.1017    constr:    0.0000

     total cpu time spent up to now is     1914.3 secs

     End of self-consistent calculation

     Number of k-points >= 100: set verbosity='high' to print the bands.

     the Fermi energy is    18.9745 ev

!    total energy              =   -5268.18931839 Ry
     Harris-Foulkes estimate   =   -5268.18931667 Ry
     estimated scf accuracy    <       0.00000061 Ry

     total all-electron energy =    -40728.933847 Ry

     The total energy is the sum of the following terms:

     one-electron contribution =   -1707.43681035 Ry
     hartree contribution      =    1022.28243022 Ry
     xc contribution           =    -444.26031482 Ry
     ewald contribution        =   -2814.22752014 Ry
     one-center paw contrib.   =   -1324.67109669 Ry
     smearing contrib. (-TS)   =       0.12399340 Ry

     total magnetization       =    32.90 Bohr mag/cell
     absolute magnetization    =    34.66 Bohr mag/cell

     convergence has been achieved in  24 iterations

     negative rho (up, down):  0.000E+00 2.463E-03

     Forces acting on atoms (cartesian axes, Ry/au):

     atom    1 type  1   force =     0.00000000    0.00000000    0.00000000
     atom    2 type  2   force =    -0.00000758    0.00018362    0.00002149
     atom    3 type  1   force =     0.00000000    0.00000000    0.00000000
     atom    4 type  2   force =    -0.00000758    0.00018362   -0.00002149
     atom    5 type  1   force =     0.00000000    0.00000000    0.00000000
     atom    6 type  2   force =    -0.00000758   -0.00018362    0.00002149
     atom    7 type  1   force =     0.00000000    0.00000000    0.00000000
     atom    8 type  2   force =    -0.00000758   -0.00018362   -0.00002149
     atom    9 type  1   force =     0.00000000    0.00000000    0.00000000
     atom   10 type  2   force =     0.00000758    0.00018362    0.00002149
     atom   11 type  1   force =     0.00000000    0.00000000    0.00000000
     atom   12 type  2   force =     0.00000758    0.00018362   -0.00002149
     atom   13 type  1   force =     0.00000000    0.00000000    0.00000000
     atom   14 type  2   force =     0.00000758   -0.00018362    0.00002149
     atom   15 type  1   force =     0.00000000    0.00000000    0.00000000
     atom   16 type  2   force =     0.00000758   -0.00018362   -0.00002149

     Total force =     0.000523     Total SCF correction =     0.004201
     SCF correction compared to forces is large: reduce conv_thr to get better values


     Computing stress (Cartesian axis) and pressure


     negative rho (up, down):  0.000E+00 2.463E-03
          total   stress  (Ry/bohr**3)                   (kbar)     P=   -2.30
  -0.00005083   0.00000000   0.00000000         -7.48      0.00      0.00
   0.00000000   0.00001992   0.00000000          0.00      2.93      0.00
   0.00000000   0.00000000  -0.00001598          0.00      0.00     -2.35


     Writing output data file FLXWdLncqgfNgmAl.save/
 
     init_run     :     20.89s CPU     21.87s WALL (       1 calls)
     electrons    :   1834.87s CPU   1891.17s WALL (       1 calls)
     forces       :      7.63s CPU      8.34s WALL (       1 calls)
     stress       :     20.50s CPU     20.74s WALL (       1 calls)

     Called by init_run:
     wfcinit      :     20.47s CPU     21.32s WALL (       1 calls)
     potinit      :      0.22s CPU      0.25s WALL (       1 calls)
     hinit0       :      0.11s CPU      0.12s WALL (       1 calls)

     Called by electrons:
     c_bands      :   1658.11s CPU   1704.98s WALL (      25 calls)
     sum_band     :    171.73s CPU    180.56s WALL (      25 calls)
     v_of_rho     :      0.40s CPU      0.41s WALL (      25 calls)
     newd         :      0.77s CPU      1.00s WALL (      25 calls)
     PAW_pot      :      3.80s CPU      4.05s WALL (      25 calls)
     mix_rho      :      0.15s CPU      0.16s WALL (      25 calls)

     Called by c_bands:
     init_us_2    :      8.77s CPU      8.90s WALL (   13250 calls)
     cegterg      :   1613.71s CPU   1659.99s WALL (    6250 calls)

     Called by sum_band:
     sum_band:bec :      2.36s CPU      2.39s WALL (    6250 calls)
     addusdens    :      1.19s CPU      1.45s WALL (      25 calls)

     Called by *egterg:
     h_psi        :    680.15s CPU    708.51s WALL (   20896 calls)
     s_psi        :     36.02s CPU     36.28s WALL (   20896 calls)
     g_psi        :      1.47s CPU      1.49s WALL (   14396 calls)
     cdiaghg      :    736.77s CPU    739.47s WALL (   20396 calls)

     Called by h_psi:
     h_psi:pot    :    676.75s CPU    705.08s WALL (   20896 calls)
     h_psi:calbec :     56.11s CPU     64.80s WALL (   20896 calls)
     vloc_psi     :    583.64s CPU    603.04s WALL (   20896 calls)
     add_vuspsi   :     36.83s CPU     37.11s WALL (   20896 calls)

     General routines
     calbec       :     84.84s CPU     98.33s WALL (   28396 calls)
     fft          :      0.40s CPU      0.43s WALL (     667 calls)
     ffts         :      0.07s CPU      0.26s WALL (     100 calls)
     fftw         :    680.23s CPU    702.71s WALL ( 5197106 calls)
     interpolate  :      0.08s CPU      0.17s WALL (      50 calls)
 
     Parallel routines
     fft_scatt_xy :     44.86s CPU     46.33s WALL ( 5197873 calls)
     fft_scatt_yz :    458.00s CPU    473.55s WALL ( 5197873 calls)
 
     PWSCF        : 31m38.61s CPU    33m25.84s WALL

 
   This run was terminated on:  19:12: 6   2Nov2020            

=------------------------------------------------------------------------------=
   JOB DONE.
=------------------------------------------------------------------------------=
