--------------------------------------------------------------------------
WARNING: No preset parameters were found for the device that Open MPI
detected:

  Local host:            bear-pg0206u39a
  Device name:           mlx5_0
  Device vendor ID:      0x02c9
  Device vendor part ID: 4123

Default device parameters will be used, which may result in lower
performance.  You can edit any of the files specified by the
btl_openib_device_param_files MCA parameter to set values for your
device.

NOTE: You can turn off this warning by setting the MCA parameter
      btl_openib_warn_no_device_params_found to 0.
--------------------------------------------------------------------------
--------------------------------------------------------------------------
WARNING: There was an error initializing an OpenFabrics device.

  Local host:   bear-pg0206u39a
  Local device: mlx5_0
--------------------------------------------------------------------------

     Program PWSCF v.6.3 starts on 10Sep2020 at  7: 1: 5 

     This program is part of the open-source Quantum ESPRESSO suite
     for quantum simulation of materials; please cite
         "P. Giannozzi et al., J. Phys.:Condens. Matter 21 395502 (2009);
         "P. Giannozzi et al., J. Phys.:Condens. Matter 29 465901 (2017);
          URL http://www.quantum-espresso.org", 
     in publications or presentations arising from this work. More details at
     http://www.quantum-espresso.org/quote

     Parallel version (MPI & OpenMP), running on      40 processor cores
     Number of MPI processes:                40
     Threads/MPI process:                     1

     MPI processes distributed on     1 nodes
     R & G space division:  proc/nbgrp/npool/nimage =      40
     Reading input from wd/ec/ec_8_005.in
Warning: card &IONS ignored
Warning: card ION_DYNAMICS = 'BFGS', ignored
Warning: card / ignored
Warning: card &CELL ignored
Warning: card CELL_DYNAMICS = 'BFGS', ignored
Warning: card CELL_FACTOR = 2.0, ignored
Warning: card PRESS = 0.0, ignored
Warning: card / ignored

     Current dimensions of program PWSCF are:
     Max number of different atomic species (ntypx) = 10
     Max number of k-points (npk) =  40000
     Max angular momentum in pseudopotentials (lmaxx) =  3
               file Fe.pbe-spn-kjpaw_psl.1.0.0.UPF: wavefunction(s)  3P 3D renormalized
               file Fe.pbe-spn-kjpaw_psl.1.0.0.UPF: wavefunction(s)  3P 3D renormalized

     Subspace diagonalization in iterative solution of the eigenvalue problem:
     a serial algorithm will be used

     Found symmetry operation: I + (  0.0000  0.0000 -0.5000)
     This is a supercell, fractional translations are disabled
 
     Parallelization info
     --------------------
     sticks:   dense  smooth     PW     G-vecs:    dense   smooth      PW
     Min          96      63     17                 4474     2401     355
     Max          97      64     18                 4477     2406     360
     Sum        3859    2553    717               178983    96149   14307
 


     bravais-lattice index     =            0
     lattice parameter (alat)  =      10.5935  a.u.
     unit-cell volume          =    1188.8329 (a.u.)^3
     number of atoms/cell      =           16
     number of atomic types    =            2
     number of electrons       =       256.00
     number of Kohn-Sham states=          154
     kinetic-energy cutoff     =      71.0000  Ry
     charge density cutoff     =     430.0000  Ry
     convergence threshold     =      1.0E-06
     mixing beta               =       0.1000
     number of iterations used =           10  plain     mixing
     Exchange-correlation      = SLA PW PBX PBC ( 1  4  3  4 0 0)

     celldm(1)=  10.593520  celldm(2)=   0.000000  celldm(3)=   0.000000
     celldm(4)=   0.000000  celldm(5)=   0.000000  celldm(6)=   0.000000

     crystal axes: (cart. coord. in units of alat)
               a(1) = (   1.003337   0.000000   0.000000 )  
               a(2) = (   0.000000   1.000004   0.000000 )  
               a(3) = (   0.000000   0.000000   0.996670 )  

     reciprocal axes: (cart. coord. in units 2 pi/alat)
               b(1) = (  0.996674  0.000000  0.000000 )  
               b(2) = (  0.000000  0.999996  0.000000 )  
               b(3) = (  0.000000  0.000000  1.003341 )  


     PseudoPot. # 1 for Fe read from file:
     /rds/homes/b/bxp912/pp/Fe.pbe-spn-kjpaw_psl.1.0.0.UPF
     MD5 check sum: 42f43b795421b414b0dc916aa790dbcb
     Pseudo is Projector augmented-wave + core cor, Zval = 16.0
     Generated using "atomic" code by A. Dal Corso v.6.3
     Shape of augmentation charge: PSQ
     Using radial grid of 1191 points,  6 beta functions with: 
                l(1) =   0
                l(2) =   0
                l(3) =   1
                l(4) =   1
                l(5) =   2
                l(6) =   2
     Q(r) pseudized with 0 coefficients 


     PseudoPot. # 2 for Fe read from file:
     /rds/homes/b/bxp912/pp/Fe.pbe-spn-kjpaw_psl.1.0.0.UPF
     MD5 check sum: 42f43b795421b414b0dc916aa790dbcb
     Pseudo is Projector augmented-wave + core cor, Zval = 16.0
     Generated using "atomic" code by A. Dal Corso v.6.3
     Shape of augmentation charge: PSQ
     Using radial grid of 1191 points,  6 beta functions with: 
                l(1) =   0
                l(2) =   0
                l(3) =   1
                l(4) =   1
                l(5) =   2
                l(6) =   2
     Q(r) pseudized with 0 coefficients 


     atomic species   valence    mass     pseudopotential
        Fe1           16.00    55.84500     Fe( 1.00)
        Fe2           16.00    55.84500     Fe( 1.00)

     Starting magnetic structure 
     atomic species   magnetization
        Fe1          0.100
        Fe2          0.100

      8 Sym. Ops., with inversion, found



   Cartesian axes

     site n.     atom                  positions (alat units)
         1           Fe1 tau(   1) = (   0.0000000   0.0000000   0.0000000  )
         2           Fe2 tau(   2) = (   0.2508347   0.2500014   0.2491680  )
         3           Fe1 tau(   3) = (   0.0000000   0.0000000   0.4983352  )
         4           Fe2 tau(   4) = (   0.2508347   0.2500014   0.7475023  )
         5           Fe1 tau(   5) = (   0.0000000   0.5000019   0.0000000  )
         6           Fe2 tau(   6) = (   0.2508347   0.7500023   0.2491680  )
         7           Fe1 tau(   7) = (   0.0000000   0.5000019   0.4983352  )
         8           Fe2 tau(   8) = (   0.2508347   0.7500023   0.7475023  )
         9           Fe1 tau(   9) = (   0.5016685   0.0000000   0.0000000  )
        10           Fe2 tau(  10) = (   0.7525024   0.2500014   0.2491680  )
        11           Fe1 tau(  11) = (   0.5016685   0.0000000   0.4983352  )
        12           Fe2 tau(  12) = (   0.7525024   0.2500014   0.7475023  )
        13           Fe1 tau(  13) = (   0.5016685   0.5000019   0.0000000  )
        14           Fe2 tau(  14) = (   0.7525024   0.7500023   0.2491680  )
        15           Fe1 tau(  15) = (   0.5016685   0.5000019   0.4983352  )
        16           Fe2 tau(  16) = (   0.7525024   0.7500023   0.7475023  )

     number of k points=   125  Marzari-Vanderbilt smearing, width (Ry)=  0.0400

     Number of k-points >= 100: set verbosity='high' to print them.

     Dense  grid:   178983 G-vectors     FFT dimensions: (  72,  72,  72)

     Smooth grid:    96149 G-vectors     FFT dimensions: (  60,  60,  60)

     Estimated max dynamical RAM per process >     215.38 MB

     Estimated total dynamical RAM >       8.41 GB
     Generating pointlists ...
     new r_m :   0.1786 (alat units)  1.8922 (a.u.) for type    1
     new r_m :   0.1786 (alat units)  1.8922 (a.u.) for type    2

     Check: negative/imaginary core charge=   -0.000006    0.000000

     Initial potential from superposition of free atoms

     starting charge  255.99300, renormalised to  256.00000
     Starting wfcs are  160 randomized atomic wfcs
     Checking if some PAW data can be deallocated... 

     total cpu time spent up to now is       23.3 secs

     Self-consistent Calculation

     iteration #  1     ecut=    71.00 Ry     beta= 0.10
     Davidson diagonalization with overlap
     ethr =  1.00E-02,  avg # of iterations =  3.3

     Threshold (ethr) on eigenvalues was too large:
     Diagonalizing with lowered threshold

     Davidson diagonalization with overlap
     ethr =  2.83E-04,  avg # of iterations =  3.4

     total cpu time spent up to now is      213.3 secs

     total energy              =   -5268.17611254 Ry
     Harris-Foulkes estimate   =   -5268.32778033 Ry
     estimated scf accuracy    <       0.82032025 Ry

     total magnetization       =    28.04 Bohr mag/cell
     absolute magnetization    =    28.41 Bohr mag/cell

     iteration #  2     ecut=    71.00 Ry     beta= 0.10
     Davidson diagonalization with overlap
     ethr =  3.20E-04,  avg # of iterations =  1.0

     total cpu time spent up to now is      269.3 secs

     total energy              =   -5268.07006381 Ry
     Harris-Foulkes estimate   =   -5268.19490853 Ry
     estimated scf accuracy    <       0.49775356 Ry

     total magnetization       =    28.67 Bohr mag/cell
     absolute magnetization    =    28.95 Bohr mag/cell

     iteration #  3     ecut=    71.00 Ry     beta= 0.10
     Davidson diagonalization with overlap
     ethr =  1.94E-04,  avg # of iterations =  2.5

     total cpu time spent up to now is      344.4 secs

     total energy              =   -5268.03722613 Ry
     Harris-Foulkes estimate   =   -5268.11677064 Ry
     estimated scf accuracy    <       0.57548024 Ry

     total magnetization       =    29.37 Bohr mag/cell
     absolute magnetization    =    29.70 Bohr mag/cell

     iteration #  4     ecut=    71.00 Ry     beta= 0.10
     Davidson diagonalization with overlap
     ethr =  1.94E-04,  avg # of iterations =  2.1

     total cpu time spent up to now is      413.7 secs

     total energy              =   -5268.06925526 Ry
     Harris-Foulkes estimate   =   -5268.07308893 Ry
     estimated scf accuracy    <       0.17935173 Ry

     total magnetization       =    30.20 Bohr mag/cell
     absolute magnetization    =    30.58 Bohr mag/cell

     iteration #  5     ecut=    71.00 Ry     beta= 0.10
     Davidson diagonalization with overlap
     ethr =  7.01E-05,  avg # of iterations =  1.4

     total cpu time spent up to now is      473.0 secs

     total energy              =   -5268.08807424 Ry
     Harris-Foulkes estimate   =   -5268.07349031 Ry
     estimated scf accuracy    <       0.11150129 Ry

     total magnetization       =    30.30 Bohr mag/cell
     absolute magnetization    =    30.69 Bohr mag/cell

     iteration #  6     ecut=    71.00 Ry     beta= 0.10
     Davidson diagonalization with overlap
     ethr =  4.36E-05,  avg # of iterations =  3.2

     total cpu time spent up to now is      577.0 secs

     total energy              =   -5268.14448981 Ry
     Harris-Foulkes estimate   =   -5268.12664436 Ry
     estimated scf accuracy    <       0.13297667 Ry

     total magnetization       =    30.91 Bohr mag/cell
     absolute magnetization    =    31.62 Bohr mag/cell

     iteration #  7     ecut=    71.00 Ry     beta= 0.10
     Davidson diagonalization with overlap
     ethr =  4.36E-05,  avg # of iterations =  2.0

     total cpu time spent up to now is      648.2 secs

     total energy              =   -5268.15311127 Ry
     Harris-Foulkes estimate   =   -5268.15250198 Ry
     estimated scf accuracy    <       0.09944087 Ry

     total magnetization       =    31.45 Bohr mag/cell
     absolute magnetization    =    32.36 Bohr mag/cell

     iteration #  8     ecut=    71.00 Ry     beta= 0.10
     Davidson diagonalization with overlap
     ethr =  3.88E-05,  avg # of iterations =  1.0

     negative rho (up, down):  0.000E+00 1.727E-03

     total cpu time spent up to now is      703.5 secs

     total energy              =   -5268.17014455 Ry
     Harris-Foulkes estimate   =   -5268.15444242 Ry
     estimated scf accuracy    <       0.07753376 Ry

     total magnetization       =    31.59 Bohr mag/cell
     absolute magnetization    =    32.57 Bohr mag/cell

     iteration #  9     ecut=    71.00 Ry     beta= 0.10
     Davidson diagonalization with overlap
     ethr =  3.03E-05,  avg # of iterations =  2.7

     negative rho (up, down):  0.000E+00 2.146E-03

     total cpu time spent up to now is      795.1 secs

     total energy              =   -5268.18921194 Ry
     Harris-Foulkes estimate   =   -5268.18677150 Ry
     estimated scf accuracy    <       0.03271838 Ry

     total magnetization       =    32.33 Bohr mag/cell
     absolute magnetization    =    33.72 Bohr mag/cell

     iteration # 10     ecut=    71.00 Ry     beta= 0.10
     Davidson diagonalization with overlap
     ethr =  1.28E-05,  avg # of iterations =  1.0

     negative rho (up, down):  0.000E+00 2.509E-03

     total cpu time spent up to now is      850.7 secs

     total energy              =   -5268.18775678 Ry
     Harris-Foulkes estimate   =   -5268.19004945 Ry
     estimated scf accuracy    <       0.01654327 Ry

     total magnetization       =    32.48 Bohr mag/cell
     absolute magnetization    =    33.93 Bohr mag/cell

     iteration # 11     ecut=    71.00 Ry     beta= 0.10
     Davidson diagonalization with overlap
     ethr =  6.46E-06,  avg # of iterations =  2.5

     negative rho (up, down):  0.000E+00 2.557E-03

     total cpu time spent up to now is      928.6 secs

     total energy              =   -5268.18858922 Ry
     Harris-Foulkes estimate   =   -5268.18880863 Ry
     estimated scf accuracy    <       0.00169602 Ry

     total magnetization       =    32.65 Bohr mag/cell
     absolute magnetization    =    34.26 Bohr mag/cell

     iteration # 12     ecut=    71.00 Ry     beta= 0.10
     Davidson diagonalization with overlap
     ethr =  6.63E-07,  avg # of iterations =  2.9

     negative rho (up, down):  0.000E+00 2.581E-03

     total cpu time spent up to now is     1011.8 secs

     total energy              =   -5268.18890413 Ry
     Harris-Foulkes estimate   =   -5268.18873652 Ry
     estimated scf accuracy    <       0.00080190 Ry

     total magnetization       =    32.70 Bohr mag/cell
     absolute magnetization    =    34.34 Bohr mag/cell

     iteration # 13     ecut=    71.00 Ry     beta= 0.10
     Davidson diagonalization with overlap
     ethr =  3.13E-07,  avg # of iterations =  2.0

     negative rho (up, down):  0.000E+00 2.554E-03

     total cpu time spent up to now is     1079.7 secs

     total energy              =   -5268.18884975 Ry
     Harris-Foulkes estimate   =   -5268.18897785 Ry
     estimated scf accuracy    <       0.00109756 Ry

     total magnetization       =    32.74 Bohr mag/cell
     absolute magnetization    =    34.42 Bohr mag/cell

     iteration # 14     ecut=    71.00 Ry     beta= 0.10
     Davidson diagonalization with overlap
     ethr =  3.13E-07,  avg # of iterations =  2.6

     negative rho (up, down):  0.000E+00 2.472E-03

     total cpu time spent up to now is     1161.3 secs

     total energy              =   -5268.18912063 Ry
     Harris-Foulkes estimate   =   -5268.18896527 Ry
     estimated scf accuracy    <       0.00074138 Ry

     total magnetization       =    32.77 Bohr mag/cell
     absolute magnetization    =    34.49 Bohr mag/cell

     iteration # 15     ecut=    71.00 Ry     beta= 0.10
     Davidson diagonalization with overlap
     ethr =  2.90E-07,  avg # of iterations =  1.6

     negative rho (up, down):  0.000E+00 2.483E-03

     total cpu time spent up to now is     1224.7 secs

     total energy              =   -5268.18921163 Ry
     Harris-Foulkes estimate   =   -5268.18917208 Ry
     estimated scf accuracy    <       0.00019738 Ry

     total magnetization       =    32.78 Bohr mag/cell
     absolute magnetization    =    34.50 Bohr mag/cell

     iteration # 16     ecut=    71.00 Ry     beta= 0.10
     Davidson diagonalization with overlap
     ethr =  7.71E-08,  avg # of iterations =  2.4

     negative rho (up, down):  0.000E+00 2.458E-03

     total cpu time spent up to now is     1304.4 secs

     total energy              =   -5268.18927735 Ry
     Harris-Foulkes estimate   =   -5268.18923545 Ry
     estimated scf accuracy    <       0.00010344 Ry

     total magnetization       =    32.82 Bohr mag/cell
     absolute magnetization    =    34.56 Bohr mag/cell

     iteration # 17     ecut=    71.00 Ry     beta= 0.10
     Davidson diagonalization with overlap
     ethr =  4.04E-08,  avg # of iterations =  2.1

     negative rho (up, down):  0.000E+00 2.405E-03

     total cpu time spent up to now is     1376.7 secs

     total energy              =   -5268.18931335 Ry
     Harris-Foulkes estimate   =   -5268.18928592 Ry
     estimated scf accuracy    <       0.00006947 Ry

     total magnetization       =    32.83 Bohr mag/cell
     absolute magnetization    =    34.58 Bohr mag/cell

     iteration # 18     ecut=    71.00 Ry     beta= 0.10
     Davidson diagonalization with overlap
     ethr =  2.71E-08,  avg # of iterations =  2.7

     negative rho (up, down):  0.000E+00 2.414E-03

     total cpu time spent up to now is     1465.0 secs

     total energy              =   -5268.18934130 Ry
     Harris-Foulkes estimate   =   -5268.18933353 Ry
     estimated scf accuracy    <       0.00003791 Ry

     total magnetization       =    32.85 Bohr mag/cell
     absolute magnetization    =    34.60 Bohr mag/cell

     iteration # 19     ecut=    71.00 Ry     beta= 0.10
     Davidson diagonalization with overlap
     ethr =  1.48E-08,  avg # of iterations =  2.0

     negative rho (up, down):  0.000E+00 2.417E-03

     total cpu time spent up to now is     1533.4 secs

     total energy              =   -5268.18934476 Ry
     Harris-Foulkes estimate   =   -5268.18934422 Ry
     estimated scf accuracy    <       0.00002286 Ry

     total magnetization       =    32.87 Bohr mag/cell
     absolute magnetization    =    34.62 Bohr mag/cell

     iteration # 20     ecut=    71.00 Ry     beta= 0.10
     Davidson diagonalization with overlap
     ethr =  8.93E-09,  avg # of iterations =  1.0

     negative rho (up, down):  0.000E+00 2.461E-03

     total cpu time spent up to now is     1589.1 secs

     total energy              =   -5268.18934457 Ry
     Harris-Foulkes estimate   =   -5268.18934532 Ry
     estimated scf accuracy    <       0.00001767 Ry

     total magnetization       =    32.87 Bohr mag/cell
     absolute magnetization    =    34.63 Bohr mag/cell

     iteration # 21     ecut=    71.00 Ry     beta= 0.10
     Davidson diagonalization with overlap
     ethr =  6.90E-09,  avg # of iterations =  3.0

     negative rho (up, down):  0.000E+00 2.466E-03

     total cpu time spent up to now is     1680.1 secs

     total energy              =   -5268.18934991 Ry
     Harris-Foulkes estimate   =   -5268.18934960 Ry
     estimated scf accuracy    <       0.00000547 Ry

     total magnetization       =    32.89 Bohr mag/cell
     absolute magnetization    =    34.66 Bohr mag/cell

     iteration # 22     ecut=    71.00 Ry     beta= 0.10
     Davidson diagonalization with overlap
     ethr =  2.14E-09,  avg # of iterations =  1.0

     negative rho (up, down):  0.000E+00 2.463E-03

     total cpu time spent up to now is     1735.9 secs

     total energy              =   -5268.18935227 Ry
     Harris-Foulkes estimate   =   -5268.18935023 Ry
     estimated scf accuracy    <       0.00000278 Ry

     total magnetization       =    32.90 Bohr mag/cell
     absolute magnetization    =    34.66 Bohr mag/cell

     iteration # 23     ecut=    71.00 Ry     beta= 0.10
     Davidson diagonalization with overlap
     ethr =  1.09E-09,  avg # of iterations =  2.3

     negative rho (up, down):  0.000E+00 2.454E-03

     total cpu time spent up to now is     1807.1 secs

     total energy              =   -5268.18935401 Ry
     Harris-Foulkes estimate   =   -5268.18935248 Ry
     estimated scf accuracy    <       0.00000188 Ry

     total magnetization       =    32.90 Bohr mag/cell
     absolute magnetization    =    34.67 Bohr mag/cell

     iteration # 24     ecut=    71.00 Ry     beta= 0.10
     Davidson diagonalization with overlap
     ethr =  7.36E-10,  avg # of iterations =  3.0

     negative rho (up, down):  0.000E+00 2.464E-03
 
     Magnetic moment per site:
     atom:    1    charge:   14.3664    magn:    2.0996    constr:    0.0000
     atom:    2    charge:   14.3664    magn:    2.1017    constr:    0.0000
     atom:    3    charge:   14.3665    magn:    2.1002    constr:    0.0000
     atom:    4    charge:   14.3664    magn:    2.1017    constr:    0.0000
     atom:    5    charge:   14.3663    magn:    2.1002    constr:    0.0000
     atom:    6    charge:   14.3664    magn:    2.1017    constr:    0.0000
     atom:    7    charge:   14.3664    magn:    2.1004    constr:    0.0000
     atom:    8    charge:   14.3664    magn:    2.1017    constr:    0.0000
     atom:    9    charge:   14.3665    magn:    2.0984    constr:    0.0000
     atom:   10    charge:   14.3664    magn:    2.1017    constr:    0.0000
     atom:   11    charge:   14.3667    magn:    2.0987    constr:    0.0000
     atom:   12    charge:   14.3664    magn:    2.1017    constr:    0.0000
     atom:   13    charge:   14.3669    magn:    2.0988    constr:    0.0000
     atom:   14    charge:   14.3664    magn:    2.1017    constr:    0.0000
     atom:   15    charge:   14.3668    magn:    2.0993    constr:    0.0000
     atom:   16    charge:   14.3664    magn:    2.1017    constr:    0.0000

     total cpu time spent up to now is     1898.2 secs

     End of self-consistent calculation

     Number of k-points >= 100: set verbosity='high' to print the bands.

     the Fermi energy is    18.9745 ev

!    total energy              =   -5268.18935627 Ry
     Harris-Foulkes estimate   =   -5268.18935441 Ry
     estimated scf accuracy    <       0.00000088 Ry

     total all-electron energy =    -40728.933885 Ry

     The total energy is the sum of the following terms:

     one-electron contribution =   -1707.43254608 Ry
     hartree contribution      =    1022.27832240 Ry
     xc contribution           =    -444.25984143 Ry
     ewald contribution        =   -2814.22827283 Ry
     one-center paw contrib.   =   -1324.67106286 Ry
     smearing contrib. (-TS)   =       0.12404454 Ry

     total magnetization       =    32.90 Bohr mag/cell
     absolute magnetization    =    34.66 Bohr mag/cell

     convergence has been achieved in  24 iterations

     negative rho (up, down):  0.000E+00 2.464E-03

     Forces acting on atoms (cartesian axes, Ry/au):

     atom    1 type  1   force =     0.00000000    0.00000000    0.00000000
     atom    2 type  2   force =    -0.00008728    0.00016657    0.00004478
     atom    3 type  1   force =     0.00000000    0.00000000    0.00000000
     atom    4 type  2   force =    -0.00008728    0.00016657   -0.00004478
     atom    5 type  1   force =     0.00000000    0.00000000    0.00000000
     atom    6 type  2   force =    -0.00008728   -0.00016657    0.00004478
     atom    7 type  1   force =     0.00000000    0.00000000    0.00000000
     atom    8 type  2   force =    -0.00008728   -0.00016657   -0.00004478
     atom    9 type  1   force =     0.00000000    0.00000000    0.00000000
     atom   10 type  2   force =     0.00008728    0.00016657    0.00004478
     atom   11 type  1   force =     0.00000000    0.00000000    0.00000000
     atom   12 type  2   force =     0.00008728    0.00016657   -0.00004478
     atom   13 type  1   force =     0.00000000    0.00000000    0.00000000
     atom   14 type  2   force =     0.00008728   -0.00016657    0.00004478
     atom   15 type  1   force =     0.00000000    0.00000000    0.00000000
     atom   16 type  2   force =     0.00008728   -0.00016657   -0.00004478

     Total force =     0.000547     Total SCF correction =     0.005911
     SCF correction compared to forces is large: reduce conv_thr to get better values


     Computing stress (Cartesian axis) and pressure


     negative rho (up, down):  0.000E+00 2.464E-03
          total   stress  (Ry/bohr**3)                   (kbar)     P=   -2.84
  -0.00004867   0.00000000   0.00000000         -7.16      0.00      0.00
   0.00000000  -0.00001979   0.00000000          0.00     -2.91      0.00
   0.00000000   0.00000000   0.00001049          0.00      0.00      1.54


     Writing output data file vxdpRUzpLsGbTwLo.save/
 
     init_run     :     20.99s CPU     21.94s WALL (       1 calls)
     electrons    :   1817.52s CPU   1875.00s WALL (       1 calls)
     forces       :      7.65s CPU      8.35s WALL (       1 calls)
     stress       :     22.25s CPU     22.45s WALL (       1 calls)

     Called by init_run:
     wfcinit      :     20.55s CPU     21.41s WALL (       1 calls)
     potinit      :      0.20s CPU      0.22s WALL (       1 calls)
     hinit0       :      0.14s CPU      0.16s WALL (       1 calls)

     Called by electrons:
     c_bands      :   1637.83s CPU   1685.62s WALL (      25 calls)
     sum_band     :    174.47s CPU    183.63s WALL (      25 calls)
     v_of_rho     :      0.38s CPU      0.38s WALL (      25 calls)
     newd         :      0.78s CPU      1.00s WALL (      25 calls)
     PAW_pot      :      3.98s CPU      4.18s WALL (      25 calls)
     mix_rho      :      0.14s CPU      0.15s WALL (      25 calls)

     Called by c_bands:
     init_us_2    :      9.25s CPU      9.40s WALL (   13250 calls)
     cegterg      :   1592.18s CPU   1639.32s WALL (    6250 calls)

     Called by sum_band:
     sum_band:bec :      2.56s CPU      2.60s WALL (    6250 calls)
     addusdens    :      1.42s CPU      1.60s WALL (      25 calls)

     Called by *egterg:
     h_psi        :    683.65s CPU    712.90s WALL (   20194 calls)
     s_psi        :     37.81s CPU     38.05s WALL (   20194 calls)
     g_psi        :      1.54s CPU      1.56s WALL (   13694 calls)
     cdiaghg      :    709.49s CPU    711.71s WALL (   19694 calls)

     Called by h_psi:
     h_psi:pot    :    679.60s CPU    708.80s WALL (   20194 calls)
     h_psi:calbec :     56.09s CPU     65.28s WALL (   20194 calls)
     vloc_psi     :    585.56s CPU    605.33s WALL (   20194 calls)
     add_vuspsi   :     37.78s CPU     38.06s WALL (   20194 calls)

     General routines
     calbec       :     85.71s CPU    100.02s WALL (   27694 calls)
     fft          :      0.40s CPU      0.43s WALL (     667 calls)
     ffts         :      0.06s CPU      0.25s WALL (     100 calls)
     fftw         :    683.41s CPU    706.23s WALL ( 5190468 calls)
     interpolate  :      0.08s CPU      0.17s WALL (      50 calls)
 
     Parallel routines
     fft_scatt_xy :     45.60s CPU     47.07s WALL ( 5191235 calls)
     fft_scatt_yz :    456.92s CPU    472.62s WALL ( 5191235 calls)
 
     PWSCF        : 31m23.76s CPU    33m11.85s WALL

 
   This run was terminated on:   7:34:17  10Sep2020            

=------------------------------------------------------------------------------=
   JOB DONE.
=------------------------------------------------------------------------------=
