--------------------------------------------------------------------------
WARNING: No preset parameters were found for the device that Open MPI
detected:

  Local host:            bear-pg0206u26a
  Device name:           mlx5_0
  Device vendor ID:      0x02c9
  Device vendor part ID: 4123

Default device parameters will be used, which may result in lower
performance.  You can edit any of the files specified by the
btl_openib_device_param_files MCA parameter to set values for your
device.

NOTE: You can turn off this warning by setting the MCA parameter
      btl_openib_warn_no_device_params_found to 0.
--------------------------------------------------------------------------
--------------------------------------------------------------------------
WARNING: There was an error initializing an OpenFabrics device.

  Local host:   bear-pg0206u26a
  Local device: mlx5_0
--------------------------------------------------------------------------

     Program PWSCF v.6.3 starts on  2Nov2020 at 21:26:10 

     This program is part of the open-source Quantum ESPRESSO suite
     for quantum simulation of materials; please cite
         "P. Giannozzi et al., J. Phys.:Condens. Matter 21 395502 (2009);
         "P. Giannozzi et al., J. Phys.:Condens. Matter 29 465901 (2017);
          URL http://www.quantum-espresso.org", 
     in publications or presentations arising from this work. More details at
     http://www.quantum-espresso.org/quote

     Parallel version (MPI & OpenMP), running on      40 processor cores
     Number of MPI processes:                40
     Threads/MPI process:                     1

     MPI processes distributed on     1 nodes
     R & G space division:  proc/nbgrp/npool/nimage =      40
     Reading input from wd/ec/ec_8_007.in
Warning: card &IONS ignored
Warning: card ION_DYNAMICS = 'BFGS', ignored
Warning: card / ignored
Warning: card &CELL ignored
Warning: card CELL_DYNAMICS = 'BFGS', ignored
Warning: card CELL_FACTOR = 2.0, ignored
Warning: card PRESS = 0.0, ignored
Warning: card / ignored

     Current dimensions of program PWSCF are:
     Max number of different atomic species (ntypx) = 10
     Max number of k-points (npk) =  40000
     Max angular momentum in pseudopotentials (lmaxx) =  3
               file Fe.pbe-spn-kjpaw_psl.1.0.0.UPF: wavefunction(s)  3P 3D renormalized
               file Fe.pbe-spn-kjpaw_psl.1.0.0.UPF: wavefunction(s)  3P 3D renormalized

     Subspace diagonalization in iterative solution of the eigenvalue problem:
     a serial algorithm will be used

     Found symmetry operation: I + (  0.0000  0.0000  0.5000)
     This is a supercell, fractional translations are disabled
 
     Parallelization info
     --------------------
     sticks:   dense  smooth     PW     G-vecs:    dense   smooth      PW
     Min          96      63     17                 4473     2401     355
     Max          98      64     18                 4475     2406     360
     Sum        3859    2553    717               178967    96149   14307
 


     bravais-lattice index     =            0
     lattice parameter (alat)  =      10.5935  a.u.
     unit-cell volume          =    1188.8329 (a.u.)^3
     number of atoms/cell      =           16
     number of atomic types    =            2
     number of electrons       =       256.00
     number of Kohn-Sham states=          154
     kinetic-energy cutoff     =      71.0000  Ry
     charge density cutoff     =     430.0000  Ry
     convergence threshold     =      1.0E-06
     mixing beta               =       0.1000
     number of iterations used =           10  plain     mixing
     Exchange-correlation      = SLA PW PBX PBC ( 1  4  3  4 0 0)

     celldm(1)=  10.593520  celldm(2)=   0.000000  celldm(3)=   0.000000
     celldm(4)=   0.000000  celldm(5)=   0.000000  celldm(6)=   0.000000

     crystal axes: (cart. coord. in units of alat)
               a(1) = (   1.004005   0.000000   0.000000 )  
               a(2) = (   0.000000   1.000005   0.000000 )  
               a(3) = (   0.000000   0.000000   0.996005 )  

     reciprocal axes: (cart. coord. in units 2 pi/alat)
               b(1) = (  0.996011  0.000000  0.000000 )  
               b(2) = (  0.000000  0.999995  0.000000 )  
               b(3) = (  0.000000  0.000000  1.004011 )  


     PseudoPot. # 1 for Fe read from file:
     /rds/homes/b/bxp912/pp/Fe.pbe-spn-kjpaw_psl.1.0.0.UPF
     MD5 check sum: 42f43b795421b414b0dc916aa790dbcb
     Pseudo is Projector augmented-wave + core cor, Zval = 16.0
     Generated using "atomic" code by A. Dal Corso v.6.3
     Shape of augmentation charge: PSQ
     Using radial grid of 1191 points,  6 beta functions with: 
                l(1) =   0
                l(2) =   0
                l(3) =   1
                l(4) =   1
                l(5) =   2
                l(6) =   2
     Q(r) pseudized with 0 coefficients 


     PseudoPot. # 2 for Fe read from file:
     /rds/homes/b/bxp912/pp/Fe.pbe-spn-kjpaw_psl.1.0.0.UPF
     MD5 check sum: 42f43b795421b414b0dc916aa790dbcb
     Pseudo is Projector augmented-wave + core cor, Zval = 16.0
     Generated using "atomic" code by A. Dal Corso v.6.3
     Shape of augmentation charge: PSQ
     Using radial grid of 1191 points,  6 beta functions with: 
                l(1) =   0
                l(2) =   0
                l(3) =   1
                l(4) =   1
                l(5) =   2
                l(6) =   2
     Q(r) pseudized with 0 coefficients 


     atomic species   valence    mass     pseudopotential
        Fe1           16.00    55.84500     Fe( 1.00)
        Fe2           16.00    55.84500     Fe( 1.00)

     Starting magnetic structure 
     atomic species   magnetization
        Fe1          0.100
        Fe2          0.100

      8 Sym. Ops., with inversion, found



   Cartesian axes

     site n.     atom                  positions (alat units)
         1           Fe1 tau(   1) = (   0.0000000   0.0000000   0.0000000  )
         2           Fe2 tau(   2) = (   0.2510018   0.2500018   0.2490018  )
         3           Fe1 tau(   3) = (   0.0000000   0.0000000   0.4980027  )
         4           Fe2 tau(   4) = (   0.2510018   0.2500018   0.7470036  )
         5           Fe1 tau(   5) = (   0.0000000   0.5000027   0.0000000  )
         6           Fe2 tau(   6) = (   0.2510018   0.7500036   0.2490018  )
         7           Fe1 tau(   7) = (   0.0000000   0.5000027   0.4980027  )
         8           Fe2 tau(   8) = (   0.2510018   0.7500036   0.7470036  )
         9           Fe1 tau(   9) = (   0.5020027   0.0000000   0.0000000  )
        10           Fe2 tau(  10) = (   0.7530036   0.2500018   0.2490018  )
        11           Fe1 tau(  11) = (   0.5020027   0.0000000   0.4980027  )
        12           Fe2 tau(  12) = (   0.7530036   0.2500018   0.7470036  )
        13           Fe1 tau(  13) = (   0.5020027   0.5000027   0.0000000  )
        14           Fe2 tau(  14) = (   0.7530036   0.7500036   0.2490018  )
        15           Fe1 tau(  15) = (   0.5020027   0.5000027   0.4980027  )
        16           Fe2 tau(  16) = (   0.7530036   0.7500036   0.7470036  )

     number of k points=   125  Marzari-Vanderbilt smearing, width (Ry)=  0.0400

     Number of k-points >= 100: set verbosity='high' to print them.

     Dense  grid:   178967 G-vectors     FFT dimensions: (  72,  72,  72)

     Smooth grid:    96149 G-vectors     FFT dimensions: (  60,  60,  60)

     Estimated max dynamical RAM per process >     215.38 MB

     Estimated total dynamical RAM >       8.41 GB
     Generating pointlists ...
     new r_m :   0.1786 (alat units)  1.8922 (a.u.) for type    1
     new r_m :   0.1786 (alat units)  1.8922 (a.u.) for type    2

     Check: negative/imaginary core charge=   -0.000006    0.000000

     Initial potential from superposition of free atoms

     starting charge  255.99300, renormalised to  256.00000
     Starting wfcs are  160 randomized atomic wfcs
     Checking if some PAW data can be deallocated... 

     total cpu time spent up to now is       23.6 secs

     Self-consistent Calculation

     iteration #  1     ecut=    71.00 Ry     beta= 0.10
     Davidson diagonalization with overlap
     ethr =  1.00E-02,  avg # of iterations =  3.3

     Threshold (ethr) on eigenvalues was too large:
     Diagonalizing with lowered threshold

     Davidson diagonalization with overlap
     ethr =  2.83E-04,  avg # of iterations =  3.4

     total cpu time spent up to now is      209.0 secs

     total energy              =   -5268.17611051 Ry
     Harris-Foulkes estimate   =   -5268.32778564 Ry
     estimated scf accuracy    <       0.82029458 Ry

     total magnetization       =    28.04 Bohr mag/cell
     absolute magnetization    =    28.40 Bohr mag/cell

     iteration #  2     ecut=    71.00 Ry     beta= 0.10
     Davidson diagonalization with overlap
     ethr =  3.20E-04,  avg # of iterations =  1.0

     total cpu time spent up to now is      264.1 secs

     total energy              =   -5268.07002000 Ry
     Harris-Foulkes estimate   =   -5268.19489466 Ry
     estimated scf accuracy    <       0.49772275 Ry

     total magnetization       =    28.67 Bohr mag/cell
     absolute magnetization    =    28.95 Bohr mag/cell

     iteration #  3     ecut=    71.00 Ry     beta= 0.10
     Davidson diagonalization with overlap
     ethr =  1.94E-04,  avg # of iterations =  2.5

     total cpu time spent up to now is      339.4 secs

     total energy              =   -5268.03722059 Ry
     Harris-Foulkes estimate   =   -5268.11673983 Ry
     estimated scf accuracy    <       0.57533613 Ry

     total magnetization       =    29.37 Bohr mag/cell
     absolute magnetization    =    29.70 Bohr mag/cell

     iteration #  4     ecut=    71.00 Ry     beta= 0.10
     Davidson diagonalization with overlap
     ethr =  1.94E-04,  avg # of iterations =  2.1

     total cpu time spent up to now is      408.1 secs

     total energy              =   -5268.06921560 Ry
     Harris-Foulkes estimate   =   -5268.07304468 Ry
     estimated scf accuracy    <       0.17927019 Ry

     total magnetization       =    30.20 Bohr mag/cell
     absolute magnetization    =    30.58 Bohr mag/cell

     iteration #  5     ecut=    71.00 Ry     beta= 0.10
     Davidson diagonalization with overlap
     ethr =  7.00E-05,  avg # of iterations =  1.3

     total cpu time spent up to now is      466.9 secs

     total energy              =   -5268.08803147 Ry
     Harris-Foulkes estimate   =   -5268.07345963 Ry
     estimated scf accuracy    <       0.11149465 Ry

     total magnetization       =    30.30 Bohr mag/cell
     absolute magnetization    =    30.69 Bohr mag/cell

     iteration #  6     ecut=    71.00 Ry     beta= 0.10
     Davidson diagonalization with overlap
     ethr =  4.36E-05,  avg # of iterations =  3.2

     total cpu time spent up to now is      569.8 secs

     total energy              =   -5268.14443874 Ry
     Harris-Foulkes estimate   =   -5268.12656229 Ry
     estimated scf accuracy    <       0.13288940 Ry

     total magnetization       =    30.91 Bohr mag/cell
     absolute magnetization    =    31.62 Bohr mag/cell

     iteration #  7     ecut=    71.00 Ry     beta= 0.10
     Davidson diagonalization with overlap
     ethr =  4.36E-05,  avg # of iterations =  2.0

     total cpu time spent up to now is      640.9 secs

     total energy              =   -5268.15301456 Ry
     Harris-Foulkes estimate   =   -5268.15245650 Ry
     estimated scf accuracy    <       0.09943005 Ry

     total magnetization       =    31.45 Bohr mag/cell
     absolute magnetization    =    32.36 Bohr mag/cell

     iteration #  8     ecut=    71.00 Ry     beta= 0.10
     Davidson diagonalization with overlap
     ethr =  3.88E-05,  avg # of iterations =  1.0

     negative rho (up, down):  0.000E+00 1.719E-03

     total cpu time spent up to now is      696.2 secs

     total energy              =   -5268.17007089 Ry
     Harris-Foulkes estimate   =   -5268.15433502 Ry
     estimated scf accuracy    <       0.07758286 Ry

     total magnetization       =    31.59 Bohr mag/cell
     absolute magnetization    =    32.57 Bohr mag/cell

     iteration #  9     ecut=    71.00 Ry     beta= 0.10
     Davidson diagonalization with overlap
     ethr =  3.03E-05,  avg # of iterations =  2.8

     negative rho (up, down):  0.000E+00 2.146E-03

     total cpu time spent up to now is      787.6 secs

     total energy              =   -5268.18915500 Ry
     Harris-Foulkes estimate   =   -5268.18665073 Ry
     estimated scf accuracy    <       0.03300200 Ry

     total magnetization       =    32.33 Bohr mag/cell
     absolute magnetization    =    33.72 Bohr mag/cell

     iteration # 10     ecut=    71.00 Ry     beta= 0.10
     Davidson diagonalization with overlap
     ethr =  1.29E-05,  avg # of iterations =  1.0

     negative rho (up, down):  0.000E+00 2.507E-03

     total cpu time spent up to now is      843.3 secs

     total energy              =   -5268.18771681 Ry
     Harris-Foulkes estimate   =   -5268.19001755 Ry
     estimated scf accuracy    <       0.01656344 Ry

     total magnetization       =    32.48 Bohr mag/cell
     absolute magnetization    =    33.93 Bohr mag/cell

     iteration # 11     ecut=    71.00 Ry     beta= 0.10
     Davidson diagonalization with overlap
     ethr =  6.47E-06,  avg # of iterations =  2.5

     negative rho (up, down):  0.000E+00 2.557E-03

     total cpu time spent up to now is      920.5 secs

     total energy              =   -5268.18854596 Ry
     Harris-Foulkes estimate   =   -5268.18876988 Ry
     estimated scf accuracy    <       0.00170121 Ry

     total magnetization       =    32.65 Bohr mag/cell
     absolute magnetization    =    34.26 Bohr mag/cell

     iteration # 12     ecut=    71.00 Ry     beta= 0.10
     Davidson diagonalization with overlap
     ethr =  6.65E-07,  avg # of iterations =  2.9

     negative rho (up, down):  0.000E+00 2.582E-03

     total cpu time spent up to now is     1002.6 secs

     total energy              =   -5268.18886636 Ry
     Harris-Foulkes estimate   =   -5268.18869280 Ry
     estimated scf accuracy    <       0.00079871 Ry

     total magnetization       =    32.70 Bohr mag/cell
     absolute magnetization    =    34.34 Bohr mag/cell

     iteration # 13     ecut=    71.00 Ry     beta= 0.10
     Davidson diagonalization with overlap
     ethr =  3.12E-07,  avg # of iterations =  2.1

     negative rho (up, down):  0.000E+00 2.546E-03

     total cpu time spent up to now is     1071.6 secs

     total energy              =   -5268.18882647 Ry
     Harris-Foulkes estimate   =   -5268.18894332 Ry
     estimated scf accuracy    <       0.00110422 Ry

     total magnetization       =    32.74 Bohr mag/cell
     absolute magnetization    =    34.42 Bohr mag/cell

     iteration # 14     ecut=    71.00 Ry     beta= 0.10
     Davidson diagonalization with overlap
     ethr =  3.12E-07,  avg # of iterations =  2.6

     negative rho (up, down):  0.000E+00 2.470E-03

     total cpu time spent up to now is     1153.0 secs

     total energy              =   -5268.18908865 Ry
     Harris-Foulkes estimate   =   -5268.18894648 Ry
     estimated scf accuracy    <       0.00068971 Ry

     total magnetization       =    32.77 Bohr mag/cell
     absolute magnetization    =    34.49 Bohr mag/cell

     iteration # 15     ecut=    71.00 Ry     beta= 0.10
     Davidson diagonalization with overlap
     ethr =  2.69E-07,  avg # of iterations =  1.5

     negative rho (up, down):  0.000E+00 2.484E-03

     total cpu time spent up to now is     1216.5 secs

     total energy              =   -5268.18917398 Ry
     Harris-Foulkes estimate   =   -5268.18913433 Ry
     estimated scf accuracy    <       0.00019544 Ry

     total magnetization       =    32.78 Bohr mag/cell
     absolute magnetization    =    34.50 Bohr mag/cell

     iteration # 16     ecut=    71.00 Ry     beta= 0.10
     Davidson diagonalization with overlap
     ethr =  7.63E-08,  avg # of iterations =  2.3

     negative rho (up, down):  0.000E+00 2.457E-03

     total cpu time spent up to now is     1294.1 secs

     total energy              =   -5268.18923913 Ry
     Harris-Foulkes estimate   =   -5268.18919701 Ry
     estimated scf accuracy    <       0.00010334 Ry

     total magnetization       =    32.82 Bohr mag/cell
     absolute magnetization    =    34.56 Bohr mag/cell

     iteration # 17     ecut=    71.00 Ry     beta= 0.10
     Davidson diagonalization with overlap
     ethr =  4.04E-08,  avg # of iterations =  2.1

     negative rho (up, down):  0.000E+00 2.404E-03

     total cpu time spent up to now is     1366.6 secs

     total energy              =   -5268.18927531 Ry
     Harris-Foulkes estimate   =   -5268.18924778 Ry
     estimated scf accuracy    <       0.00006959 Ry

     total magnetization       =    32.83 Bohr mag/cell
     absolute magnetization    =    34.58 Bohr mag/cell

     iteration # 18     ecut=    71.00 Ry     beta= 0.10
     Davidson diagonalization with overlap
     ethr =  2.72E-08,  avg # of iterations =  2.7

     negative rho (up, down):  0.000E+00 2.413E-03

     total cpu time spent up to now is     1454.6 secs

     total energy              =   -5268.18930328 Ry
     Harris-Foulkes estimate   =   -5268.18929550 Ry
     estimated scf accuracy    <       0.00003795 Ry

     total magnetization       =    32.85 Bohr mag/cell
     absolute magnetization    =    34.60 Bohr mag/cell

     iteration # 19     ecut=    71.00 Ry     beta= 0.10
     Davidson diagonalization with overlap
     ethr =  1.48E-08,  avg # of iterations =  1.9

     negative rho (up, down):  0.000E+00 2.416E-03

     total cpu time spent up to now is     1522.7 secs

     total energy              =   -5268.18930674 Ry
     Harris-Foulkes estimate   =   -5268.18930615 Ry
     estimated scf accuracy    <       0.00002301 Ry

     total magnetization       =    32.87 Bohr mag/cell
     absolute magnetization    =    34.62 Bohr mag/cell

     iteration # 20     ecut=    71.00 Ry     beta= 0.10
     Davidson diagonalization with overlap
     ethr =  8.99E-09,  avg # of iterations =  1.0

     negative rho (up, down):  0.000E+00 2.460E-03

     total cpu time spent up to now is     1578.8 secs

     total energy              =   -5268.18930673 Ry
     Harris-Foulkes estimate   =   -5268.18930728 Ry
     estimated scf accuracy    <       0.00001757 Ry

     total magnetization       =    32.87 Bohr mag/cell
     absolute magnetization    =    34.63 Bohr mag/cell

     iteration # 21     ecut=    71.00 Ry     beta= 0.10
     Davidson diagonalization with overlap
     ethr =  6.86E-09,  avg # of iterations =  3.0

     negative rho (up, down):  0.000E+00 2.464E-03

     total cpu time spent up to now is     1669.4 secs

     total energy              =   -5268.18931200 Ry
     Harris-Foulkes estimate   =   -5268.18931176 Ry
     estimated scf accuracy    <       0.00000540 Ry

     total magnetization       =    32.89 Bohr mag/cell
     absolute magnetization    =    34.66 Bohr mag/cell

     iteration # 22     ecut=    71.00 Ry     beta= 0.10
     Davidson diagonalization with overlap
     ethr =  2.11E-09,  avg # of iterations =  1.1

     negative rho (up, down):  0.000E+00 2.462E-03

     total cpu time spent up to now is     1725.2 secs

     total energy              =   -5268.18931430 Ry
     Harris-Foulkes estimate   =   -5268.18931234 Ry
     estimated scf accuracy    <       0.00000267 Ry

     total magnetization       =    32.90 Bohr mag/cell
     absolute magnetization    =    34.66 Bohr mag/cell

     iteration # 23     ecut=    71.00 Ry     beta= 0.10
     Davidson diagonalization with overlap
     ethr =  1.04E-09,  avg # of iterations =  2.3

     negative rho (up, down):  0.000E+00 2.453E-03

     total cpu time spent up to now is     1796.2 secs

     total energy              =   -5268.18931600 Ry
     Harris-Foulkes estimate   =   -5268.18931450 Ry
     estimated scf accuracy    <       0.00000181 Ry

     total magnetization       =    32.90 Bohr mag/cell
     absolute magnetization    =    34.67 Bohr mag/cell

     iteration # 24     ecut=    71.00 Ry     beta= 0.10
     Davidson diagonalization with overlap
     ethr =  7.08E-10,  avg # of iterations =  3.0

     negative rho (up, down):  0.000E+00 2.463E-03
 
     Magnetic moment per site:
     atom:    1    charge:   14.3665    magn:    2.0996    constr:    0.0000
     atom:    2    charge:   14.3664    magn:    2.1017    constr:    0.0000
     atom:    3    charge:   14.3665    magn:    2.1003    constr:    0.0000
     atom:    4    charge:   14.3664    magn:    2.1017    constr:    0.0000
     atom:    5    charge:   14.3663    magn:    2.1002    constr:    0.0000
     atom:    6    charge:   14.3664    magn:    2.1017    constr:    0.0000
     atom:    7    charge:   14.3665    magn:    2.1004    constr:    0.0000
     atom:    8    charge:   14.3664    magn:    2.1017    constr:    0.0000
     atom:    9    charge:   14.3665    magn:    2.0985    constr:    0.0000
     atom:   10    charge:   14.3664    magn:    2.1017    constr:    0.0000
     atom:   11    charge:   14.3667    magn:    2.0987    constr:    0.0000
     atom:   12    charge:   14.3664    magn:    2.1017    constr:    0.0000
     atom:   13    charge:   14.3668    magn:    2.0988    constr:    0.0000
     atom:   14    charge:   14.3664    magn:    2.1017    constr:    0.0000
     atom:   15    charge:   14.3668    magn:    2.0993    constr:    0.0000
     atom:   16    charge:   14.3664    magn:    2.1017    constr:    0.0000

     total cpu time spent up to now is     1887.8 secs

     End of self-consistent calculation

     Number of k-points >= 100: set verbosity='high' to print the bands.

     the Fermi energy is    18.9745 ev

!    total energy              =   -5268.18931834 Ry
     Harris-Foulkes estimate   =   -5268.18931643 Ry
     estimated scf accuracy    <       0.00000075 Ry

     total all-electron energy =    -40728.933847 Ry

     The total energy is the sum of the following terms:

     one-electron contribution =   -1707.43507309 Ry
     hartree contribution      =    1022.28037961 Ry
     xc contribution           =    -444.26001352 Ry
     ewald contribution        =   -2814.22752014 Ry
     one-center paw contrib.   =   -1324.67108328 Ry
     smearing contrib. (-TS)   =       0.12399207 Ry

     total magnetization       =    32.90 Bohr mag/cell
     absolute magnetization    =    34.66 Bohr mag/cell

     convergence has been achieved in  24 iterations

     negative rho (up, down):  0.000E+00 2.463E-03

     Forces acting on atoms (cartesian axes, Ry/au):

     atom    1 type  1   force =     0.00000000    0.00000000    0.00000000
     atom    2 type  2   force =    -0.00008904    0.00017457    0.00005573
     atom    3 type  1   force =     0.00000000    0.00000000    0.00000000
     atom    4 type  2   force =    -0.00008904    0.00017457   -0.00005573
     atom    5 type  1   force =     0.00000000    0.00000000    0.00000000
     atom    6 type  2   force =    -0.00008904   -0.00017457    0.00005573
     atom    7 type  1   force =     0.00000000    0.00000000    0.00000000
     atom    8 type  2   force =    -0.00008904   -0.00017457   -0.00005573
     atom    9 type  1   force =     0.00000000    0.00000000    0.00000000
     atom   10 type  2   force =     0.00008904    0.00017457    0.00005573
     atom   11 type  1   force =     0.00000000    0.00000000    0.00000000
     atom   12 type  2   force =     0.00008904    0.00017457   -0.00005573
     atom   13 type  1   force =     0.00000000    0.00000000    0.00000000
     atom   14 type  2   force =     0.00008904   -0.00017457    0.00005573
     atom   15 type  1   force =     0.00000000    0.00000000    0.00000000
     atom   16 type  2   force =     0.00008904   -0.00017457   -0.00005573

     Total force =     0.000576     Total SCF correction =     0.005681
     SCF correction compared to forces is large: reduce conv_thr to get better values


     Computing stress (Cartesian axis) and pressure


     negative rho (up, down):  0.000E+00 2.463E-03
          total   stress  (Ry/bohr**3)                   (kbar)     P=   -2.60
  -0.00005283   0.00000000   0.00000000         -7.77      0.00      0.00
   0.00000000  -0.00001830   0.00000000          0.00     -2.69      0.00
   0.00000000   0.00000000   0.00001812          0.00      0.00      2.67


     Writing output data file AqwtmaOMcgXgevJw.save/
 
     init_run     :     21.30s CPU     22.27s WALL (       1 calls)
     electrons    :   1807.56s CPU   1864.21s WALL (       1 calls)
     forces       :      7.48s CPU      8.19s WALL (       1 calls)
     stress       :     21.31s CPU     21.54s WALL (       1 calls)

     Called by init_run:
     wfcinit      :     20.88s CPU     21.75s WALL (       1 calls)
     potinit      :      0.20s CPU      0.22s WALL (       1 calls)
     hinit0       :      0.12s CPU      0.13s WALL (       1 calls)

     Called by electrons:
     c_bands      :   1630.10s CPU   1677.41s WALL (      25 calls)
     sum_band     :    172.33s CPU    181.11s WALL (      25 calls)
     v_of_rho     :      0.44s CPU      0.44s WALL (      25 calls)
     newd         :      0.80s CPU      1.01s WALL (      25 calls)
     PAW_pot      :      3.81s CPU      4.03s WALL (      25 calls)
     mix_rho      :      0.15s CPU      0.16s WALL (      25 calls)

     Called by c_bands:
     init_us_2    :      8.62s CPU      8.73s WALL (   13250 calls)
     cegterg      :   1585.69s CPU   1632.47s WALL (    6250 calls)

     Called by sum_band:
     sum_band:bec :      2.41s CPU      2.45s WALL (    6250 calls)
     addusdens    :      1.33s CPU      1.55s WALL (      25 calls)

     Called by *egterg:
     h_psi        :    680.77s CPU    709.67s WALL (   20188 calls)
     s_psi        :     35.46s CPU     35.70s WALL (   20188 calls)
     g_psi        :      1.44s CPU      1.46s WALL (   13688 calls)
     cdiaghg      :    708.88s CPU    711.35s WALL (   19688 calls)

     Called by h_psi:
     h_psi:pot    :    676.69s CPU    705.54s WALL (   20188 calls)
     h_psi:calbec :     55.65s CPU     64.61s WALL (   20188 calls)
     vloc_psi     :    585.08s CPU    604.76s WALL (   20188 calls)
     add_vuspsi   :     35.80s CPU     36.06s WALL (   20188 calls)

     General routines
     calbec       :     84.76s CPU     98.57s WALL (   27688 calls)
     fft          :      0.46s CPU      0.50s WALL (     667 calls)
     ffts         :      0.08s CPU      0.28s WALL (     100 calls)
     fftw         :    681.61s CPU    704.32s WALL ( 5190334 calls)
     interpolate  :      0.08s CPU      0.17s WALL (      50 calls)
 
     Parallel routines
     fft_scatt_xy :     44.66s CPU     46.03s WALL ( 5191101 calls)
     fft_scatt_yz :    457.81s CPU    473.57s WALL ( 5191101 calls)
 
     PWSCF        : 31m12.72s CPU    33m 0.06s WALL

 
   This run was terminated on:  21:59:10   2Nov2020            

=------------------------------------------------------------------------------=
   JOB DONE.
=------------------------------------------------------------------------------=
