--------------------------------------------------------------------------
WARNING: No preset parameters were found for the device that Open MPI
detected:

  Local host:            bear-pg0206u39a
  Device name:           mlx5_0
  Device vendor ID:      0x02c9
  Device vendor part ID: 4123

Default device parameters will be used, which may result in lower
performance.  You can edit any of the files specified by the
btl_openib_device_param_files MCA parameter to set values for your
device.

NOTE: You can turn off this warning by setting the MCA parameter
      btl_openib_warn_no_device_params_found to 0.
--------------------------------------------------------------------------
--------------------------------------------------------------------------
WARNING: There was an error initializing an OpenFabrics device.

  Local host:   bear-pg0206u39a
  Local device: mlx5_0
--------------------------------------------------------------------------

     Program PWSCF v.6.3 starts on 10Sep2020 at 10:20: 1 

     This program is part of the open-source Quantum ESPRESSO suite
     for quantum simulation of materials; please cite
         "P. Giannozzi et al., J. Phys.:Condens. Matter 21 395502 (2009);
         "P. Giannozzi et al., J. Phys.:Condens. Matter 29 465901 (2017);
          URL http://www.quantum-espresso.org", 
     in publications or presentations arising from this work. More details at
     http://www.quantum-espresso.org/quote

     Parallel version (MPI & OpenMP), running on      40 processor cores
     Number of MPI processes:                40
     Threads/MPI process:                     1

     MPI processes distributed on     1 nodes
     R & G space division:  proc/nbgrp/npool/nimage =      40
     Reading input from wd/ec/ec_9_005.in
Warning: card &IONS ignored
Warning: card ION_DYNAMICS = 'BFGS', ignored
Warning: card / ignored
Warning: card &CELL ignored
Warning: card CELL_DYNAMICS = 'BFGS', ignored
Warning: card CELL_FACTOR = 2.0, ignored
Warning: card PRESS = 0.0, ignored
Warning: card / ignored

     Current dimensions of program PWSCF are:
     Max number of different atomic species (ntypx) = 10
     Max number of k-points (npk) =  40000
     Max angular momentum in pseudopotentials (lmaxx) =  3
               file Fe.pbe-spn-kjpaw_psl.1.0.0.UPF: wavefunction(s)  3P 3D renormalized
               file Fe.pbe-spn-kjpaw_psl.1.0.0.UPF: wavefunction(s)  3P 3D renormalized

     Subspace diagonalization in iterative solution of the eigenvalue problem:
     a serial algorithm will be used

     Found symmetry operation: I + (  0.0000  0.0000 -0.5000)
     This is a supercell, fractional translations are disabled
 
     Parallelization info
     --------------------
     sticks:   dense  smooth     PW     G-vecs:    dense   smooth      PW
     Min          96      63     17                 4474     2401     355
     Max          97      64     18                 4477     2406     360
     Sum        3859    2553    717               178983    96149   14307
 


     bravais-lattice index     =            0
     lattice parameter (alat)  =      10.5935  a.u.
     unit-cell volume          =    1188.8329 (a.u.)^3
     number of atoms/cell      =           16
     number of atomic types    =            2
     number of electrons       =       256.00
     number of Kohn-Sham states=          154
     kinetic-energy cutoff     =      71.0000  Ry
     charge density cutoff     =     430.0000  Ry
     convergence threshold     =      1.0E-06
     mixing beta               =       0.1000
     number of iterations used =           10  plain     mixing
     Exchange-correlation      = SLA PW PBX PBC ( 1  4  3  4 0 0)

     celldm(1)=  10.593520  celldm(2)=   0.000000  celldm(3)=   0.000000
     celldm(4)=   0.000000  celldm(5)=   0.000000  celldm(6)=   0.000000

     crystal axes: (cart. coord. in units of alat)
               a(1) = (   1.000004   0.000000   0.000000 )  
               a(2) = (   0.000000   1.003337   0.000000 )  
               a(3) = (   0.000000   0.000000   0.996670 )  

     reciprocal axes: (cart. coord. in units 2 pi/alat)
               b(1) = (  0.999996  0.000000  0.000000 )  
               b(2) = (  0.000000  0.996674  0.000000 )  
               b(3) = (  0.000000  0.000000  1.003341 )  


     PseudoPot. # 1 for Fe read from file:
     /rds/homes/b/bxp912/pp/Fe.pbe-spn-kjpaw_psl.1.0.0.UPF
     MD5 check sum: 42f43b795421b414b0dc916aa790dbcb
     Pseudo is Projector augmented-wave + core cor, Zval = 16.0
     Generated using "atomic" code by A. Dal Corso v.6.3
     Shape of augmentation charge: PSQ
     Using radial grid of 1191 points,  6 beta functions with: 
                l(1) =   0
                l(2) =   0
                l(3) =   1
                l(4) =   1
                l(5) =   2
                l(6) =   2
     Q(r) pseudized with 0 coefficients 


     PseudoPot. # 2 for Fe read from file:
     /rds/homes/b/bxp912/pp/Fe.pbe-spn-kjpaw_psl.1.0.0.UPF
     MD5 check sum: 42f43b795421b414b0dc916aa790dbcb
     Pseudo is Projector augmented-wave + core cor, Zval = 16.0
     Generated using "atomic" code by A. Dal Corso v.6.3
     Shape of augmentation charge: PSQ
     Using radial grid of 1191 points,  6 beta functions with: 
                l(1) =   0
                l(2) =   0
                l(3) =   1
                l(4) =   1
                l(5) =   2
                l(6) =   2
     Q(r) pseudized with 0 coefficients 


     atomic species   valence    mass     pseudopotential
        Fe1           16.00    55.84500     Fe( 1.00)
        Fe2           16.00    55.84500     Fe( 1.00)

     Starting magnetic structure 
     atomic species   magnetization
        Fe1          0.100
        Fe2          0.100

      8 Sym. Ops., with inversion, found



   Cartesian axes

     site n.     atom                  positions (alat units)
         1           Fe1 tau(   1) = (   0.0000000   0.0000000   0.0000000  )
         2           Fe2 tau(   2) = (   0.2500014   0.2508347   0.2491680  )
         3           Fe1 tau(   3) = (   0.0000000   0.0000000   0.4983352  )
         4           Fe2 tau(   4) = (   0.2500014   0.2508347   0.7475023  )
         5           Fe1 tau(   5) = (   0.0000000   0.5016685   0.0000000  )
         6           Fe2 tau(   6) = (   0.2500014   0.7525024   0.2491680  )
         7           Fe1 tau(   7) = (   0.0000000   0.5016685   0.4983352  )
         8           Fe2 tau(   8) = (   0.2500014   0.7525024   0.7475023  )
         9           Fe1 tau(   9) = (   0.5000019   0.0000000   0.0000000  )
        10           Fe2 tau(  10) = (   0.7500023   0.2508347   0.2491680  )
        11           Fe1 tau(  11) = (   0.5000019   0.0000000   0.4983352  )
        12           Fe2 tau(  12) = (   0.7500023   0.2508347   0.7475023  )
        13           Fe1 tau(  13) = (   0.5000019   0.5016685   0.0000000  )
        14           Fe2 tau(  14) = (   0.7500023   0.7525024   0.2491680  )
        15           Fe1 tau(  15) = (   0.5000019   0.5016685   0.4983352  )
        16           Fe2 tau(  16) = (   0.7500023   0.7525024   0.7475023  )

     number of k points=   125  Marzari-Vanderbilt smearing, width (Ry)=  0.0400

     Number of k-points >= 100: set verbosity='high' to print them.

     Dense  grid:   178983 G-vectors     FFT dimensions: (  72,  72,  72)

     Smooth grid:    96149 G-vectors     FFT dimensions: (  60,  60,  60)

     Estimated max dynamical RAM per process >     215.38 MB

     Estimated total dynamical RAM >       8.41 GB
     Generating pointlists ...
     new r_m :   0.1786 (alat units)  1.8922 (a.u.) for type    1
     new r_m :   0.1786 (alat units)  1.8922 (a.u.) for type    2

     Check: negative/imaginary core charge=   -0.000006    0.000000

     Initial potential from superposition of free atoms

     starting charge  255.99300, renormalised to  256.00000
     Starting wfcs are  160 randomized atomic wfcs
     Checking if some PAW data can be deallocated... 

     total cpu time spent up to now is       23.4 secs

     Self-consistent Calculation

     iteration #  1     ecut=    71.00 Ry     beta= 0.10
     Davidson diagonalization with overlap
     ethr =  1.00E-02,  avg # of iterations =  3.3

     Threshold (ethr) on eigenvalues was too large:
     Diagonalizing with lowered threshold

     Davidson diagonalization with overlap
     ethr =  2.83E-04,  avg # of iterations =  3.4

     total cpu time spent up to now is      209.8 secs

     total energy              =   -5268.17612233 Ry
     Harris-Foulkes estimate   =   -5268.32780944 Ry
     estimated scf accuracy    <       0.82035500 Ry

     total magnetization       =    28.04 Bohr mag/cell
     absolute magnetization    =    28.40 Bohr mag/cell

     iteration #  2     ecut=    71.00 Ry     beta= 0.10
     Davidson diagonalization with overlap
     ethr =  3.20E-04,  avg # of iterations =  1.0

     total cpu time spent up to now is      265.3 secs

     total energy              =   -5268.07032385 Ry
     Harris-Foulkes estimate   =   -5268.19493592 Ry
     estimated scf accuracy    <       0.49816029 Ry

     total magnetization       =    28.67 Bohr mag/cell
     absolute magnetization    =    28.95 Bohr mag/cell

     iteration #  3     ecut=    71.00 Ry     beta= 0.10
     Davidson diagonalization with overlap
     ethr =  1.95E-04,  avg # of iterations =  2.5

     total cpu time spent up to now is      341.7 secs

     total energy              =   -5268.03694467 Ry
     Harris-Foulkes estimate   =   -5268.11705688 Ry
     estimated scf accuracy    <       0.58168595 Ry

     total magnetization       =    29.36 Bohr mag/cell
     absolute magnetization    =    29.70 Bohr mag/cell

     iteration #  4     ecut=    71.00 Ry     beta= 0.10
     Davidson diagonalization with overlap
     ethr =  1.95E-04,  avg # of iterations =  2.1

     total cpu time spent up to now is      410.7 secs

     total energy              =   -5268.06911817 Ry
     Harris-Foulkes estimate   =   -5268.07319592 Ry
     estimated scf accuracy    <       0.18319509 Ry

     total magnetization       =    30.20 Bohr mag/cell
     absolute magnetization    =    30.58 Bohr mag/cell

     iteration #  5     ecut=    71.00 Ry     beta= 0.10
     Davidson diagonalization with overlap
     ethr =  7.16E-05,  avg # of iterations =  1.3

     total cpu time spent up to now is      469.2 secs

     total energy              =   -5268.08798506 Ry
     Harris-Foulkes estimate   =   -5268.07346400 Ry
     estimated scf accuracy    <       0.11157160 Ry

     total magnetization       =    30.30 Bohr mag/cell
     absolute magnetization    =    30.69 Bohr mag/cell

     iteration #  6     ecut=    71.00 Ry     beta= 0.10
     Davidson diagonalization with overlap
     ethr =  4.36E-05,  avg # of iterations =  3.2

     total cpu time spent up to now is      572.2 secs

     total energy              =   -5268.14427406 Ry
     Harris-Foulkes estimate   =   -5268.12632119 Ry
     estimated scf accuracy    <       0.13253622 Ry

     total magnetization       =    30.91 Bohr mag/cell
     absolute magnetization    =    31.61 Bohr mag/cell

     iteration #  7     ecut=    71.00 Ry     beta= 0.10
     Davidson diagonalization with overlap
     ethr =  4.36E-05,  avg # of iterations =  2.0

     total cpu time spent up to now is      643.8 secs

     total energy              =   -5268.15345391 Ry
     Harris-Foulkes estimate   =   -5268.15238012 Ry
     estimated scf accuracy    <       0.09913712 Ry

     total magnetization       =    31.45 Bohr mag/cell
     absolute magnetization    =    32.36 Bohr mag/cell

     iteration #  8     ecut=    71.00 Ry     beta= 0.10
     Davidson diagonalization with overlap
     ethr =  3.87E-05,  avg # of iterations =  1.0

     negative rho (up, down):  0.000E+00 1.942E-03

     total cpu time spent up to now is      699.3 secs

     total energy              =   -5268.16965683 Ry
     Harris-Foulkes estimate   =   -5268.15484888 Ry
     estimated scf accuracy    <       0.07680690 Ry

     total magnetization       =    31.60 Bohr mag/cell
     absolute magnetization    =    32.58 Bohr mag/cell

     iteration #  9     ecut=    71.00 Ry     beta= 0.10
     Davidson diagonalization with overlap
     ethr =  3.00E-05,  avg # of iterations =  2.8

     negative rho (up, down):  0.000E+00 2.217E-03

     total cpu time spent up to now is      795.0 secs

     total energy              =   -5268.18947401 Ry
     Harris-Foulkes estimate   =   -5268.18908149 Ry
     estimated scf accuracy    <       0.02584350 Ry

     total magnetization       =    32.40 Bohr mag/cell
     absolute magnetization    =    33.83 Bohr mag/cell

     iteration # 10     ecut=    71.00 Ry     beta= 0.10
     Davidson diagonalization with overlap
     ethr =  1.01E-05,  avg # of iterations =  1.3

     negative rho (up, down):  0.000E+00 2.507E-03

     total cpu time spent up to now is      854.9 secs

     total energy              =   -5268.18825216 Ry
     Harris-Foulkes estimate   =   -5268.18995232 Ry
     estimated scf accuracy    <       0.01268352 Ry

     total magnetization       =    32.51 Bohr mag/cell
     absolute magnetization    =    34.00 Bohr mag/cell

     iteration # 11     ecut=    71.00 Ry     beta= 0.10
     Davidson diagonalization with overlap
     ethr =  4.95E-06,  avg # of iterations =  2.3

     negative rho (up, down):  0.000E+00 2.564E-03

     total cpu time spent up to now is      929.9 secs

     total energy              =   -5268.18868156 Ry
     Harris-Foulkes estimate   =   -5268.18891906 Ry
     estimated scf accuracy    <       0.00184938 Ry

     total magnetization       =    32.65 Bohr mag/cell
     absolute magnetization    =    34.26 Bohr mag/cell

     iteration # 12     ecut=    71.00 Ry     beta= 0.10
     Davidson diagonalization with overlap
     ethr =  7.22E-07,  avg # of iterations =  2.3

     negative rho (up, down):  0.000E+00 2.568E-03

     total cpu time spent up to now is     1001.5 secs

     total energy              =   -5268.18885619 Ry
     Harris-Foulkes estimate   =   -5268.18877458 Ry
     estimated scf accuracy    <       0.00076678 Ry

     total magnetization       =    32.69 Bohr mag/cell
     absolute magnetization    =    34.34 Bohr mag/cell

     iteration # 13     ecut=    71.00 Ry     beta= 0.10
     Davidson diagonalization with overlap
     ethr =  3.00E-07,  avg # of iterations =  2.6

     negative rho (up, down):  0.000E+00 2.540E-03

     total cpu time spent up to now is     1083.3 secs

     total energy              =   -5268.18889108 Ry
     Harris-Foulkes estimate   =   -5268.18896292 Ry
     estimated scf accuracy    <       0.00124208 Ry

     total magnetization       =    32.75 Bohr mag/cell
     absolute magnetization    =    34.44 Bohr mag/cell

     iteration # 14     ecut=    71.00 Ry     beta= 0.10
     Davidson diagonalization with overlap
     ethr =  3.00E-07,  avg # of iterations =  2.7

     negative rho (up, down):  0.000E+00 2.488E-03

     total cpu time spent up to now is     1167.0 secs

     total energy              =   -5268.18915137 Ry
     Harris-Foulkes estimate   =   -5268.18902064 Ry
     estimated scf accuracy    <       0.00061434 Ry

     total magnetization       =    32.78 Bohr mag/cell
     absolute magnetization    =    34.51 Bohr mag/cell

     iteration # 15     ecut=    71.00 Ry     beta= 0.10
     Davidson diagonalization with overlap
     ethr =  2.40E-07,  avg # of iterations =  1.6

     negative rho (up, down):  0.000E+00 2.475E-03

     total cpu time spent up to now is     1231.0 secs

     total energy              =   -5268.18923999 Ry
     Harris-Foulkes estimate   =   -5268.18918918 Ry
     estimated scf accuracy    <       0.00013738 Ry

     total magnetization       =    32.80 Bohr mag/cell
     absolute magnetization    =    34.53 Bohr mag/cell

     iteration # 16     ecut=    71.00 Ry     beta= 0.10
     Davidson diagonalization with overlap
     ethr =  5.37E-08,  avg # of iterations =  2.4

     negative rho (up, down):  0.000E+00 2.430E-03

     total cpu time spent up to now is     1305.8 secs

     total energy              =   -5268.18929662 Ry
     Harris-Foulkes estimate   =   -5268.18925012 Ry
     estimated scf accuracy    <       0.00009402 Ry

     total magnetization       =    32.82 Bohr mag/cell
     absolute magnetization    =    34.56 Bohr mag/cell

     iteration # 17     ecut=    71.00 Ry     beta= 0.10
     Davidson diagonalization with overlap
     ethr =  3.67E-08,  avg # of iterations =  2.7

     negative rho (up, down):  0.000E+00 2.389E-03

     total cpu time spent up to now is     1392.4 secs

     total energy              =   -5268.18932569 Ry
     Harris-Foulkes estimate   =   -5268.18931556 Ry
     estimated scf accuracy    <       0.00006321 Ry

     total magnetization       =    32.84 Bohr mag/cell
     absolute magnetization    =    34.59 Bohr mag/cell

     iteration # 18     ecut=    71.00 Ry     beta= 0.10
     Davidson diagonalization with overlap
     ethr =  2.47E-08,  avg # of iterations =  2.1

     negative rho (up, down):  0.000E+00 2.445E-03

     total cpu time spent up to now is     1465.8 secs

     total energy              =   -5268.18933361 Ry
     Harris-Foulkes estimate   =   -5268.18933492 Ry
     estimated scf accuracy    <       0.00005184 Ry

     total magnetization       =    32.85 Bohr mag/cell
     absolute magnetization    =    34.60 Bohr mag/cell

     iteration # 19     ecut=    71.00 Ry     beta= 0.10
     Davidson diagonalization with overlap
     ethr =  2.02E-08,  avg # of iterations =  2.7

     negative rho (up, down):  0.000E+00 2.459E-03

     total cpu time spent up to now is     1550.3 secs

     total energy              =   -5268.18934266 Ry
     Harris-Foulkes estimate   =   -5268.18934309 Ry
     estimated scf accuracy    <       0.00001754 Ry

     total magnetization       =    32.88 Bohr mag/cell
     absolute magnetization    =    34.64 Bohr mag/cell

     iteration # 20     ecut=    71.00 Ry     beta= 0.10
     Davidson diagonalization with overlap
     ethr =  6.85E-09,  avg # of iterations =  2.1

     negative rho (up, down):  0.000E+00 2.456E-03

     total cpu time spent up to now is     1623.1 secs

     total energy              =   -5268.18934784 Ry
     Harris-Foulkes estimate   =   -5268.18934363 Ry
     estimated scf accuracy    <       0.00001142 Ry

     total magnetization       =    32.88 Bohr mag/cell
     absolute magnetization    =    34.65 Bohr mag/cell

     iteration # 21     ecut=    71.00 Ry     beta= 0.10
     Davidson diagonalization with overlap
     ethr =  4.46E-09,  avg # of iterations =  1.7

     negative rho (up, down):  0.000E+00 2.459E-03

     total cpu time spent up to now is     1688.9 secs

     total energy              =   -5268.18935073 Ry
     Harris-Foulkes estimate   =   -5268.18934907 Ry
     estimated scf accuracy    <       0.00000786 Ry

     total magnetization       =    32.89 Bohr mag/cell
     absolute magnetization    =    34.66 Bohr mag/cell

     iteration # 22     ecut=    71.00 Ry     beta= 0.10
     Davidson diagonalization with overlap
     ethr =  3.07E-09,  avg # of iterations =  2.3

     negative rho (up, down):  0.000E+00 2.454E-03

     total cpu time spent up to now is     1760.8 secs

     total energy              =   -5268.18935320 Ry
     Harris-Foulkes estimate   =   -5268.18935182 Ry
     estimated scf accuracy    <       0.00000412 Ry

     total magnetization       =    32.90 Bohr mag/cell
     absolute magnetization    =    34.67 Bohr mag/cell

     iteration # 23     ecut=    71.00 Ry     beta= 0.10
     Davidson diagonalization with overlap
     ethr =  1.61E-09,  avg # of iterations =  2.2

     negative rho (up, down):  0.000E+00 2.454E-03

     total cpu time spent up to now is     1831.9 secs

     total energy              =   -5268.18935421 Ry
     Harris-Foulkes estimate   =   -5268.18935361 Ry
     estimated scf accuracy    <       0.00000187 Ry

     total magnetization       =    32.90 Bohr mag/cell
     absolute magnetization    =    34.67 Bohr mag/cell

     iteration # 24     ecut=    71.00 Ry     beta= 0.10
     Davidson diagonalization with overlap
     ethr =  7.29E-10,  avg # of iterations =  1.4

     negative rho (up, down):  0.000E+00 2.465E-03
 
     Magnetic moment per site:
     atom:    1    charge:   14.3664    magn:    2.0995    constr:    0.0000
     atom:    2    charge:   14.3664    magn:    2.1019    constr:    0.0000
     atom:    3    charge:   14.3665    magn:    2.1001    constr:    0.0000
     atom:    4    charge:   14.3664    magn:    2.1019    constr:    0.0000
     atom:    5    charge:   14.3664    magn:    2.1003    constr:    0.0000
     atom:    6    charge:   14.3664    magn:    2.1019    constr:    0.0000
     atom:    7    charge:   14.3666    magn:    2.1003    constr:    0.0000
     atom:    8    charge:   14.3664    magn:    2.1019    constr:    0.0000
     atom:    9    charge:   14.3666    magn:    2.0985    constr:    0.0000
     atom:   10    charge:   14.3664    magn:    2.1019    constr:    0.0000
     atom:   11    charge:   14.3666    magn:    2.0988    constr:    0.0000
     atom:   12    charge:   14.3664    magn:    2.1019    constr:    0.0000
     atom:   13    charge:   14.3664    magn:    2.0991    constr:    0.0000
     atom:   14    charge:   14.3664    magn:    2.1019    constr:    0.0000
     atom:   15    charge:   14.3664    magn:    2.0995    constr:    0.0000
     atom:   16    charge:   14.3664    magn:    2.1019    constr:    0.0000

     total cpu time spent up to now is     1892.6 secs

     End of self-consistent calculation

     Number of k-points >= 100: set verbosity='high' to print the bands.

     the Fermi energy is    18.9744 ev

!    total energy              =   -5268.18935620 Ry
     Harris-Foulkes estimate   =   -5268.18935430 Ry
     estimated scf accuracy    <       0.00000090 Ry

     total all-electron energy =    -40728.933885 Ry

     The total energy is the sum of the following terms:

     one-electron contribution =   -1707.43497039 Ry
     hartree contribution      =    1022.28148658 Ry
     xc contribution           =    -444.26057322 Ry
     ewald contribution        =   -2814.22827283 Ry
     one-center paw contrib.   =   -1324.67107829 Ry
     smearing contrib. (-TS)   =       0.12405194 Ry

     total magnetization       =    32.90 Bohr mag/cell
     absolute magnetization    =    34.67 Bohr mag/cell

     convergence has been achieved in  24 iterations

     negative rho (up, down):  0.000E+00 2.465E-03

     Forces acting on atoms (cartesian axes, Ry/au):

     atom    1 type  1   force =     0.00000000    0.00000000    0.00000000
     atom    2 type  2   force =     0.00001812    0.00022382    0.00000727
     atom    3 type  1   force =     0.00000000    0.00000000    0.00000000
     atom    4 type  2   force =     0.00001812    0.00022382   -0.00000727
     atom    5 type  1   force =     0.00000000    0.00000000    0.00000000
     atom    6 type  2   force =     0.00001812   -0.00022382    0.00000727
     atom    7 type  1   force =     0.00000000    0.00000000    0.00000000
     atom    8 type  2   force =     0.00001812   -0.00022382   -0.00000727
     atom    9 type  1   force =     0.00000000    0.00000000    0.00000000
     atom   10 type  2   force =    -0.00001812    0.00022382    0.00000727
     atom   11 type  1   force =     0.00000000    0.00000000    0.00000000
     atom   12 type  2   force =    -0.00001812    0.00022382   -0.00000727
     atom   13 type  1   force =     0.00000000    0.00000000    0.00000000
     atom   14 type  2   force =    -0.00001812   -0.00022382    0.00000727
     atom   15 type  1   force =     0.00000000    0.00000000    0.00000000
     atom   16 type  2   force =    -0.00001812   -0.00022382   -0.00000727

     Total force =     0.000635     Total SCF correction =     0.005637
     SCF correction compared to forces is large: reduce conv_thr to get better values


     Computing stress (Cartesian axis) and pressure


     negative rho (up, down):  0.000E+00 2.465E-03
          total   stress  (Ry/bohr**3)                   (kbar)     P=   -2.25
  -0.00001570   0.00000000   0.00000000         -2.31      0.00      0.00
   0.00000000  -0.00004476   0.00000000          0.00     -6.58      0.00
   0.00000000   0.00000000   0.00001458          0.00      0.00      2.15


     Writing output data file VUmnbbuVxxlvorUJ.save/
 
     init_run     :     21.25s CPU     22.12s WALL (       1 calls)
     electrons    :   1813.44s CPU   1869.26s WALL (       1 calls)
     forces       :      8.12s CPU      8.87s WALL (       1 calls)
     stress       :     21.67s CPU     21.89s WALL (       1 calls)

     Called by init_run:
     wfcinit      :     20.76s CPU     21.58s WALL (       1 calls)
     potinit      :      0.20s CPU      0.22s WALL (       1 calls)
     hinit0       :      0.20s CPU      0.21s WALL (       1 calls)

     Called by electrons:
     c_bands      :   1631.47s CPU   1677.55s WALL (      25 calls)
     sum_band     :    177.03s CPU    186.14s WALL (      25 calls)
     v_of_rho     :      0.37s CPU      0.38s WALL (      25 calls)
     newd         :      0.78s CPU      1.01s WALL (      25 calls)
     PAW_pot      :      3.72s CPU      4.02s WALL (      25 calls)
     mix_rho      :      0.15s CPU      0.16s WALL (      25 calls)

     Called by c_bands:
     init_us_2    :      9.41s CPU      9.53s WALL (   13250 calls)
     cegterg      :   1586.10s CPU   1631.72s WALL (    6250 calls)

     Called by sum_band:
     sum_band:bec :      2.63s CPU      2.67s WALL (    6250 calls)
     addusdens    :      1.42s CPU      1.61s WALL (      25 calls)

     Called by *egterg:
     h_psi        :    680.55s CPU    708.67s WALL (   20297 calls)
     s_psi        :     37.63s CPU     37.84s WALL (   20297 calls)
     g_psi        :      1.53s CPU      1.55s WALL (   13797 calls)
     cdiaghg      :    707.67s CPU    709.85s WALL (   19797 calls)

     Called by h_psi:
     h_psi:pot    :    676.27s CPU    704.34s WALL (   20297 calls)
     h_psi:calbec :     55.98s CPU     65.00s WALL (   20297 calls)
     vloc_psi     :    582.17s CPU    601.00s WALL (   20297 calls)
     add_vuspsi   :     37.95s CPU     38.21s WALL (   20297 calls)

     General routines
     calbec       :     85.48s CPU     99.65s WALL (   27797 calls)
     fft          :      0.42s CPU      0.45s WALL (     667 calls)
     ffts         :      0.06s CPU      0.24s WALL (     100 calls)
     fftw         :    682.48s CPU    704.44s WALL ( 5169018 calls)
     interpolate  :      0.07s CPU      0.15s WALL (      50 calls)
 
     Parallel routines
     fft_scatt_xy :     45.72s CPU     47.12s WALL ( 5169785 calls)
     fft_scatt_yz :    457.13s CPU    472.20s WALL ( 5169785 calls)
 
     PWSCF        : 31m19.71s CPU    33m 5.90s WALL

 
   This run was terminated on:  10:53: 7  10Sep2020            

=------------------------------------------------------------------------------=
   JOB DONE.
=------------------------------------------------------------------------------=
