
     Program PWSCF v.6.3 starts on 11Oct2020 at  1:33:16 

     This program is part of the open-source Quantum ESPRESSO suite
     for quantum simulation of materials; please cite
         "P. Giannozzi et al., J. Phys.:Condens. Matter 21 395502 (2009);
         "P. Giannozzi et al., J. Phys.:Condens. Matter 29 465901 (2017);
          URL http://www.quantum-espresso.org", 
     in publications or presentations arising from this work. More details at
     http://www.quantum-espresso.org/quote

     Parallel version (MPI & OpenMP), running on      40 processor cores
     Number of MPI processes:                40
     Threads/MPI process:                     1

     MPI processes distributed on     1 nodes
     R & G space division:  proc/nbgrp/npool/nimage =      40
     Reading input from wd/ec/ec_2_007.in
Warning: card &IONS ignored
Warning: card ION_DYNAMICS = 'BFGS', ignored
Warning: card / ignored
Warning: card &CELL ignored
Warning: card CELL_DYNAMICS = 'BFGS', ignored
Warning: card CELL_FACTOR = 2.0, ignored
Warning: card PRESS = 0.0, ignored
Warning: card / ignored

     Current dimensions of program PWSCF are:
     Max number of different atomic species (ntypx) = 10
     Max number of k-points (npk) =  40000
     Max angular momentum in pseudopotentials (lmaxx) =  3
               file Fe.pbe-spn-kjpaw_psl.1.0.0.UPF: wavefunction(s)  3P 3D renormalized
               file Fe.pbe-spn-kjpaw_psl.1.0.0.UPF: wavefunction(s)  3P 3D renormalized
               file Fe.pbe-spn-kjpaw_psl.1.0.0.UPF: wavefunction(s)  3P 3D renormalized
               file Fe.pbe-spn-kjpaw_psl.1.0.0.UPF: wavefunction(s)  3P 3D renormalized

     Subspace diagonalization in iterative solution of the eigenvalue problem:
     a serial algorithm will be used

     Found symmetry operation: I + (  0.0000  0.0000 -0.5000)
     This is a supercell, fractional translations are disabled
 
     Parallelization info
     --------------------
     sticks:   dense  smooth     PW     G-vecs:    dense   smooth      PW
     Min         152     100     27                 8684     4660     669
     Max         153     101     28                 8691     4665     674
     Sum        6103    4021   1107               347459   186481   26863
 


     bravais-lattice index     =            0
     lattice parameter (alat)  =      12.9382  a.u.
     unit-cell volume          =    2306.5969 (a.u.)^3
     number of atoms/cell      =           32
     number of atomic types    =            4
     number of electrons       =       512.00
     number of Kohn-Sham states=          307
     kinetic-energy cutoff     =      71.0000  Ry
     charge density cutoff     =     430.0000  Ry
     convergence threshold     =      1.0E-06
     mixing beta               =       0.1000
     number of iterations used =           10  plain     mixing
     Exchange-correlation      = SLA PW PBX PBC ( 1  4  3  4 0 0)

     celldm(1)=  12.938187  celldm(2)=   0.000000  celldm(3)=   0.000000
     celldm(4)=   0.000000  celldm(5)=   0.000000  celldm(6)=   0.000000

     crystal axes: (cart. coord. in units of alat)
               a(1) = (   1.000000   0.000000   0.000000 )  
               a(2) = (   0.000000   1.065018   0.000000 )  
               a(3) = (   0.000000   0.000000   0.999987 )  

     reciprocal axes: (cart. coord. in units 2 pi/alat)
               b(1) = (  1.000000  0.000000  0.000000 )  
               b(2) = (  0.000000  0.938951  0.000000 )  
               b(3) = (  0.000000  0.000000  1.000013 )  


     PseudoPot. # 1 for Fe read from file:
     /rds/homes/b/bxp912/pp/Fe.pbe-spn-kjpaw_psl.1.0.0.UPF
     MD5 check sum: 42f43b795421b414b0dc916aa790dbcb
     Pseudo is Projector augmented-wave + core cor, Zval = 16.0
     Generated using "atomic" code by A. Dal Corso v.6.3
     Shape of augmentation charge: PSQ
     Using radial grid of 1191 points,  6 beta functions with: 
                l(1) =   0
                l(2) =   0
                l(3) =   1
                l(4) =   1
                l(5) =   2
                l(6) =   2
     Q(r) pseudized with 0 coefficients 


     PseudoPot. # 2 for Fe read from file:
     /rds/homes/b/bxp912/pp/Fe.pbe-spn-kjpaw_psl.1.0.0.UPF
     MD5 check sum: 42f43b795421b414b0dc916aa790dbcb
     Pseudo is Projector augmented-wave + core cor, Zval = 16.0
     Generated using "atomic" code by A. Dal Corso v.6.3
     Shape of augmentation charge: PSQ
     Using radial grid of 1191 points,  6 beta functions with: 
                l(1) =   0
                l(2) =   0
                l(3) =   1
                l(4) =   1
                l(5) =   2
                l(6) =   2
     Q(r) pseudized with 0 coefficients 


     PseudoPot. # 3 for Fe read from file:
     /rds/homes/b/bxp912/pp/Fe.pbe-spn-kjpaw_psl.1.0.0.UPF
     MD5 check sum: 42f43b795421b414b0dc916aa790dbcb
     Pseudo is Projector augmented-wave + core cor, Zval = 16.0
     Generated using "atomic" code by A. Dal Corso v.6.3
     Shape of augmentation charge: PSQ
     Using radial grid of 1191 points,  6 beta functions with: 
                l(1) =   0
                l(2) =   0
                l(3) =   1
                l(4) =   1
                l(5) =   2
                l(6) =   2
     Q(r) pseudized with 0 coefficients 


     PseudoPot. # 4 for Fe read from file:
     /rds/homes/b/bxp912/pp/Fe.pbe-spn-kjpaw_psl.1.0.0.UPF
     MD5 check sum: 42f43b795421b414b0dc916aa790dbcb
     Pseudo is Projector augmented-wave + core cor, Zval = 16.0
     Generated using "atomic" code by A. Dal Corso v.6.3
     Shape of augmentation charge: PSQ
     Using radial grid of 1191 points,  6 beta functions with: 
                l(1) =   0
                l(2) =   0
                l(3) =   1
                l(4) =   1
                l(5) =   2
                l(6) =   2
     Q(r) pseudized with 0 coefficients 


     atomic species   valence    mass     pseudopotential
        Fe1           16.00    55.84500     Fe( 1.00)
        Fe2           16.00    55.84500     Fe( 1.00)
        Fe3           16.00    55.84500     Fe( 1.00)
        Fe4           16.00    55.84500     Fe( 1.00)

     Starting magnetic structure 
     atomic species   magnetization
        Fe1          0.100
        Fe2         -0.100
        Fe3          0.100
        Fe4         -0.100

      8 Sym. Ops., with inversion, found



   Cartesian axes

     site n.     atom                  positions (alat units)
         1           Fe1 tau(   1) = (   0.0000000   0.0000000   0.0000000  )
         2           Fe2 tau(   2) = (   0.2499968   0.2662573   0.0000000  )
         3           Fe3 tau(   3) = (   0.2499981   0.0000000   0.2499947  )
         4           Fe4 tau(   4) = (   0.0000000   0.2662559   0.2500008  )
         5           Fe1 tau(   5) = (   0.0000000   0.0000000   0.4999935  )
         6           Fe2 tau(   6) = (   0.2499996   0.2662601   0.4999935  )
         7           Fe3 tau(   7) = (   0.2499981   0.0000000   0.7499912  )
         8           Fe4 tau(   8) = (   0.0000000   0.2662559   0.7499852  )
         9           Fe1 tau(   9) = (   0.0000000   0.5325093   0.0000000  )
        10           Fe2 tau(  10) = (   0.2499968   0.7987614   0.0000000  )
        11           Fe3 tau(  11) = (   0.2500004   0.5325093   0.2499987  )
        12           Fe4 tau(  12) = (   0.0000000   0.7987629   0.2500008  )
        13           Fe1 tau(  13) = (   0.0000000   0.5325093   0.4999935  )
        14           Fe2 tau(  14) = (   0.2499996   0.7987586   0.4999935  )
        15           Fe3 tau(  15) = (   0.2500004   0.5325093   0.7499882  )
        16           Fe4 tau(  16) = (   0.0000000   0.7987629   0.7499852  )
        17           Fe1 tau(  17) = (   0.4999998   0.0000000   0.0000000  )
        18           Fe2 tau(  18) = (   0.7500027   0.2662573   0.0000000  )
        19           Fe3 tau(  19) = (   0.7500015   0.0000000   0.2499947  )
        20           Fe4 tau(  20) = (   0.4999998   0.2662549   0.2499987  )
        21           Fe1 tau(  21) = (   0.4999998   0.0000000   0.4999935  )
        22           Fe2 tau(  22) = (   0.7499998   0.2662601   0.4999935  )
        23           Fe3 tau(  23) = (   0.7500015   0.0000000   0.7499912  )
        24           Fe4 tau(  24) = (   0.4999998   0.2662549   0.7499872  )
        25           Fe1 tau(  25) = (   0.4999998   0.5325093   0.0000000  )
        26           Fe2 tau(  26) = (   0.7500027   0.7987614   0.0000000  )
        27           Fe3 tau(  27) = (   0.7499992   0.5325093   0.2499987  )
        28           Fe4 tau(  28) = (   0.4999998   0.7987639   0.2499987  )
        29           Fe1 tau(  29) = (   0.4999998   0.5325093   0.4999935  )
        30           Fe2 tau(  30) = (   0.7499998   0.7987586   0.4999935  )
        31           Fe3 tau(  31) = (   0.7499992   0.5325093   0.7499882  )
        32           Fe4 tau(  32) = (   0.4999998   0.7987639   0.7499872  )

     number of k points=   125  Marzari-Vanderbilt smearing, width (Ry)=  0.0400

     Number of k-points >= 100: set verbosity='high' to print them.

     Dense  grid:   347459 G-vectors     FFT dimensions: (  90,  96,  90)

     Smooth grid:   186481 G-vectors     FFT dimensions: (  72,  75,  72)

     Estimated max dynamical RAM per process >     818.42 MB

     Estimated total dynamical RAM >      31.97 GB
     Generating pointlists ...
     new r_m :   0.1458 (alat units)  1.8869 (a.u.) for type    1
     new r_m :   0.1458 (alat units)  1.8869 (a.u.) for type    2
     new r_m :   0.1458 (alat units)  1.8869 (a.u.) for type    3
     new r_m :   0.1458 (alat units)  1.8869 (a.u.) for type    4

     Check: negative/imaginary core charge=   -0.000006    0.000000

     Initial potential from superposition of free atoms

     starting charge  511.98600, renormalised to  512.00000
     Starting wfcs are  320 randomized atomic wfcs
     Checking if some PAW data can be deallocated... 

     total cpu time spent up to now is       87.2 secs

     Self-consistent Calculation

     iteration #  1     ecut=    71.00 Ry     beta= 0.10
     Davidson diagonalization with overlap
     ethr =  1.00E-02,  avg # of iterations =  3.6

     Threshold (ethr) on eigenvalues was too large:
     Diagonalizing with lowered threshold

     Davidson diagonalization with overlap
     ethr =  3.09E-04,  avg # of iterations =  4.0

     total cpu time spent up to now is     1027.4 secs

     total energy              =  -10536.42337505 Ry
     Harris-Foulkes estimate   =  -10536.75668792 Ry
     estimated scf accuracy    <       1.83164184 Ry

     total magnetization       =     0.23 Bohr mag/cell
     absolute magnetization    =    45.00 Bohr mag/cell

     iteration #  2     ecut=    71.00 Ry     beta= 0.10
     Davidson diagonalization with overlap
     ethr =  3.58E-04,  avg # of iterations =  1.0

     total cpu time spent up to now is     1253.9 secs

     total energy              =  -10536.21388276 Ry
     Harris-Foulkes estimate   =  -10536.46837960 Ry
     estimated scf accuracy    <       1.09175459 Ry

     total magnetization       =    -0.11 Bohr mag/cell
     absolute magnetization    =    45.77 Bohr mag/cell

     iteration #  3     ecut=    71.00 Ry     beta= 0.10
     Davidson diagonalization with overlap
     ethr =  2.13E-04,  avg # of iterations =  2.3

     total cpu time spent up to now is     1572.6 secs

     total energy              =  -10536.07966373 Ry
     Harris-Foulkes estimate   =  -10536.34915812 Ry
     estimated scf accuracy    <       2.67474134 Ry

     total magnetization       =     0.21 Bohr mag/cell
     absolute magnetization    =    46.18 Bohr mag/cell

     iteration #  4     ecut=    71.00 Ry     beta= 0.10
     Davidson diagonalization with overlap
     ethr =  2.13E-04,  avg # of iterations =  2.5

     total cpu time spent up to now is     1898.2 secs

     total energy              =  -10536.18024656 Ry
     Harris-Foulkes estimate   =  -10536.21193405 Ry
     estimated scf accuracy    <       0.52888013 Ry

     total magnetization       =     0.34 Bohr mag/cell
     absolute magnetization    =    47.30 Bohr mag/cell

     iteration #  5     ecut=    71.00 Ry     beta= 0.10
     Davidson diagonalization with overlap
     ethr =  1.03E-04,  avg # of iterations =  1.3

     total cpu time spent up to now is     2147.6 secs

     total energy              =  -10536.19173830 Ry
     Harris-Foulkes estimate   =  -10536.19984504 Ry
     estimated scf accuracy    <       0.08576278 Ry

     total magnetization       =     0.02 Bohr mag/cell
     absolute magnetization    =    47.47 Bohr mag/cell

     iteration #  6     ecut=    71.00 Ry     beta= 0.10
     Davidson diagonalization with overlap
     ethr =  1.68E-05,  avg # of iterations =  3.1

     total cpu time spent up to now is     2511.6 secs

     total energy              =  -10536.18454400 Ry
     Harris-Foulkes estimate   =  -10536.19516545 Ry
     estimated scf accuracy    <       0.07348848 Ry

     total magnetization       =    -0.10 Bohr mag/cell
     absolute magnetization    =    47.46 Bohr mag/cell

     iteration #  7     ecut=    71.00 Ry     beta= 0.10
     Davidson diagonalization with overlap
     ethr =  1.44E-05,  avg # of iterations =  3.7

     total cpu time spent up to now is     3051.5 secs

     total energy              =  -10536.20266701 Ry
     Harris-Foulkes estimate   =  -10536.20227897 Ry
     estimated scf accuracy    <       0.10770616 Ry

     total magnetization       =     0.01 Bohr mag/cell
     absolute magnetization    =    47.71 Bohr mag/cell

     iteration #  8     ecut=    71.00 Ry     beta= 0.10
     Davidson diagonalization with overlap
     ethr =  1.44E-05,  avg # of iterations =  2.1

     total cpu time spent up to now is     3363.1 secs

     total energy              =  -10536.20337133 Ry
     Harris-Foulkes estimate   =  -10536.20752860 Ry
     estimated scf accuracy    <       0.07527882 Ry

     total magnetization       =     0.07 Bohr mag/cell
     absolute magnetization    =    48.01 Bohr mag/cell

     iteration #  9     ecut=    71.00 Ry     beta= 0.10
     Davidson diagonalization with overlap
     ethr =  1.44E-05,  avg # of iterations =  1.0

     total cpu time spent up to now is     3589.9 secs

     total energy              =  -10536.21451080 Ry
     Harris-Foulkes estimate   =  -10536.20499664 Ry
     estimated scf accuracy    <       0.04087656 Ry

     total magnetization       =     0.01 Bohr mag/cell
     absolute magnetization    =    48.22 Bohr mag/cell

     iteration # 10     ecut=    71.00 Ry     beta= 0.10
     Davidson diagonalization with overlap
     ethr =  7.98E-06,  avg # of iterations =  3.0

     total cpu time spent up to now is     3979.4 secs

     total energy              =  -10536.23993596 Ry
     Harris-Foulkes estimate   =  -10536.21799150 Ry
     estimated scf accuracy    <       0.03218596 Ry

     total magnetization       =    -0.08 Bohr mag/cell
     absolute magnetization    =    48.64 Bohr mag/cell

     iteration # 11     ecut=    71.00 Ry     beta= 0.10
     Davidson diagonalization with overlap
     ethr =  6.29E-06,  avg # of iterations =  3.4

     total cpu time spent up to now is     4480.8 secs

     total energy              =  -10536.25250530 Ry
     Harris-Foulkes estimate   =  -10536.25001544 Ry
     estimated scf accuracy    <       0.03033542 Ry

     total magnetization       =    -0.12 Bohr mag/cell
     absolute magnetization    =    49.56 Bohr mag/cell

     iteration # 12     ecut=    71.00 Ry     beta= 0.10
     Davidson diagonalization with overlap
     ethr =  5.92E-06,  avg # of iterations =  1.5

     total cpu time spent up to now is     4751.9 secs

     total energy              =  -10536.25398436 Ry
     Harris-Foulkes estimate   =  -10536.25432071 Ry
     estimated scf accuracy    <       0.01082090 Ry

     total magnetization       =    -0.04 Bohr mag/cell
     absolute magnetization    =    49.95 Bohr mag/cell

     iteration # 13     ecut=    71.00 Ry     beta= 0.10
     Davidson diagonalization with overlap
     ethr =  2.11E-06,  avg # of iterations =  3.1

     total cpu time spent up to now is     5141.4 secs

     total energy              =  -10536.25483852 Ry
     Harris-Foulkes estimate   =  -10536.25478214 Ry
     estimated scf accuracy    <       0.00264598 Ry

     total magnetization       =    -0.02 Bohr mag/cell
     absolute magnetization    =    50.13 Bohr mag/cell

     iteration # 14     ecut=    71.00 Ry     beta= 0.10
     Davidson diagonalization with overlap
     ethr =  5.17E-07,  avg # of iterations =  1.8

     total cpu time spent up to now is     5422.8 secs

     total energy              =  -10536.25492553 Ry
     Harris-Foulkes estimate   =  -10536.25490481 Ry
     estimated scf accuracy    <       0.00166696 Ry

     total magnetization       =    -0.02 Bohr mag/cell
     absolute magnetization    =    50.16 Bohr mag/cell

     iteration # 15     ecut=    71.00 Ry     beta= 0.10
     Davidson diagonalization with overlap
     ethr =  3.26E-07,  avg # of iterations =  1.9

     total cpu time spent up to now is     5711.7 secs

     total energy              =  -10536.25523828 Ry
     Harris-Foulkes estimate   =  -10536.25501479 Ry
     estimated scf accuracy    <       0.00108816 Ry

     total magnetization       =    -0.01 Bohr mag/cell
     absolute magnetization    =    50.27 Bohr mag/cell

     iteration # 16     ecut=    71.00 Ry     beta= 0.10
     Davidson diagonalization with overlap
     ethr =  2.13E-07,  avg # of iterations =  2.0

     total cpu time spent up to now is     6007.8 secs

     total energy              =  -10536.25524543 Ry
     Harris-Foulkes estimate   =  -10536.25531932 Ry
     estimated scf accuracy    <       0.00121506 Ry

     total magnetization       =     0.01 Bohr mag/cell
     absolute magnetization    =    50.41 Bohr mag/cell

     iteration # 17     ecut=    71.00 Ry     beta= 0.10
     Davidson diagonalization with overlap
     ethr =  2.13E-07,  avg # of iterations =  1.2

     total cpu time spent up to now is     6251.0 secs

     total energy              =  -10536.25545709 Ry
     Harris-Foulkes estimate   =  -10536.25531112 Ry
     estimated scf accuracy    <       0.00091224 Ry

     total magnetization       =    -0.03 Bohr mag/cell
     absolute magnetization    =    50.43 Bohr mag/cell

     iteration # 18     ecut=    71.00 Ry     beta= 0.10
     Davidson diagonalization with overlap
     ethr =  1.78E-07,  avg # of iterations =  1.5

     total cpu time spent up to now is     6518.3 secs

     total energy              =  -10536.25568890 Ry
     Harris-Foulkes estimate   =  -10536.25550424 Ry
     estimated scf accuracy    <       0.00060032 Ry

     total magnetization       =    -0.01 Bohr mag/cell
     absolute magnetization    =    50.53 Bohr mag/cell

     iteration # 19     ecut=    71.00 Ry     beta= 0.10
     Davidson diagonalization with overlap
     ethr =  1.17E-07,  avg # of iterations =  2.7

     total cpu time spent up to now is     6860.7 secs

     total energy              =  -10536.25589568 Ry
     Harris-Foulkes estimate   =  -10536.25573450 Ry
     estimated scf accuracy    <       0.00039918 Ry

     total magnetization       =    -0.01 Bohr mag/cell
     absolute magnetization    =    50.67 Bohr mag/cell

     iteration # 20     ecut=    71.00 Ry     beta= 0.10
     Davidson diagonalization with overlap
     ethr =  7.80E-08,  avg # of iterations =  3.1

     total cpu time spent up to now is     7254.3 secs

     total energy              =  -10536.25605060 Ry
     Harris-Foulkes estimate   =  -10536.25598291 Ry
     estimated scf accuracy    <       0.00037718 Ry

     total magnetization       =    -0.01 Bohr mag/cell
     absolute magnetization    =    50.88 Bohr mag/cell

     iteration # 21     ecut=    71.00 Ry     beta= 0.10
     Davidson diagonalization with overlap
     ethr =  7.37E-08,  avg # of iterations =  1.0

     total cpu time spent up to now is     7489.1 secs

     total energy              =  -10536.25610793 Ry
     Harris-Foulkes estimate   =  -10536.25607516 Ry
     estimated scf accuracy    <       0.00017475 Ry

     total magnetization       =    -0.01 Bohr mag/cell
     absolute magnetization    =    50.98 Bohr mag/cell

     iteration # 22     ecut=    71.00 Ry     beta= 0.10
     Davidson diagonalization with overlap
     ethr =  3.41E-08,  avg # of iterations =  2.8

     total cpu time spent up to now is     7839.9 secs

     total energy              =  -10536.25613750 Ry
     Harris-Foulkes estimate   =  -10536.25612445 Ry
     estimated scf accuracy    <       0.00012514 Ry

     total magnetization       =    -0.00 Bohr mag/cell
     absolute magnetization    =    51.07 Bohr mag/cell

     iteration # 23     ecut=    71.00 Ry     beta= 0.10
     Davidson diagonalization with overlap
     ethr =  2.44E-08,  avg # of iterations =  1.3

     total cpu time spent up to now is     8085.1 secs

     total energy              =  -10536.25615657 Ry
     Harris-Foulkes estimate   =  -10536.25614169 Ry
     estimated scf accuracy    <       0.00009976 Ry

     total magnetization       =    -0.00 Bohr mag/cell
     absolute magnetization    =    51.11 Bohr mag/cell

     iteration # 24     ecut=    71.00 Ry     beta= 0.10
     Davidson diagonalization with overlap
     ethr =  1.95E-08,  avg # of iterations =  2.2

     total cpu time spent up to now is     8403.8 secs

     total energy              =  -10536.25615250 Ry
     Harris-Foulkes estimate   =  -10536.25616354 Ry
     estimated scf accuracy    <       0.00010754 Ry

     total magnetization       =    -0.01 Bohr mag/cell
     absolute magnetization    =    51.16 Bohr mag/cell

     iteration # 25     ecut=    71.00 Ry     beta= 0.10
     Davidson diagonalization with overlap
     ethr =  1.95E-08,  avg # of iterations =  3.1

     total cpu time spent up to now is     8868.4 secs

     total energy              =  -10536.25619184 Ry
     Harris-Foulkes estimate   =  -10536.25619265 Ry
     estimated scf accuracy    <       0.00007629 Ry

     total magnetization       =    -0.00 Bohr mag/cell
     absolute magnetization    =    51.31 Bohr mag/cell

     iteration # 26     ecut=    71.00 Ry     beta= 0.10
     Davidson diagonalization with overlap
     ethr =  1.49E-08,  avg # of iterations =  1.0

     total cpu time spent up to now is     9099.1 secs

     total energy              =  -10536.25619837 Ry
     Harris-Foulkes estimate   =  -10536.25619581 Ry
     estimated scf accuracy    <       0.00002369 Ry

     total magnetization       =    -0.00 Bohr mag/cell
     absolute magnetization    =    51.34 Bohr mag/cell

     iteration # 27     ecut=    71.00 Ry     beta= 0.10
     Davidson diagonalization with overlap
     ethr =  4.63E-09,  avg # of iterations =  1.1

     total cpu time spent up to now is     9336.7 secs

     total energy              =  -10536.25620135 Ry
     Harris-Foulkes estimate   =  -10536.25619924 Ry
     estimated scf accuracy    <       0.00001970 Ry

     total magnetization       =    -0.00 Bohr mag/cell
     absolute magnetization    =    51.35 Bohr mag/cell

     iteration # 28     ecut=    71.00 Ry     beta= 0.10
     Davidson diagonalization with overlap
     ethr =  3.85E-09,  avg # of iterations =  1.0

     total cpu time spent up to now is     9567.5 secs

     total energy              =  -10536.25620626 Ry
     Harris-Foulkes estimate   =  -10536.25620217 Ry
     estimated scf accuracy    <       0.00001701 Ry

     total magnetization       =    -0.00 Bohr mag/cell
     absolute magnetization    =    51.36 Bohr mag/cell

     iteration # 29     ecut=    71.00 Ry     beta= 0.10
     Davidson diagonalization with overlap
     ethr =  3.32E-09,  avg # of iterations =  1.2

     total cpu time spent up to now is     9813.6 secs

     total energy              =  -10536.25621146 Ry
     Harris-Foulkes estimate   =  -10536.25620702 Ry
     estimated scf accuracy    <       0.00001032 Ry

     total magnetization       =    -0.00 Bohr mag/cell
     absolute magnetization    =    51.38 Bohr mag/cell

     iteration # 30     ecut=    71.00 Ry     beta= 0.10
     Davidson diagonalization with overlap
     ethr =  2.02E-09,  avg # of iterations =  2.9

     total cpu time spent up to now is    10216.0 secs

     total energy              =  -10536.25621481 Ry
     Harris-Foulkes estimate   =  -10536.25621271 Ry
     estimated scf accuracy    <       0.00000645 Ry

     total magnetization       =    -0.00 Bohr mag/cell
     absolute magnetization    =    51.40 Bohr mag/cell

     iteration # 31     ecut=    71.00 Ry     beta= 0.10
     Davidson diagonalization with overlap
     ethr =  1.26E-09,  avg # of iterations =  1.4

     total cpu time spent up to now is    10473.6 secs

     total energy              =  -10536.25621622 Ry
     Harris-Foulkes estimate   =  -10536.25621524 Ry
     estimated scf accuracy    <       0.00000392 Ry

     total magnetization       =    -0.00 Bohr mag/cell
     absolute magnetization    =    51.41 Bohr mag/cell

     iteration # 32     ecut=    71.00 Ry     beta= 0.10
     Davidson diagonalization with overlap
     ethr =  7.65E-10,  avg # of iterations =  2.6

     total cpu time spent up to now is    10814.9 secs

     total energy              =  -10536.25621692 Ry
     Harris-Foulkes estimate   =  -10536.25621648 Ry
     estimated scf accuracy    <       0.00000263 Ry

     total magnetization       =    -0.00 Bohr mag/cell
     absolute magnetization    =    51.42 Bohr mag/cell

     iteration # 33     ecut=    71.00 Ry     beta= 0.10
     Davidson diagonalization with overlap
     ethr =  5.14E-10,  avg # of iterations =  1.4

     total cpu time spent up to now is    11070.2 secs

     total energy              =  -10536.25621733 Ry
     Harris-Foulkes estimate   =  -10536.25621702 Ry
     estimated scf accuracy    <       0.00000183 Ry

     total magnetization       =    -0.00 Bohr mag/cell
     absolute magnetization    =    51.43 Bohr mag/cell

     iteration # 34     ecut=    71.00 Ry     beta= 0.10
     Davidson diagonalization with overlap
     ethr =  3.57E-10,  avg # of iterations =  2.8

     total cpu time spent up to now is    11428.4 secs

     total energy              =  -10536.25621767 Ry
     Harris-Foulkes estimate   =  -10536.25621757 Ry
     estimated scf accuracy    <       0.00000189 Ry

     total magnetization       =    -0.00 Bohr mag/cell
     absolute magnetization    =    51.44 Bohr mag/cell

     iteration # 35     ecut=    71.00 Ry     beta= 0.10
     Davidson diagonalization with overlap
     ethr =  3.57E-10,  avg # of iterations =  3.0
 
     Magnetic moment per site:
     atom:    1    charge:   14.3786    magn:    1.5472    constr:    0.0000
     atom:    2    charge:   14.3789    magn:   -1.5472    constr:    0.0000
     atom:    3    charge:   14.3780    magn:    1.5496    constr:    0.0000
     atom:    4    charge:   14.3789    magn:   -1.5509    constr:    0.0000
     atom:    5    charge:   14.3786    magn:    1.5479    constr:    0.0000
     atom:    6    charge:   14.3790    magn:   -1.5467    constr:    0.0000
     atom:    7    charge:   14.3780    magn:    1.5496    constr:    0.0000
     atom:    8    charge:   14.3789    magn:   -1.5509    constr:    0.0000
     atom:    9    charge:   14.3787    magn:    1.5480    constr:    0.0000
     atom:   10    charge:   14.3789    magn:   -1.5472    constr:    0.0000
     atom:   11    charge:   14.3783    magn:    1.5490    constr:    0.0000
     atom:   12    charge:   14.3789    magn:   -1.5509    constr:    0.0000
     atom:   13    charge:   14.3786    magn:    1.5485    constr:    0.0000
     atom:   14    charge:   14.3790    magn:   -1.5467    constr:    0.0000
     atom:   15    charge:   14.3783    magn:    1.5490    constr:    0.0000
     atom:   16    charge:   14.3789    magn:   -1.5509    constr:    0.0000
     atom:   17    charge:   14.3785    magn:    1.5484    constr:    0.0000
     atom:   18    charge:   14.3789    magn:   -1.5472    constr:    0.0000
     atom:   19    charge:   14.3780    magn:    1.5496    constr:    0.0000
     atom:   20    charge:   14.3789    magn:   -1.5500    constr:    0.0000
     atom:   21    charge:   14.3787    magn:    1.5486    constr:    0.0000
     atom:   22    charge:   14.3790    magn:   -1.5467    constr:    0.0000
     atom:   23    charge:   14.3780    magn:    1.5496    constr:    0.0000
     atom:   24    charge:   14.3789    magn:   -1.5500    constr:    0.0000
     atom:   25    charge:   14.3787    magn:    1.5476    constr:    0.0000
     atom:   26    charge:   14.3789    magn:   -1.5472    constr:    0.0000
     atom:   27    charge:   14.3783    magn:    1.5490    constr:    0.0000
     atom:   28    charge:   14.3789    magn:   -1.5500    constr:    0.0000
     atom:   29    charge:   14.3787    magn:    1.5476    constr:    0.0000
     atom:   30    charge:   14.3790    magn:   -1.5467    constr:    0.0000
     atom:   31    charge:   14.3783    magn:    1.5490    constr:    0.0000
     atom:   32    charge:   14.3789    magn:   -1.5500    constr:    0.0000

     total cpu time spent up to now is    11804.0 secs

     End of self-consistent calculation

     Number of k-points >= 100: set verbosity='high' to print the bands.

     the Fermi energy is    19.8884 ev

!    total energy              =  -10536.25621825 Ry
     Harris-Foulkes estimate   =  -10536.25621804 Ry
     estimated scf accuracy    <       0.00000045 Ry

     total all-electron energy =    -81457.745276 Ry

     The total energy is the sum of the following terms:

     one-electron contribution =   -3322.39684989 Ry
     hartree contribution      =    2007.35491938 Ry
     xc contribution           =    -886.84126463 Ry
     ewald contribution        =   -5684.83864718 Ry
     one-center paw contrib.   =   -2649.55484873 Ry
     smearing contrib. (-TS)   =       0.02047279 Ry

     total magnetization       =    -0.00 Bohr mag/cell
     absolute magnetization    =    51.45 Bohr mag/cell

     convergence has been achieved in  35 iterations

     Forces acting on atoms (cartesian axes, Ry/au):

     atom    1 type  1   force =     0.00000000    0.00000000    0.00000000
     atom    2 type  2   force =     0.00004738   -0.00000425    0.00000000
     atom    3 type  3   force =     0.00008640    0.00000000    0.00004617
     atom    4 type  4   force =     0.00000000   -0.00005628   -0.00011018
     atom    5 type  1   force =     0.00000000    0.00000000    0.00000000
     atom    6 type  2   force =     0.00001227   -0.00008342    0.00000000
     atom    7 type  3   force =     0.00008640   -0.00000000   -0.00004617
     atom    8 type  4   force =     0.00000000   -0.00005628    0.00011018
     atom    9 type  1   force =     0.00000000    0.00000000    0.00000000
     atom   10 type  2   force =     0.00004738    0.00000425    0.00000000
     atom   11 type  3   force =    -0.00001052    0.00000000   -0.00001975
     atom   12 type  4   force =     0.00000000    0.00005628   -0.00011018
     atom   13 type  1   force =     0.00000000    0.00000000    0.00000000
     atom   14 type  2   force =     0.00001227    0.00008342    0.00000000
     atom   15 type  3   force =    -0.00001052    0.00000000    0.00001975
     atom   16 type  4   force =     0.00000000    0.00005628    0.00011018
     atom   17 type  1   force =     0.00000000    0.00000000    0.00000000
     atom   18 type  2   force =    -0.00004738   -0.00000425    0.00000000
     atom   19 type  3   force =    -0.00008640   -0.00000000    0.00004617
     atom   20 type  4   force =     0.00000000    0.00005232   -0.00007358
     atom   21 type  1   force =     0.00000000    0.00000000    0.00000000
     atom   22 type  2   force =    -0.00001227   -0.00008342    0.00000000
     atom   23 type  3   force =    -0.00008640    0.00000000   -0.00004617
     atom   24 type  4   force =     0.00000000    0.00005232    0.00007358
     atom   25 type  1   force =     0.00000000    0.00000000    0.00000000
     atom   26 type  2   force =    -0.00004738    0.00000425    0.00000000
     atom   27 type  3   force =     0.00001052    0.00000000   -0.00001975
     atom   28 type  4   force =     0.00000000   -0.00005232   -0.00007358
     atom   29 type  1   force =     0.00000000    0.00000000    0.00000000
     atom   30 type  2   force =    -0.00001227    0.00008342    0.00000000
     atom   31 type  3   force =     0.00001052    0.00000000    0.00001975
     atom   32 type  4   force =     0.00000000   -0.00005232    0.00007358

     Total force =     0.000414     Total SCF correction =     0.002891
     SCF correction compared to forces is large: reduce conv_thr to get better values


     Computing stress (Cartesian axis) and pressure

          total   stress  (Ry/bohr**3)                   (kbar)     P=  -16.78
  -0.00007663   0.00000000   0.00000000        -11.27      0.00      0.00
   0.00000000  -0.00018900   0.00000000          0.00    -27.80      0.00
   0.00000000   0.00000000  -0.00007665          0.00      0.00    -11.28


     Writing output data file yhMQxhkLBcXnNbwn.save/
-------------------------------------------------------
Primary job  terminated normally, but 1 process returned
a non-zero exit code.. Per user-direction, the job has been aborted.
-------------------------------------------------------
--------------------------------------------------------------------------
mpirun detected that one or more processes exited with non-zero status, thus causing
the job to be terminated. The first process to do so was:

  Process name: [[5367,1],0]
  Exit code:    38
--------------------------------------------------------------------------
