--------------------------------------------------------------------------
WARNING: No preset parameters were found for the device that Open MPI
detected:

  Local host:            bear-pg0206u13b
  Device name:           mlx5_0
  Device vendor ID:      0x02c9
  Device vendor part ID: 4123

Default device parameters will be used, which may result in lower
performance.  You can edit any of the files specified by the
btl_openib_device_param_files MCA parameter to set values for your
device.

NOTE: You can turn off this warning by setting the MCA parameter
      btl_openib_warn_no_device_params_found to 0.
--------------------------------------------------------------------------
--------------------------------------------------------------------------
WARNING: There was an error initializing an OpenFabrics device.

  Local host:   bear-pg0206u13b
  Local device: mlx5_0
--------------------------------------------------------------------------

     Program PWSCF v.6.3 starts on 12Oct2020 at 11:24:29 

     This program is part of the open-source Quantum ESPRESSO suite
     for quantum simulation of materials; please cite
         "P. Giannozzi et al., J. Phys.:Condens. Matter 21 395502 (2009);
         "P. Giannozzi et al., J. Phys.:Condens. Matter 29 465901 (2017);
          URL http://www.quantum-espresso.org", 
     in publications or presentations arising from this work. More details at
     http://www.quantum-espresso.org/quote

     Parallel version (MPI & OpenMP), running on      40 processor cores
     Number of MPI processes:                40
     Threads/MPI process:                     1

     MPI processes distributed on     1 nodes
     R & G space division:  proc/nbgrp/npool/nimage =      40
     Reading input from wd/ec/ec_3_006.in
Warning: card &IONS ignored
Warning: card ION_DYNAMICS = 'BFGS', ignored
Warning: card / ignored
Warning: card &CELL ignored
Warning: card CELL_DYNAMICS = 'BFGS', ignored
Warning: card CELL_FACTOR = 2.0, ignored
Warning: card PRESS = 0.0, ignored
Warning: card / ignored

     Current dimensions of program PWSCF are:
     Max number of different atomic species (ntypx) = 10
     Max number of k-points (npk) =  40000
     Max angular momentum in pseudopotentials (lmaxx) =  3
               file Fe.pbe-spn-kjpaw_psl.1.0.0.UPF: wavefunction(s)  3P 3D renormalized
               file Fe.pbe-spn-kjpaw_psl.1.0.0.UPF: wavefunction(s)  3P 3D renormalized
               file Fe.pbe-spn-kjpaw_psl.1.0.0.UPF: wavefunction(s)  3P 3D renormalized
               file Fe.pbe-spn-kjpaw_psl.1.0.0.UPF: wavefunction(s)  3P 3D renormalized

     Subspace diagonalization in iterative solution of the eigenvalue problem:
     a serial algorithm will be used

     Found symmetry operation: I + (  0.0000  0.0000 -0.5000)
     This is a supercell, fractional translations are disabled
 
     Parallelization info
     --------------------
     sticks:   dense  smooth     PW     G-vecs:    dense   smooth      PW
     Min         150      99     27                 8664     4651     669
     Max         151     100     28                 8671     4656     672
     Sum        6035    3993   1103               346713   186137   26799
 


     bravais-lattice index     =            0
     lattice parameter (alat)  =      12.9382  a.u.
     unit-cell volume          =    2302.7907 (a.u.)^3
     number of atoms/cell      =           32
     number of atomic types    =            4
     number of electrons       =       512.00
     number of Kohn-Sham states=          307
     kinetic-energy cutoff     =      71.0000  Ry
     charge density cutoff     =     430.0000  Ry
     convergence threshold     =      1.0E-06
     mixing beta               =       0.1000
     number of iterations used =           10  plain     mixing
     Exchange-correlation      = SLA PW PBX PBC ( 1  4  3  4 0 0)

     celldm(1)=  12.938187  celldm(2)=   0.000000  celldm(3)=   0.000000
     celldm(4)=   0.000000  celldm(5)=   0.000000  celldm(6)=   0.000000

     crystal axes: (cart. coord. in units of alat)
               a(1) = (   1.000000   0.000000   0.000000 )  
               a(2) = (   0.000000   1.054474   0.000000 )  
               a(3) = (   0.000000   0.000000   1.008320 )  

     reciprocal axes: (cart. coord. in units 2 pi/alat)
               b(1) = (  1.000000  0.000000  0.000000 )  
               b(2) = (  0.000000  0.948340  0.000000 )  
               b(3) = (  0.000000  0.000000  0.991748 )  


     PseudoPot. # 1 for Fe read from file:
     /rds/homes/b/bxp912/pp/Fe.pbe-spn-kjpaw_psl.1.0.0.UPF
     MD5 check sum: 42f43b795421b414b0dc916aa790dbcb
     Pseudo is Projector augmented-wave + core cor, Zval = 16.0
     Generated using "atomic" code by A. Dal Corso v.6.3
     Shape of augmentation charge: PSQ
     Using radial grid of 1191 points,  6 beta functions with: 
                l(1) =   0
                l(2) =   0
                l(3) =   1
                l(4) =   1
                l(5) =   2
                l(6) =   2
     Q(r) pseudized with 0 coefficients 


     PseudoPot. # 2 for Fe read from file:
     /rds/homes/b/bxp912/pp/Fe.pbe-spn-kjpaw_psl.1.0.0.UPF
     MD5 check sum: 42f43b795421b414b0dc916aa790dbcb
     Pseudo is Projector augmented-wave + core cor, Zval = 16.0
     Generated using "atomic" code by A. Dal Corso v.6.3
     Shape of augmentation charge: PSQ
     Using radial grid of 1191 points,  6 beta functions with: 
                l(1) =   0
                l(2) =   0
                l(3) =   1
                l(4) =   1
                l(5) =   2
                l(6) =   2
     Q(r) pseudized with 0 coefficients 


     PseudoPot. # 3 for Fe read from file:
     /rds/homes/b/bxp912/pp/Fe.pbe-spn-kjpaw_psl.1.0.0.UPF
     MD5 check sum: 42f43b795421b414b0dc916aa790dbcb
     Pseudo is Projector augmented-wave + core cor, Zval = 16.0
     Generated using "atomic" code by A. Dal Corso v.6.3
     Shape of augmentation charge: PSQ
     Using radial grid of 1191 points,  6 beta functions with: 
                l(1) =   0
                l(2) =   0
                l(3) =   1
                l(4) =   1
                l(5) =   2
                l(6) =   2
     Q(r) pseudized with 0 coefficients 


     PseudoPot. # 4 for Fe read from file:
     /rds/homes/b/bxp912/pp/Fe.pbe-spn-kjpaw_psl.1.0.0.UPF
     MD5 check sum: 42f43b795421b414b0dc916aa790dbcb
     Pseudo is Projector augmented-wave + core cor, Zval = 16.0
     Generated using "atomic" code by A. Dal Corso v.6.3
     Shape of augmentation charge: PSQ
     Using radial grid of 1191 points,  6 beta functions with: 
                l(1) =   0
                l(2) =   0
                l(3) =   1
                l(4) =   1
                l(5) =   2
                l(6) =   2
     Q(r) pseudized with 0 coefficients 


     atomic species   valence    mass     pseudopotential
        Fe1           16.00    55.84500     Fe( 1.00)
        Fe2           16.00    55.84500     Fe( 1.00)
        Fe3           16.00    55.84500     Fe( 1.00)
        Fe4           16.00    55.84500     Fe( 1.00)

     Starting magnetic structure 
     atomic species   magnetization
        Fe1          0.100
        Fe2         -0.100
        Fe3          0.100
        Fe4         -0.100

      8 Sym. Ops., with inversion, found



   Cartesian axes

     site n.     atom                  positions (alat units)
         1           Fe1 tau(   1) = (   0.0000000   0.0000000   0.0000000  )
         2           Fe2 tau(   2) = (   0.2499968   0.2636211   0.0000000  )
         3           Fe3 tau(   3) = (   0.2499981   0.0000000   0.2520780  )
         4           Fe4 tau(   4) = (   0.0000000   0.2636197   0.2520841  )
         5           Fe1 tau(   5) = (   0.0000000   0.0000000   0.5041601  )
         6           Fe2 tau(   6) = (   0.2499996   0.2636239   0.5041601  )
         7           Fe3 tau(   7) = (   0.2499981   0.0000000   0.7562412  )
         8           Fe4 tau(   8) = (   0.0000000   0.2636197   0.7562351  )
         9           Fe1 tau(   9) = (   0.0000000   0.5272369   0.0000000  )
        10           Fe2 tau(  10) = (   0.2499968   0.7908529   0.0000000  )
        11           Fe3 tau(  11) = (   0.2500004   0.5272369   0.2520821  )
        12           Fe4 tau(  12) = (   0.0000000   0.7908543   0.2520841  )
        13           Fe1 tau(  13) = (   0.0000000   0.5272369   0.5041601  )
        14           Fe2 tau(  14) = (   0.2499996   0.7908501   0.5041601  )
        15           Fe3 tau(  15) = (   0.2500004   0.5272369   0.7562381  )
        16           Fe4 tau(  16) = (   0.0000000   0.7908543   0.7562351  )
        17           Fe1 tau(  17) = (   0.4999998   0.0000000   0.0000000  )
        18           Fe2 tau(  18) = (   0.7500027   0.2636211   0.0000000  )
        19           Fe3 tau(  19) = (   0.7500015   0.0000000   0.2520780  )
        20           Fe4 tau(  20) = (   0.4999998   0.2636187   0.2520821  )
        21           Fe1 tau(  21) = (   0.4999998   0.0000000   0.5041601  )
        22           Fe2 tau(  22) = (   0.7499998   0.2636239   0.5041601  )
        23           Fe3 tau(  23) = (   0.7500015   0.0000000   0.7562412  )
        24           Fe4 tau(  24) = (   0.4999998   0.2636187   0.7562371  )
        25           Fe1 tau(  25) = (   0.4999998   0.5272369   0.0000000  )
        26           Fe2 tau(  26) = (   0.7500027   0.7908529   0.0000000  )
        27           Fe3 tau(  27) = (   0.7499992   0.5272369   0.2520821  )
        28           Fe4 tau(  28) = (   0.4999998   0.7908553   0.2520821  )
        29           Fe1 tau(  29) = (   0.4999998   0.5272369   0.5041601  )
        30           Fe2 tau(  30) = (   0.7499998   0.7908501   0.5041601  )
        31           Fe3 tau(  31) = (   0.7499992   0.5272369   0.7562381  )
        32           Fe4 tau(  32) = (   0.4999998   0.7908553   0.7562371  )

     number of k points=   125  Marzari-Vanderbilt smearing, width (Ry)=  0.0400

     Number of k-points >= 100: set verbosity='high' to print them.

     Dense  grid:   346713 G-vectors     FFT dimensions: (  90,  96,  90)

     Smooth grid:   186137 G-vectors     FFT dimensions: (  72,  75,  72)

     Estimated max dynamical RAM per process >     817.17 MB

     Estimated total dynamical RAM >      31.92 GB
     Generating pointlists ...
     new r_m :   0.1464 (alat units)  1.8948 (a.u.) for type    1
     new r_m :   0.1464 (alat units)  1.8948 (a.u.) for type    2
     new r_m :   0.1464 (alat units)  1.8948 (a.u.) for type    3
     new r_m :   0.1464 (alat units)  1.8948 (a.u.) for type    4

     Check: negative/imaginary core charge=   -0.000006    0.000000

     Initial potential from superposition of free atoms

     starting charge  511.98600, renormalised to  512.00000
     Starting wfcs are  320 randomized atomic wfcs
     Checking if some PAW data can be deallocated... 

     total cpu time spent up to now is       84.9 secs

     Self-consistent Calculation

     iteration #  1     ecut=    71.00 Ry     beta= 0.10
     Davidson diagonalization with overlap
     ethr =  1.00E-02,  avg # of iterations =  3.6

     Threshold (ethr) on eigenvalues was too large:
     Diagonalizing with lowered threshold

     Davidson diagonalization with overlap
     ethr =  3.12E-04,  avg # of iterations =  4.0

     total cpu time spent up to now is     1038.9 secs

     total energy              =  -10536.43198949 Ry
     Harris-Foulkes estimate   =  -10536.76878039 Ry
     estimated scf accuracy    <       1.85026031 Ry

     total magnetization       =     0.24 Bohr mag/cell
     absolute magnetization    =    44.49 Bohr mag/cell

     iteration #  2     ecut=    71.00 Ry     beta= 0.10
     Davidson diagonalization with overlap
     ethr =  3.61E-04,  avg # of iterations =  1.1

     total cpu time spent up to now is     1268.4 secs

     total energy              =  -10536.21876064 Ry
     Harris-Foulkes estimate   =  -10536.47727962 Ry
     estimated scf accuracy    <       1.09990251 Ry

     total magnetization       =    -0.12 Bohr mag/cell
     absolute magnetization    =    45.23 Bohr mag/cell

     iteration #  3     ecut=    71.00 Ry     beta= 0.10
     Davidson diagonalization with overlap
     ethr =  2.15E-04,  avg # of iterations =  2.3

     total cpu time spent up to now is     1598.1 secs

     total energy              =  -10536.08419196 Ry
     Harris-Foulkes estimate   =  -10536.35527235 Ry
     estimated scf accuracy    <       2.67081070 Ry

     total magnetization       =     0.24 Bohr mag/cell
     absolute magnetization    =    45.62 Bohr mag/cell

     iteration #  4     ecut=    71.00 Ry     beta= 0.10
     Davidson diagonalization with overlap
     ethr =  2.15E-04,  avg # of iterations =  2.4

     total cpu time spent up to now is     1921.1 secs

     total energy              =  -10536.18489565 Ry
     Harris-Foulkes estimate   =  -10536.21661810 Ry
     estimated scf accuracy    <       0.52520729 Ry

     total magnetization       =     0.36 Bohr mag/cell
     absolute magnetization    =    46.66 Bohr mag/cell

     iteration #  5     ecut=    71.00 Ry     beta= 0.10
     Davidson diagonalization with overlap
     ethr =  1.03E-04,  avg # of iterations =  1.4

     total cpu time spent up to now is     2178.4 secs

     total energy              =  -10536.19578687 Ry
     Harris-Foulkes estimate   =  -10536.20446914 Ry
     estimated scf accuracy    <       0.08341615 Ry

     total magnetization       =     0.03 Bohr mag/cell
     absolute magnetization    =    46.81 Bohr mag/cell

     iteration #  6     ecut=    71.00 Ry     beta= 0.10
     Davidson diagonalization with overlap
     ethr =  1.63E-05,  avg # of iterations =  3.3

     total cpu time spent up to now is     2568.9 secs

     total energy              =  -10536.18699739 Ry
     Harris-Foulkes estimate   =  -10536.19918870 Ry
     estimated scf accuracy    <       0.06873562 Ry

     total magnetization       =    -0.11 Bohr mag/cell
     absolute magnetization    =    46.77 Bohr mag/cell

     iteration #  7     ecut=    71.00 Ry     beta= 0.10
     Davidson diagonalization with overlap
     ethr =  1.34E-05,  avg # of iterations =  3.7

     total cpu time spent up to now is     3128.9 secs

     total energy              =  -10536.20360859 Ry
     Harris-Foulkes estimate   =  -10536.20736265 Ry
     estimated scf accuracy    <       0.09609499 Ry

     total magnetization       =     0.04 Bohr mag/cell
     absolute magnetization    =    46.95 Bohr mag/cell

     iteration #  8     ecut=    71.00 Ry     beta= 0.10
     Davidson diagonalization with overlap
     ethr =  1.34E-05,  avg # of iterations =  2.0

     total cpu time spent up to now is     3444.9 secs

     total energy              =  -10536.20504228 Ry
     Harris-Foulkes estimate   =  -10536.20760482 Ry
     estimated scf accuracy    <       0.07090231 Ry

     total magnetization       =     0.06 Bohr mag/cell
     absolute magnetization    =    47.23 Bohr mag/cell

     iteration #  9     ecut=    71.00 Ry     beta= 0.10
     Davidson diagonalization with overlap
     ethr =  1.34E-05,  avg # of iterations =  1.0

     total cpu time spent up to now is     3673.7 secs

     total energy              =  -10536.21364069 Ry
     Harris-Foulkes estimate   =  -10536.20638701 Ry
     estimated scf accuracy    <       0.03843994 Ry

     total magnetization       =     0.02 Bohr mag/cell
     absolute magnetization    =    47.36 Bohr mag/cell

     iteration # 10     ecut=    71.00 Ry     beta= 0.10
     Davidson diagonalization with overlap
     ethr =  7.51E-06,  avg # of iterations =  2.2

     total cpu time spent up to now is     3989.2 secs

     total energy              =  -10536.23707674 Ry
     Harris-Foulkes estimate   =  -10536.21541666 Ry
     estimated scf accuracy    <       0.03270865 Ry

     total magnetization       =    -0.07 Bohr mag/cell
     absolute magnetization    =    47.62 Bohr mag/cell

     iteration # 11     ecut=    71.00 Ry     beta= 0.10
     Davidson diagonalization with overlap
     ethr =  6.39E-06,  avg # of iterations =  3.8

     total cpu time spent up to now is     4554.3 secs

     total energy              =  -10536.25180483 Ry
     Harris-Foulkes estimate   =  -10536.24868835 Ry
     estimated scf accuracy    <       0.03158341 Ry

     total magnetization       =    -0.13 Bohr mag/cell
     absolute magnetization    =    48.47 Bohr mag/cell

     iteration # 12     ecut=    71.00 Ry     beta= 0.10
     Davidson diagonalization with overlap
     ethr =  6.17E-06,  avg # of iterations =  1.0

     total cpu time spent up to now is     4787.4 secs

     total energy              =  -10536.25260432 Ry
     Harris-Foulkes estimate   =  -10536.25285635 Ry
     estimated scf accuracy    <       0.02095903 Ry

     total magnetization       =    -0.08 Bohr mag/cell
     absolute magnetization    =    48.68 Bohr mag/cell

     iteration # 13     ecut=    71.00 Ry     beta= 0.10
     Davidson diagonalization with overlap
     ethr =  4.09E-06,  avg # of iterations =  1.9

     total cpu time spent up to now is     5087.5 secs

     total energy              =  -10536.25379456 Ry
     Harris-Foulkes estimate   =  -10536.25376306 Ry
     estimated scf accuracy    <       0.00302194 Ry

     total magnetization       =    -0.01 Bohr mag/cell
     absolute magnetization    =    48.91 Bohr mag/cell

     iteration # 14     ecut=    71.00 Ry     beta= 0.10
     Davidson diagonalization with overlap
     ethr =  5.90E-07,  avg # of iterations =  3.2

     total cpu time spent up to now is     5498.1 secs

     total energy              =  -10536.25409531 Ry
     Harris-Foulkes estimate   =  -10536.25400580 Ry
     estimated scf accuracy    <       0.00129812 Ry

     total magnetization       =    -0.02 Bohr mag/cell
     absolute magnetization    =    48.98 Bohr mag/cell

     iteration # 15     ecut=    71.00 Ry     beta= 0.10
     Davidson diagonalization with overlap
     ethr =  2.54E-07,  avg # of iterations =  1.2

     total cpu time spent up to now is     5738.7 secs

     total energy              =  -10536.25429109 Ry
     Harris-Foulkes estimate   =  -10536.25413058 Ry
     estimated scf accuracy    <       0.00094026 Ry

     total magnetization       =    -0.01 Bohr mag/cell
     absolute magnetization    =    49.06 Bohr mag/cell

     iteration # 16     ecut=    71.00 Ry     beta= 0.10
     Davidson diagonalization with overlap
     ethr =  1.84E-07,  avg # of iterations =  1.8

     total cpu time spent up to now is     6029.8 secs

     total energy              =  -10536.25439619 Ry
     Harris-Foulkes estimate   =  -10536.25435476 Ry
     estimated scf accuracy    <       0.00084206 Ry

     total magnetization       =     0.00 Bohr mag/cell
     absolute magnetization    =    49.18 Bohr mag/cell

     iteration # 17     ecut=    71.00 Ry     beta= 0.10
     Davidson diagonalization with overlap
     ethr =  1.64E-07,  avg # of iterations =  1.3

     total cpu time spent up to now is     6282.5 secs

     total energy              =  -10536.25449131 Ry
     Harris-Foulkes estimate   =  -10536.25443828 Ry
     estimated scf accuracy    <       0.00065885 Ry

     total magnetization       =    -0.03 Bohr mag/cell
     absolute magnetization    =    49.24 Bohr mag/cell

     iteration # 18     ecut=    71.00 Ry     beta= 0.10
     Davidson diagonalization with overlap
     ethr =  1.29E-07,  avg # of iterations =  1.7

     total cpu time spent up to now is     6564.2 secs

     total energy              =  -10536.25462136 Ry
     Harris-Foulkes estimate   =  -10536.25451806 Ry
     estimated scf accuracy    <       0.00047037 Ry

     total magnetization       =    -0.01 Bohr mag/cell
     absolute magnetization    =    49.29 Bohr mag/cell

     iteration # 19     ecut=    71.00 Ry     beta= 0.10
     Davidson diagonalization with overlap
     ethr =  9.19E-08,  avg # of iterations =  1.8

     total cpu time spent up to now is     6848.2 secs

     total energy              =  -10536.25473166 Ry
     Harris-Foulkes estimate   =  -10536.25464091 Ry
     estimated scf accuracy    <       0.00041787 Ry

     total magnetization       =    -0.00 Bohr mag/cell
     absolute magnetization    =    49.36 Bohr mag/cell

     iteration # 20     ecut=    71.00 Ry     beta= 0.10
     Davidson diagonalization with overlap
     ethr =  8.16E-08,  avg # of iterations =  1.8

     total cpu time spent up to now is     7141.6 secs

     total energy              =  -10536.25489440 Ry
     Harris-Foulkes estimate   =  -10536.25474963 Ry
     estimated scf accuracy    <       0.00040514 Ry

     total magnetization       =    -0.01 Bohr mag/cell
     absolute magnetization    =    49.42 Bohr mag/cell

     iteration # 21     ecut=    71.00 Ry     beta= 0.10
     Davidson diagonalization with overlap
     ethr =  7.91E-08,  avg # of iterations =  3.0

     total cpu time spent up to now is     7524.9 secs

     total energy              =  -10536.25496515 Ry
     Harris-Foulkes estimate   =  -10536.25496187 Ry
     estimated scf accuracy    <       0.00044026 Ry

     total magnetization       =    -0.01 Bohr mag/cell
     absolute magnetization    =    49.62 Bohr mag/cell

     iteration # 22     ecut=    71.00 Ry     beta= 0.10
     Davidson diagonalization with overlap
     ethr =  7.91E-08,  avg # of iterations =  1.0

     total cpu time spent up to now is     7757.1 secs

     total energy              =  -10536.25503809 Ry
     Harris-Foulkes estimate   =  -10536.25498698 Ry
     estimated scf accuracy    <       0.00015367 Ry

     total magnetization       =    -0.01 Bohr mag/cell
     absolute magnetization    =    49.68 Bohr mag/cell

     iteration # 23     ecut=    71.00 Ry     beta= 0.10
     Davidson diagonalization with overlap
     ethr =  3.00E-08,  avg # of iterations =  2.4

     total cpu time spent up to now is     8098.9 secs

     total energy              =  -10536.25507016 Ry
     Harris-Foulkes estimate   =  -10536.25505404 Ry
     estimated scf accuracy    <       0.00010217 Ry

     total magnetization       =    -0.01 Bohr mag/cell
     absolute magnetization    =    49.76 Bohr mag/cell

     iteration # 24     ecut=    71.00 Ry     beta= 0.10
     Davidson diagonalization with overlap
     ethr =  2.00E-08,  avg # of iterations =  2.0

     total cpu time spent up to now is     8398.4 secs

     total energy              =  -10536.25507917 Ry
     Harris-Foulkes estimate   =  -10536.25507542 Ry
     estimated scf accuracy    <       0.00008381 Ry

     total magnetization       =    -0.00 Bohr mag/cell
     absolute magnetization    =    49.81 Bohr mag/cell

     iteration # 25     ecut=    71.00 Ry     beta= 0.10
     Davidson diagonalization with overlap
     ethr =  1.64E-08,  avg # of iterations =  3.4

     total cpu time spent up to now is     8864.9 secs

     total energy              =  -10536.25509469 Ry
     Harris-Foulkes estimate   =  -10536.25511053 Ry
     estimated scf accuracy    <       0.00011715 Ry

     total magnetization       =    -0.00 Bohr mag/cell
     absolute magnetization    =    49.95 Bohr mag/cell

     iteration # 26     ecut=    71.00 Ry     beta= 0.10
     Davidson diagonalization with overlap
     ethr =  1.64E-08,  avg # of iterations =  1.6

     total cpu time spent up to now is     9126.0 secs

     total energy              =  -10536.25510085 Ry
     Harris-Foulkes estimate   =  -10536.25510289 Ry
     estimated scf accuracy    <       0.00007806 Ry

     total magnetization       =    -0.01 Bohr mag/cell
     absolute magnetization    =    49.93 Bohr mag/cell

     iteration # 27     ecut=    71.00 Ry     beta= 0.10
     Davidson diagonalization with overlap
     ethr =  1.52E-08,  avg # of iterations =  1.5

     total cpu time spent up to now is     9386.7 secs

     total energy              =  -10536.25512277 Ry
     Harris-Foulkes estimate   =  -10536.25510934 Ry
     estimated scf accuracy    <       0.00002976 Ry

     total magnetization       =    -0.00 Bohr mag/cell
     absolute magnetization    =    50.00 Bohr mag/cell

     iteration # 28     ecut=    71.00 Ry     beta= 0.10
     Davidson diagonalization with overlap
     ethr =  5.81E-09,  avg # of iterations =  2.7

     total cpu time spent up to now is     9773.5 secs

     total energy              =  -10536.25513101 Ry
     Harris-Foulkes estimate   =  -10536.25512664 Ry
     estimated scf accuracy    <       0.00002026 Ry

     total magnetization       =    -0.00 Bohr mag/cell
     absolute magnetization    =    50.04 Bohr mag/cell

     iteration # 29     ecut=    71.00 Ry     beta= 0.10
     Davidson diagonalization with overlap
     ethr =  3.96E-09,  avg # of iterations =  2.2

     total cpu time spent up to now is    10098.2 secs

     total energy              =  -10536.25513484 Ry
     Harris-Foulkes estimate   =  -10536.25513325 Ry
     estimated scf accuracy    <       0.00001019 Ry

     total magnetization       =    -0.00 Bohr mag/cell
     absolute magnetization    =    50.06 Bohr mag/cell

     iteration # 30     ecut=    71.00 Ry     beta= 0.10
     Davidson diagonalization with overlap
     ethr =  1.99E-09,  avg # of iterations =  2.5

     total cpu time spent up to now is    10432.0 secs

     total energy              =  -10536.25513649 Ry
     Harris-Foulkes estimate   =  -10536.25513535 Ry
     estimated scf accuracy    <       0.00000925 Ry

     total magnetization       =    -0.00 Bohr mag/cell
     absolute magnetization    =    50.08 Bohr mag/cell

     iteration # 31     ecut=    71.00 Ry     beta= 0.10
     Davidson diagonalization with overlap
     ethr =  1.81E-09,  avg # of iterations =  1.9

     total cpu time spent up to now is    10737.2 secs

     total energy              =  -10536.25513800 Ry
     Harris-Foulkes estimate   =  -10536.25513698 Ry
     estimated scf accuracy    <       0.00000638 Ry

     total magnetization       =    -0.00 Bohr mag/cell
     absolute magnetization    =    50.09 Bohr mag/cell

     iteration # 32     ecut=    71.00 Ry     beta= 0.10
     Davidson diagonalization with overlap
     ethr =  1.25E-09,  avg # of iterations =  2.6

     total cpu time spent up to now is    11078.5 secs

     total energy              =  -10536.25513989 Ry
     Harris-Foulkes estimate   =  -10536.25513871 Ry
     estimated scf accuracy    <       0.00001360 Ry

     total magnetization       =    -0.00 Bohr mag/cell
     absolute magnetization    =    50.11 Bohr mag/cell

     iteration # 33     ecut=    71.00 Ry     beta= 0.10
     Davidson diagonalization with overlap
     ethr =  1.25E-09,  avg # of iterations =  2.9

     total cpu time spent up to now is    11450.8 secs

     total energy              =  -10536.25514211 Ry
     Harris-Foulkes estimate   =  -10536.25514115 Ry
     estimated scf accuracy    <       0.00000351 Ry

     total magnetization       =    -0.00 Bohr mag/cell
     absolute magnetization    =    50.11 Bohr mag/cell

     iteration # 34     ecut=    71.00 Ry     beta= 0.10
     Davidson diagonalization with overlap
     ethr =  6.85E-10,  avg # of iterations =  3.0

     total cpu time spent up to now is    11872.6 secs

     total energy              =  -10536.25514326 Ry
     Harris-Foulkes estimate   =  -10536.25514303 Ry
     estimated scf accuracy    <       0.00000103 Ry

     total magnetization       =    -0.00 Bohr mag/cell
     absolute magnetization    =    50.14 Bohr mag/cell

     iteration # 35     ecut=    71.00 Ry     beta= 0.10
     Davidson diagonalization with overlap
     ethr =  2.02E-10,  avg # of iterations =  1.8
 
     Magnetic moment per site:
     atom:    1    charge:   14.4065    magn:    1.5097    constr:    0.0000
     atom:    2    charge:   14.4067    magn:   -1.5095    constr:    0.0000
     atom:    3    charge:   14.4061    magn:    1.5122    constr:    0.0000
     atom:    4    charge:   14.4066    magn:   -1.5138    constr:    0.0000
     atom:    5    charge:   14.4063    magn:    1.5104    constr:    0.0000
     atom:    6    charge:   14.4068    magn:   -1.5088    constr:    0.0000
     atom:    7    charge:   14.4061    magn:    1.5122    constr:    0.0000
     atom:    8    charge:   14.4066    magn:   -1.5138    constr:    0.0000
     atom:    9    charge:   14.4064    magn:    1.5105    constr:    0.0000
     atom:   10    charge:   14.4067    magn:   -1.5095    constr:    0.0000
     atom:   11    charge:   14.4061    magn:    1.5117    constr:    0.0000
     atom:   12    charge:   14.4066    magn:   -1.5138    constr:    0.0000
     atom:   13    charge:   14.4065    magn:    1.5110    constr:    0.0000
     atom:   14    charge:   14.4068    magn:   -1.5088    constr:    0.0000
     atom:   15    charge:   14.4061    magn:    1.5117    constr:    0.0000
     atom:   16    charge:   14.4066    magn:   -1.5138    constr:    0.0000
     atom:   17    charge:   14.4064    magn:    1.5109    constr:    0.0000
     atom:   18    charge:   14.4067    magn:   -1.5095    constr:    0.0000
     atom:   19    charge:   14.4061    magn:    1.5122    constr:    0.0000
     atom:   20    charge:   14.4066    magn:   -1.5129    constr:    0.0000
     atom:   21    charge:   14.4065    magn:    1.5112    constr:    0.0000
     atom:   22    charge:   14.4068    magn:   -1.5088    constr:    0.0000
     atom:   23    charge:   14.4061    magn:    1.5122    constr:    0.0000
     atom:   24    charge:   14.4066    magn:   -1.5129    constr:    0.0000
     atom:   25    charge:   14.4065    magn:    1.5098    constr:    0.0000
     atom:   26    charge:   14.4067    magn:   -1.5095    constr:    0.0000
     atom:   27    charge:   14.4061    magn:    1.5117    constr:    0.0000
     atom:   28    charge:   14.4066    magn:   -1.5129    constr:    0.0000
     atom:   29    charge:   14.4066    magn:    1.5098    constr:    0.0000
     atom:   30    charge:   14.4068    magn:   -1.5088    constr:    0.0000
     atom:   31    charge:   14.4061    magn:    1.5117    constr:    0.0000
     atom:   32    charge:   14.4066    magn:   -1.5129    constr:    0.0000

     total cpu time spent up to now is    12158.9 secs

     End of self-consistent calculation

     Number of k-points >= 100: set verbosity='high' to print the bands.

     the Fermi energy is    19.9277 ev

!    total energy              =  -10536.25514364 Ry
     Harris-Foulkes estimate   =  -10536.25514333 Ry
     estimated scf accuracy    <       0.00000051 Ry

     total all-electron energy =    -81457.744202 Ry

     The total energy is the sum of the following terms:

     one-electron contribution =   -3317.02648313 Ry
     hartree contribution      =    2005.27228304 Ry
     xc contribution           =    -886.76778511 Ry
     ewald contribution        =   -5688.18418572 Ry
     one-center paw contrib.   =   -2649.55861866 Ry
     smearing contrib. (-TS)   =       0.00964595 Ry

     total magnetization       =    -0.00 Bohr mag/cell
     absolute magnetization    =    50.14 Bohr mag/cell

     convergence has been achieved in  35 iterations

     Forces acting on atoms (cartesian axes, Ry/au):

     atom    1 type  1   force =     0.00000000    0.00000000    0.00000000
     atom    2 type  2   force =     0.00004604   -0.00001604    0.00000000
     atom    3 type  3   force =     0.00006614    0.00000000    0.00005455
     atom    4 type  4   force =     0.00000000   -0.00004365   -0.00007854
     atom    5 type  1   force =     0.00000000    0.00000000    0.00000000
     atom    6 type  2   force =     0.00001350   -0.00007616    0.00000000
     atom    7 type  3   force =     0.00006614    0.00000000   -0.00005455
     atom    8 type  4   force =     0.00000000   -0.00004365    0.00007854
     atom    9 type  1   force =     0.00000000    0.00000000    0.00000000
     atom   10 type  2   force =     0.00004604    0.00001604    0.00000000
     atom   11 type  3   force =     0.00000745    0.00000000   -0.00000187
     atom   12 type  4   force =     0.00000000    0.00004365   -0.00007854
     atom   13 type  1   force =     0.00000000    0.00000000    0.00000000
     atom   14 type  2   force =     0.00001350    0.00007616    0.00000000
     atom   15 type  3   force =     0.00000745   -0.00000000    0.00000187
     atom   16 type  4   force =     0.00000000    0.00004365    0.00007854
     atom   17 type  1   force =     0.00000000    0.00000000    0.00000000
     atom   18 type  2   force =    -0.00004604   -0.00001604    0.00000000
     atom   19 type  3   force =    -0.00006614    0.00000000    0.00005455
     atom   20 type  4   force =     0.00000000    0.00004424   -0.00005007
     atom   21 type  1   force =     0.00000000    0.00000000    0.00000000
     atom   22 type  2   force =    -0.00001350   -0.00007616    0.00000000
     atom   23 type  3   force =    -0.00006614    0.00000000   -0.00005455
     atom   24 type  4   force =     0.00000000    0.00004424    0.00005007
     atom   25 type  1   force =     0.00000000    0.00000000    0.00000000
     atom   26 type  2   force =    -0.00004604    0.00001604    0.00000000
     atom   27 type  3   force =    -0.00000745   -0.00000000   -0.00000187
     atom   28 type  4   force =     0.00000000   -0.00004424   -0.00005007
     atom   29 type  1   force =     0.00000000    0.00000000    0.00000000
     atom   30 type  2   force =    -0.00001350    0.00007616    0.00000000
     atom   31 type  3   force =    -0.00000745    0.00000000    0.00000187
     atom   32 type  4   force =     0.00000000   -0.00004424    0.00005007

     Total force =     0.000336     Total SCF correction =     0.003124
     SCF correction compared to forces is large: reduce conv_thr to get better values


     Computing stress (Cartesian axis) and pressure

          total   stress  (Ry/bohr**3)                   (kbar)     P=  -20.09
  -0.00013362   0.00000000   0.00000000        -19.66      0.00      0.00
   0.00000000  -0.00007232   0.00000000          0.00    -10.64      0.00
   0.00000000   0.00000000  -0.00020378          0.00      0.00    -29.98


     Writing output data file EXtVCgdKRcBQIOza.save/
-------------------------------------------------------
Primary job  terminated normally, but 1 process returned
a non-zero exit code.. Per user-direction, the job has been aborted.
-------------------------------------------------------
--------------------------------------------------------------------------
mpirun detected that one or more processes exited with non-zero status, thus causing
the job to be terminated. The first process to do so was:

  Process name: [[34491,1],0]
  Exit code:    38
--------------------------------------------------------------------------
