--------------------------------------------------------------------------
WARNING: No preset parameters were found for the device that Open MPI
detected:

  Local host:            bear-pg0206u13b
  Device name:           mlx5_0
  Device vendor ID:      0x02c9
  Device vendor part ID: 4123

Default device parameters will be used, which may result in lower
performance.  You can edit any of the files specified by the
btl_openib_device_param_files MCA parameter to set values for your
device.

NOTE: You can turn off this warning by setting the MCA parameter
      btl_openib_warn_no_device_params_found to 0.
--------------------------------------------------------------------------
--------------------------------------------------------------------------
WARNING: There was an error initializing an OpenFabrics device.

  Local host:   bear-pg0206u13b
  Local device: mlx5_0
--------------------------------------------------------------------------

     Program PWSCF v.6.3 starts on 14Oct2020 at 18:45:16 

     This program is part of the open-source Quantum ESPRESSO suite
     for quantum simulation of materials; please cite
         "P. Giannozzi et al., J. Phys.:Condens. Matter 21 395502 (2009);
         "P. Giannozzi et al., J. Phys.:Condens. Matter 29 465901 (2017);
          URL http://www.quantum-espresso.org", 
     in publications or presentations arising from this work. More details at
     http://www.quantum-espresso.org/quote

     Parallel version (MPI & OpenMP), running on      40 processor cores
     Number of MPI processes:                40
     Threads/MPI process:                     1

     MPI processes distributed on     1 nodes
     R & G space division:  proc/nbgrp/npool/nimage =      40
     Reading input from wd/ec/ec_5_004.in
Warning: card &IONS ignored
Warning: card ION_DYNAMICS = 'BFGS', ignored
Warning: card / ignored
Warning: card &CELL ignored
Warning: card CELL_DYNAMICS = 'BFGS', ignored
Warning: card CELL_FACTOR = 2.0, ignored
Warning: card PRESS = 0.0, ignored
Warning: card / ignored

     Current dimensions of program PWSCF are:
     Max number of different atomic species (ntypx) = 10
     Max number of k-points (npk) =  40000
     Max angular momentum in pseudopotentials (lmaxx) =  3
               file Fe.pbe-spn-kjpaw_psl.1.0.0.UPF: wavefunction(s)  3P 3D renormalized
               file Fe.pbe-spn-kjpaw_psl.1.0.0.UPF: wavefunction(s)  3P 3D renormalized
               file Fe.pbe-spn-kjpaw_psl.1.0.0.UPF: wavefunction(s)  3P 3D renormalized
               file Fe.pbe-spn-kjpaw_psl.1.0.0.UPF: wavefunction(s)  3P 3D renormalized

     Subspace diagonalization in iterative solution of the eigenvalue problem:
     a serial algorithm will be used

     Found symmetry operation: I + ( -0.0000  0.0000 -0.5000)
     This is a supercell, fractional translations are disabled
 
     Parallelization info
     --------------------
     sticks:   dense  smooth     PW     G-vecs:    dense   smooth      PW
     Min         150      99     27                 8593     4612     664
     Max         151     100     28                 8599     4618     668
     Sum        6035    3993   1103               343835   184605   26635
 


     bravais-lattice index     =            0
     lattice parameter (alat)  =      12.9382  a.u.
     unit-cell volume          =    2283.7593 (a.u.)^3
     number of atoms/cell      =           32
     number of atomic types    =            4
     number of electrons       =       512.00
     number of Kohn-Sham states=          307
     kinetic-energy cutoff     =      71.0000  Ry
     charge density cutoff     =     430.0000  Ry
     convergence threshold     =      1.0E-06
     mixing beta               =       0.1000
     number of iterations used =           10  plain     mixing
     Exchange-correlation      = SLA PW PBX PBC ( 1  4  3  4 0 0)

     celldm(1)=  12.938187  celldm(2)=   0.000000  celldm(3)=   0.000000
     celldm(4)=   0.000000  celldm(5)=   0.000000  celldm(6)=   0.000000

     crystal axes: (cart. coord. in units of alat)
               a(1) = (   1.000008   0.000000   0.005000 )  
               a(2) = (   0.000000   1.054482   0.000000 )  
               a(3) = (   0.005000   0.000000   0.999995 )  

     reciprocal axes: (cart. coord. in units 2 pi/alat)
               b(1) = (  1.000017  0.000000 -0.005000 )  
               b(2) = (  0.000000  0.948332  0.000000 )  
               b(3) = ( -0.005000  0.000000  1.000030 )  


     PseudoPot. # 1 for Fe read from file:
     /rds/homes/b/bxp912/pp/Fe.pbe-spn-kjpaw_psl.1.0.0.UPF
     MD5 check sum: 42f43b795421b414b0dc916aa790dbcb
     Pseudo is Projector augmented-wave + core cor, Zval = 16.0
     Generated using "atomic" code by A. Dal Corso v.6.3
     Shape of augmentation charge: PSQ
     Using radial grid of 1191 points,  6 beta functions with: 
                l(1) =   0
                l(2) =   0
                l(3) =   1
                l(4) =   1
                l(5) =   2
                l(6) =   2
     Q(r) pseudized with 0 coefficients 


     PseudoPot. # 2 for Fe read from file:
     /rds/homes/b/bxp912/pp/Fe.pbe-spn-kjpaw_psl.1.0.0.UPF
     MD5 check sum: 42f43b795421b414b0dc916aa790dbcb
     Pseudo is Projector augmented-wave + core cor, Zval = 16.0
     Generated using "atomic" code by A. Dal Corso v.6.3
     Shape of augmentation charge: PSQ
     Using radial grid of 1191 points,  6 beta functions with: 
                l(1) =   0
                l(2) =   0
                l(3) =   1
                l(4) =   1
                l(5) =   2
                l(6) =   2
     Q(r) pseudized with 0 coefficients 


     PseudoPot. # 3 for Fe read from file:
     /rds/homes/b/bxp912/pp/Fe.pbe-spn-kjpaw_psl.1.0.0.UPF
     MD5 check sum: 42f43b795421b414b0dc916aa790dbcb
     Pseudo is Projector augmented-wave + core cor, Zval = 16.0
     Generated using "atomic" code by A. Dal Corso v.6.3
     Shape of augmentation charge: PSQ
     Using radial grid of 1191 points,  6 beta functions with: 
                l(1) =   0
                l(2) =   0
                l(3) =   1
                l(4) =   1
                l(5) =   2
                l(6) =   2
     Q(r) pseudized with 0 coefficients 


     PseudoPot. # 4 for Fe read from file:
     /rds/homes/b/bxp912/pp/Fe.pbe-spn-kjpaw_psl.1.0.0.UPF
     MD5 check sum: 42f43b795421b414b0dc916aa790dbcb
     Pseudo is Projector augmented-wave + core cor, Zval = 16.0
     Generated using "atomic" code by A. Dal Corso v.6.3
     Shape of augmentation charge: PSQ
     Using radial grid of 1191 points,  6 beta functions with: 
                l(1) =   0
                l(2) =   0
                l(3) =   1
                l(4) =   1
                l(5) =   2
                l(6) =   2
     Q(r) pseudized with 0 coefficients 


     atomic species   valence    mass     pseudopotential
        Fe1           16.00    55.84500     Fe( 1.00)
        Fe2           16.00    55.84500     Fe( 1.00)
        Fe3           16.00    55.84500     Fe( 1.00)
        Fe4           16.00    55.84500     Fe( 1.00)

     Starting magnetic structure 
     atomic species   magnetization
        Fe1          0.100
        Fe2         -0.100
        Fe3          0.100
        Fe4         -0.100

      4 Sym. Ops., with inversion, found



   Cartesian axes

     site n.     atom                  positions (alat units)
         1           Fe1 tau(   1) = (   0.0000000   0.0000000   0.0000000  )
         2           Fe2 tau(   2) = (   0.2499989   0.2636233   0.0012500  )
         3           Fe3 tau(   3) = (   0.2512502   0.0000000   0.2512468  )
         4           Fe4 tau(   4) = (   0.0012500   0.2636219   0.2500028  )
         5           Fe1 tau(   5) = (   0.0025000   0.0000000   0.4999977  )
         6           Fe2 tau(   6) = (   0.2525018   0.2636261   0.5012476  )
         7           Fe3 tau(   7) = (   0.2537503   0.0000000   0.7512475  )
         8           Fe4 tau(   8) = (   0.0037500   0.2636219   0.7499915  )
         9           Fe1 tau(   9) = (   0.0000000   0.5272413   0.0000000  )
        10           Fe2 tau(  10) = (   0.2499989   0.7908595   0.0012500  )
        11           Fe3 tau(  11) = (   0.2512525   0.5272413   0.2512508  )
        12           Fe4 tau(  12) = (   0.0012500   0.7908609   0.2500028  )
        13           Fe1 tau(  13) = (   0.0025000   0.5272413   0.4999977  )
        14           Fe2 tau(  14) = (   0.2525018   0.7908567   0.5012476  )
        15           Fe3 tau(  15) = (   0.2537525   0.5272413   0.7512445  )
        16           Fe4 tau(  16) = (   0.0037500   0.7908609   0.7499915  )
        17           Fe1 tau(  17) = (   0.5000040   0.0000000   0.0025000  )
        18           Fe2 tau(  18) = (   0.7500089   0.2636233   0.0037500  )
        19           Fe3 tau(  19) = (   0.7512577   0.0000000   0.2537468  )
        20           Fe4 tau(  20) = (   0.5012540   0.2636209   0.2525008  )
        21           Fe1 tau(  21) = (   0.5025040   0.0000000   0.5024976  )
        22           Fe2 tau(  22) = (   0.7525061   0.2636261   0.5037476  )
        23           Fe3 tau(  23) = (   0.7537577   0.0000000   0.7537475  )
        24           Fe4 tau(  24) = (   0.5037540   0.2636209   0.7524935  )
        25           Fe1 tau(  25) = (   0.5000040   0.5272413   0.0025000  )
        26           Fe2 tau(  26) = (   0.7500089   0.7908595   0.0037500  )
        27           Fe3 tau(  27) = (   0.7512555   0.5272413   0.2537508  )
        28           Fe4 tau(  28) = (   0.5012540   0.7908619   0.2525008  )
        29           Fe1 tau(  29) = (   0.5025040   0.5272413   0.5024976  )
        30           Fe2 tau(  30) = (   0.7525061   0.7908567   0.5037476  )
        31           Fe3 tau(  31) = (   0.7537555   0.5272413   0.7537445  )
        32           Fe4 tau(  32) = (   0.5037540   0.7908619   0.7524935  )

     number of k points=   205  Marzari-Vanderbilt smearing, width (Ry)=  0.0400

     Number of k-points >= 100: set verbosity='high' to print them.

     Dense  grid:   343835 G-vectors     FFT dimensions: (  90,  96,  90)

     Smooth grid:   184605 G-vectors     FFT dimensions: (  72,  75,  72)

     Estimated max dynamical RAM per process >       1.21 GB

     Estimated total dynamical RAM >      48.54 GB
     Generating pointlists ...
     new r_m :   0.1451 (alat units)  1.8775 (a.u.) for type    1
     new r_m :   0.1451 (alat units)  1.8775 (a.u.) for type    2
     new r_m :   0.1451 (alat units)  1.8775 (a.u.) for type    3
     new r_m :   0.1451 (alat units)  1.8775 (a.u.) for type    4

     Check: negative/imaginary core charge=   -0.000006    0.000000

     Initial potential from superposition of free atoms

     starting charge  511.98600, renormalised to  512.00000
     Starting wfcs are  320 randomized atomic wfcs
     Checking if some PAW data can be deallocated... 

     total cpu time spent up to now is      137.3 secs

     Self-consistent Calculation

     iteration #  1     ecut=    71.00 Ry     beta= 0.10
     Davidson diagonalization with overlap
     ethr =  1.00E-02,  avg # of iterations =  3.7

     Threshold (ethr) on eigenvalues was too large:
     Diagonalizing with lowered threshold

     Davidson diagonalization with overlap
     ethr =  4.42E-04,  avg # of iterations =  3.8

     total cpu time spent up to now is     1718.7 secs

     total energy              =  -10536.81239439 Ry
     Harris-Foulkes estimate   =  -10537.31675362 Ry
     estimated scf accuracy    <       2.61413623 Ry

     total magnetization       =     0.58 Bohr mag/cell
     absolute magnetization    =    45.15 Bohr mag/cell

     iteration #  2     ecut=    71.00 Ry     beta= 0.10
     Davidson diagonalization with overlap
     ethr =  5.11E-04,  avg # of iterations =  1.0

     total cpu time spent up to now is     2105.4 secs

     total energy              =  -10536.41271955 Ry
     Harris-Foulkes estimate   =  -10536.87120677 Ry
     estimated scf accuracy    <       1.61169609 Ry

     total magnetization       =     0.10 Bohr mag/cell
     absolute magnetization    =    45.63 Bohr mag/cell

     iteration #  3     ecut=    71.00 Ry     beta= 0.10
     Davidson diagonalization with overlap
     ethr =  3.15E-04,  avg # of iterations =  2.2

     negative rho (up, down):  0.000E+00 6.223E-04

     total cpu time spent up to now is     2623.1 secs

     total energy              =  -10536.06541965 Ry
     Harris-Foulkes estimate   =  -10536.56222127 Ry
     estimated scf accuracy    <       2.43135793 Ry

     total magnetization       =     0.41 Bohr mag/cell
     absolute magnetization    =    45.89 Bohr mag/cell

     iteration #  4     ecut=    71.00 Ry     beta= 0.10
     Davidson diagonalization with overlap
     ethr =  3.15E-04,  avg # of iterations =  2.7

     negative rho (up, down):  0.000E+00 7.293E-04

     total cpu time spent up to now is     3239.0 secs

     total energy              =  -10536.17680685 Ry
     Harris-Foulkes estimate   =  -10536.25811853 Ry
     estimated scf accuracy    <       1.22771480 Ry

     total magnetization       =     0.29 Bohr mag/cell
     absolute magnetization    =    46.49 Bohr mag/cell

     iteration #  5     ecut=    71.00 Ry     beta= 0.10
     Davidson diagonalization with overlap
     ethr =  2.40E-04,  avg # of iterations =  1.1

     negative rho (up, down):  0.000E+00 6.354E-04

     total cpu time spent up to now is     3630.7 secs

     total energy              =  -10536.19454237 Ry
     Harris-Foulkes estimate   =  -10536.21320061 Ry
     estimated scf accuracy    <       0.10888533 Ry

     total magnetization       =     0.13 Bohr mag/cell
     absolute magnetization    =    46.71 Bohr mag/cell

     iteration #  6     ecut=    71.00 Ry     beta= 0.10
     Davidson diagonalization with overlap
     ethr =  2.13E-05,  avg # of iterations =  3.3

     negative rho (up, down):  0.000E+00 6.006E-04

     total cpu time spent up to now is     4265.9 secs

     total energy              =  -10536.17539745 Ry
     Harris-Foulkes estimate   =  -10536.19952542 Ry
     estimated scf accuracy    <       0.06970098 Ry

     total magnetization       =    -0.01 Bohr mag/cell
     absolute magnetization    =    46.59 Bohr mag/cell

     iteration #  7     ecut=    71.00 Ry     beta= 0.10
     Davidson diagonalization with overlap
     ethr =  1.36E-05,  avg # of iterations =  3.0

     negative rho (up, down):  0.000E+00 6.776E-04

     total cpu time spent up to now is     4955.5 secs

     total energy              =  -10536.15975757 Ry
     Harris-Foulkes estimate   =  -10536.18175616 Ry
     estimated scf accuracy    <       0.05577109 Ry

     total magnetization       =     0.16 Bohr mag/cell
     absolute magnetization    =    46.60 Bohr mag/cell

     iteration #  8     ecut=    71.00 Ry     beta= 0.10
     Davidson diagonalization with overlap
     ethr =  1.09E-05,  avg # of iterations =  2.1

     negative rho (up, down):  0.000E+00 6.720E-04

     total cpu time spent up to now is     5507.9 secs

     total energy              =  -10536.16228983 Ry
     Harris-Foulkes estimate   =  -10536.16375607 Ry
     estimated scf accuracy    <       0.04618934 Ry

     total magnetization       =     0.10 Bohr mag/cell
     absolute magnetization    =    46.78 Bohr mag/cell

     iteration #  9     ecut=    71.00 Ry     beta= 0.10
     Davidson diagonalization with overlap
     ethr =  9.02E-06,  avg # of iterations =  1.1

     negative rho (up, down):  0.000E+00 4.911E-04

     total cpu time spent up to now is     5906.4 secs

     total energy              =  -10536.17140668 Ry
     Harris-Foulkes estimate   =  -10536.16310518 Ry
     estimated scf accuracy    <       0.04095750 Ry

     total magnetization       =     0.05 Bohr mag/cell
     absolute magnetization    =    46.84 Bohr mag/cell

     iteration # 10     ecut=    71.00 Ry     beta= 0.10
     Davidson diagonalization with overlap
     ethr =  8.00E-06,  avg # of iterations =  2.6

     total cpu time spent up to now is     6567.2 secs

     total energy              =  -10536.20388372 Ry
     Harris-Foulkes estimate   =  -10536.17692687 Ry
     estimated scf accuracy    <       0.04970171 Ry

     total magnetization       =    -0.06 Bohr mag/cell
     absolute magnetization    =    47.15 Bohr mag/cell

     iteration # 11     ecut=    71.00 Ry     beta= 0.10
     Davidson diagonalization with overlap
     ethr =  8.00E-06,  avg # of iterations =  2.7

     total cpu time spent up to now is     7299.7 secs

     total energy              =  -10536.23793509 Ry
     Harris-Foulkes estimate   =  -10536.22452682 Ry
     estimated scf accuracy    <       0.03412216 Ry

     total magnetization       =    -0.00 Bohr mag/cell
     absolute magnetization    =    47.80 Bohr mag/cell

     iteration # 12     ecut=    71.00 Ry     beta= 0.10
     Davidson diagonalization with overlap
     ethr =  6.66E-06,  avg # of iterations =  3.5

     total cpu time spent up to now is     8174.8 secs

     total energy              =  -10536.24779493 Ry
     Harris-Foulkes estimate   =  -10536.24593878 Ry
     estimated scf accuracy    <       0.01081600 Ry

     total magnetization       =     0.03 Bohr mag/cell
     absolute magnetization    =    48.18 Bohr mag/cell

     iteration # 13     ecut=    71.00 Ry     beta= 0.10
     Davidson diagonalization with overlap
     c_bands:  1 eigenvalues not converged
     ethr =  2.11E-06,  avg # of iterations =  1.5

     total cpu time spent up to now is     8624.7 secs

     total energy              =  -10536.24543255 Ry
     Harris-Foulkes estimate   =  -10536.24831282 Ry
     estimated scf accuracy    <       0.00875793 Ry

     total magnetization       =    -0.00 Bohr mag/cell
     absolute magnetization    =    48.30 Bohr mag/cell

     iteration # 14     ecut=    71.00 Ry     beta= 0.10
     Davidson diagonalization with overlap
     ethr =  1.71E-06,  avg # of iterations =  2.7

     total cpu time spent up to now is     9303.9 secs

     total energy              =  -10536.24701129 Ry
     Harris-Foulkes estimate   =  -10536.24636716 Ry
     estimated scf accuracy    <       0.00282746 Ry

     total magnetization       =    -0.00 Bohr mag/cell
     absolute magnetization    =    48.34 Bohr mag/cell

     iteration # 15     ecut=    71.00 Ry     beta= 0.10
     Davidson diagonalization with overlap
     ethr =  5.52E-07,  avg # of iterations =  3.3

     total cpu time spent up to now is    10108.4 secs

     total energy              =  -10536.24709524 Ry
     Harris-Foulkes estimate   =  -10536.24752275 Ry
     estimated scf accuracy    <       0.00341742 Ry

     total magnetization       =     0.00 Bohr mag/cell
     absolute magnetization    =    48.54 Bohr mag/cell

     iteration # 16     ecut=    71.00 Ry     beta= 0.10
     Davidson diagonalization with overlap
     ethr =  5.52E-07,  avg # of iterations =  1.0

     total cpu time spent up to now is    10499.2 secs

     total energy              =  -10536.24751593 Ry
     Harris-Foulkes estimate   =  -10536.24724280 Ry
     estimated scf accuracy    <       0.00160649 Ry

     total magnetization       =    -0.01 Bohr mag/cell
     absolute magnetization    =    48.50 Bohr mag/cell

     iteration # 17     ecut=    71.00 Ry     beta= 0.10
     Davidson diagonalization with overlap
     ethr =  3.14E-07,  avg # of iterations =  2.8

     total cpu time spent up to now is    11131.3 secs

     total energy              =  -10536.24762586 Ry
     Harris-Foulkes estimate   =  -10536.24767939 Ry
     estimated scf accuracy    <       0.00127612 Ry

     total magnetization       =    -0.02 Bohr mag/cell
     absolute magnetization    =    48.65 Bohr mag/cell

     iteration # 18     ecut=    71.00 Ry     beta= 0.10
     Davidson diagonalization with overlap
     ethr =  2.49E-07,  avg # of iterations =  2.0

     total cpu time spent up to now is    11646.5 secs

     total energy              =  -10536.24791463 Ry
     Harris-Foulkes estimate   =  -10536.24774298 Ry
     estimated scf accuracy    <       0.00131825 Ry

     total magnetization       =     0.02 Bohr mag/cell
     absolute magnetization    =    48.68 Bohr mag/cell

     iteration # 19     ecut=    71.00 Ry     beta= 0.10
     Davidson diagonalization with overlap
     ethr =  2.49E-07,  avg # of iterations =  2.0

     total cpu time spent up to now is    12166.9 secs

     total energy              =  -10536.24812488 Ry
     Harris-Foulkes estimate   =  -10536.24804883 Ry
     estimated scf accuracy    <       0.00053816 Ry

     total magnetization       =    -0.00 Bohr mag/cell
     absolute magnetization    =    48.83 Bohr mag/cell

     iteration # 20     ecut=    71.00 Ry     beta= 0.10
     Davidson diagonalization with overlap
     ethr =  1.05E-07,  avg # of iterations =  1.2

     total cpu time spent up to now is    12567.1 secs

     total energy              =  -10536.24823352 Ry
     Harris-Foulkes estimate   =  -10536.24814779 Ry
     estimated scf accuracy    <       0.00028357 Ry

     total magnetization       =    -0.00 Bohr mag/cell
     absolute magnetization    =    48.89 Bohr mag/cell

     iteration # 21     ecut=    71.00 Ry     beta= 0.10
     Davidson diagonalization with overlap
     ethr =  5.54E-08,  avg # of iterations =  2.7

     total cpu time spent up to now is    13160.7 secs

     total energy              =  -10536.24828568 Ry
     Harris-Foulkes estimate   =  -10536.24826311 Ry
     estimated scf accuracy    <       0.00029268 Ry

     total magnetization       =     0.00 Bohr mag/cell
     absolute magnetization    =    48.99 Bohr mag/cell

     iteration # 22     ecut=    71.00 Ry     beta= 0.10
     Davidson diagonalization with overlap
     ethr =  5.54E-08,  avg # of iterations =  2.2

     total cpu time spent up to now is    13710.3 secs

     total energy              =  -10536.24833580 Ry
     Harris-Foulkes estimate   =  -10536.24831806 Ry
     estimated scf accuracy    <       0.00014920 Ry

     total magnetization       =    -0.01 Bohr mag/cell
     absolute magnetization    =    49.08 Bohr mag/cell

     iteration # 23     ecut=    71.00 Ry     beta= 0.10
     Davidson diagonalization with overlap
     ethr =  2.91E-08,  avg # of iterations =  2.0

     total cpu time spent up to now is    14211.6 secs

     total energy              =  -10536.24835158 Ry
     Harris-Foulkes estimate   =  -10536.24834247 Ry
     estimated scf accuracy    <       0.00011328 Ry

     total magnetization       =    -0.00 Bohr mag/cell
     absolute magnetization    =    49.13 Bohr mag/cell

     iteration # 24     ecut=    71.00 Ry     beta= 0.10
     Davidson diagonalization with overlap
     ethr =  2.21E-08,  avg # of iterations =  1.4

     total cpu time spent up to now is    14627.6 secs

     total energy              =  -10536.24838101 Ry
     Harris-Foulkes estimate   =  -10536.24835475 Ry
     estimated scf accuracy    <       0.00010279 Ry

     total magnetization       =    -0.00 Bohr mag/cell
     absolute magnetization    =    49.16 Bohr mag/cell

     iteration # 25     ecut=    71.00 Ry     beta= 0.10
     Davidson diagonalization with overlap
     ethr =  2.01E-08,  avg # of iterations =  2.2

     total cpu time spent up to now is    15212.2 secs

     total energy              =  -10536.24841023 Ry
     Harris-Foulkes estimate   =  -10536.24839223 Ry
     estimated scf accuracy    <       0.00009870 Ry

     total magnetization       =    -0.00 Bohr mag/cell
     absolute magnetization    =    49.20 Bohr mag/cell

     iteration # 26     ecut=    71.00 Ry     beta= 0.10
     Davidson diagonalization with overlap
     ethr =  1.93E-08,  avg # of iterations =  2.6

     total cpu time spent up to now is    15907.0 secs

     total energy              =  -10536.24842649 Ry
     Harris-Foulkes estimate   =  -10536.24844085 Ry
     estimated scf accuracy    <       0.00010969 Ry

     total magnetization       =    -0.00 Bohr mag/cell
     absolute magnetization    =    49.30 Bohr mag/cell

     iteration # 27     ecut=    71.00 Ry     beta= 0.10
     Davidson diagonalization with overlap
     ethr =  1.93E-08,  avg # of iterations =  1.9

     total cpu time spent up to now is    16389.1 secs

     total energy              =  -10536.24844374 Ry
     Harris-Foulkes estimate   =  -10536.24843535 Ry
     estimated scf accuracy    <       0.00011909 Ry

     total magnetization       =     0.00 Bohr mag/cell
     absolute magnetization    =    49.28 Bohr mag/cell

     iteration # 28     ecut=    71.00 Ry     beta= 0.10
     Davidson diagonalization with overlap
     ethr =  1.93E-08,  avg # of iterations =  2.0

     total cpu time spent up to now is    16938.6 secs

     total energy              =  -10536.24845994 Ry
     Harris-Foulkes estimate   =  -10536.24845619 Ry
     estimated scf accuracy    <       0.00004224 Ry

     total magnetization       =     0.00 Bohr mag/cell
     absolute magnetization    =    49.35 Bohr mag/cell

     iteration # 29     ecut=    71.00 Ry     beta= 0.10
     Davidson diagonalization with overlap
     ethr =  8.25E-09,  avg # of iterations =  2.0

     total cpu time spent up to now is    17492.5 secs

     total energy              =  -10536.24846788 Ry
     Harris-Foulkes estimate   =  -10536.24846466 Ry
     estimated scf accuracy    <       0.00002172 Ry

     total magnetization       =     0.00 Bohr mag/cell
     absolute magnetization    =    49.38 Bohr mag/cell

     iteration # 30     ecut=    71.00 Ry     beta= 0.10
     Davidson diagonalization with overlap
     ethr =  4.24E-09,  avg # of iterations =  2.0

     total cpu time spent up to now is    17996.0 secs

     total energy              =  -10536.24847127 Ry
     Harris-Foulkes estimate   =  -10536.24846966 Ry
     estimated scf accuracy    <       0.00002436 Ry

     total magnetization       =     0.00 Bohr mag/cell
     absolute magnetization    =    49.41 Bohr mag/cell

     iteration # 31     ecut=    71.00 Ry     beta= 0.10
     Davidson diagonalization with overlap
     ethr =  4.24E-09,  avg # of iterations =  3.0

     total cpu time spent up to now is    18662.9 secs

     total energy              =  -10536.24847672 Ry
     Harris-Foulkes estimate   =  -10536.24847490 Ry
     estimated scf accuracy    <       0.00000803 Ry

     total magnetization       =    -0.00 Bohr mag/cell
     absolute magnetization    =    49.46 Bohr mag/cell

     iteration # 32     ecut=    71.00 Ry     beta= 0.10
     Davidson diagonalization with overlap
     ethr =  1.57E-09,  avg # of iterations =  2.3

     total cpu time spent up to now is    19245.7 secs

     total energy              =  -10536.24847776 Ry
     Harris-Foulkes estimate   =  -10536.24847799 Ry
     estimated scf accuracy    <       0.00000690 Ry

     total magnetization       =     0.00 Bohr mag/cell
     absolute magnetization    =    49.49 Bohr mag/cell

     iteration # 33     ecut=    71.00 Ry     beta= 0.10
     Davidson diagonalization with overlap
     ethr =  1.35E-09,  avg # of iterations =  1.0

     total cpu time spent up to now is    19626.3 secs

     total energy              =  -10536.24847966 Ry
     Harris-Foulkes estimate   =  -10536.24847795 Ry
     estimated scf accuracy    <       0.00000480 Ry

     total magnetization       =     0.00 Bohr mag/cell
     absolute magnetization    =    49.49 Bohr mag/cell

     iteration # 34     ecut=    71.00 Ry     beta= 0.10
     Davidson diagonalization with overlap
     ethr =  9.37E-10,  avg # of iterations =  1.7

     total cpu time spent up to now is    20095.2 secs

     total energy              =  -10536.24848184 Ry
     Harris-Foulkes estimate   =  -10536.24847993 Ry
     estimated scf accuracy    <       0.00000405 Ry

     total magnetization       =     0.00 Bohr mag/cell
     absolute magnetization    =    49.50 Bohr mag/cell

     iteration # 35     ecut=    71.00 Ry     beta= 0.10
     Davidson diagonalization with overlap
     ethr =  7.91E-10,  avg # of iterations =  2.0

     total cpu time spent up to now is    20654.9 secs

     total energy              =  -10536.24848383 Ry
     Harris-Foulkes estimate   =  -10536.24848230 Ry
     estimated scf accuracy    <       0.00000380 Ry

     total magnetization       =     0.00 Bohr mag/cell
     absolute magnetization    =    49.50 Bohr mag/cell

     iteration # 36     ecut=    71.00 Ry     beta= 0.10
     Davidson diagonalization with overlap
     ethr =  7.42E-10,  avg # of iterations =  2.0

     total cpu time spent up to now is    21170.8 secs

     total energy              =  -10536.24848592 Ry
     Harris-Foulkes estimate   =  -10536.24848405 Ry
     estimated scf accuracy    <       0.00000316 Ry

     total magnetization       =     0.00 Bohr mag/cell
     absolute magnetization    =    49.51 Bohr mag/cell

     iteration # 37     ecut=    71.00 Ry     beta= 0.10
     Davidson diagonalization with overlap
     ethr =  6.18E-10,  avg # of iterations =  2.2

     total cpu time spent up to now is    21767.9 secs

     total energy              =  -10536.24848693 Ry
     Harris-Foulkes estimate   =  -10536.24848650 Ry
     estimated scf accuracy    <       0.00000317 Ry

     total magnetization       =     0.00 Bohr mag/cell
     absolute magnetization    =    49.52 Bohr mag/cell

     iteration # 38     ecut=    71.00 Ry     beta= 0.10
     Davidson diagonalization with overlap
     ethr =  6.18E-10,  avg # of iterations =  1.0

     total cpu time spent up to now is    22161.5 secs

     total energy              =  -10536.24848757 Ry
     Harris-Foulkes estimate   =  -10536.24848706 Ry
     estimated scf accuracy    <       0.00000229 Ry

     total magnetization       =     0.00 Bohr mag/cell
     absolute magnetization    =    49.52 Bohr mag/cell

     iteration # 39     ecut=    71.00 Ry     beta= 0.10
     Davidson diagonalization with overlap
     ethr =  4.46E-10,  avg # of iterations =  1.9

     total cpu time spent up to now is    22649.5 secs

     total energy              =  -10536.24848776 Ry
     Harris-Foulkes estimate   =  -10536.24848773 Ry
     estimated scf accuracy    <       0.00000142 Ry

     total magnetization       =    -0.00 Bohr mag/cell
     absolute magnetization    =    49.53 Bohr mag/cell

     iteration # 40     ecut=    71.00 Ry     beta= 0.10
     Davidson diagonalization with overlap
     ethr =  2.78E-10,  avg # of iterations =  2.5

     total cpu time spent up to now is    23227.3 secs

     total energy              =  -10536.24848798 Ry
     Harris-Foulkes estimate   =  -10536.24848797 Ry
     estimated scf accuracy    <       0.00000125 Ry

     total magnetization       =    -0.00 Bohr mag/cell
     absolute magnetization    =    49.54 Bohr mag/cell

     iteration # 41     ecut=    71.00 Ry     beta= 0.10
     Davidson diagonalization with overlap
     ethr =  2.45E-10,  avg # of iterations =  2.7
 
     Magnetic moment per site:
     atom:    1    charge:   14.3601    magn:    1.4860    constr:    0.0000
     atom:    2    charge:   14.3601    magn:   -1.4902    constr:    0.0000
     atom:    3    charge:   14.3598    magn:    1.4952    constr:    0.0000
     atom:    4    charge:   14.3602    magn:   -1.4910    constr:    0.0000
     atom:    5    charge:   14.3602    magn:    1.4867    constr:    0.0000
     atom:    6    charge:   14.3602    magn:   -1.4894    constr:    0.0000
     atom:    7    charge:   14.3598    magn:    1.4938    constr:    0.0000
     atom:    8    charge:   14.3602    magn:   -1.4910    constr:    0.0000
     atom:    9    charge:   14.3603    magn:    1.4870    constr:    0.0000
     atom:   10    charge:   14.3601    magn:   -1.4902    constr:    0.0000
     atom:   11    charge:   14.3598    magn:    1.4932    constr:    0.0000
     atom:   12    charge:   14.3602    magn:   -1.4910    constr:    0.0000
     atom:   13    charge:   14.3602    magn:    1.4874    constr:    0.0000
     atom:   14    charge:   14.3602    magn:   -1.4894    constr:    0.0000
     atom:   15    charge:   14.3598    magn:    1.4934    constr:    0.0000
     atom:   16    charge:   14.3602    magn:   -1.4910    constr:    0.0000
     atom:   17    charge:   14.3600    magn:    1.4867    constr:    0.0000
     atom:   18    charge:   14.3601    magn:   -1.4902    constr:    0.0000
     atom:   19    charge:   14.3598    magn:    1.4938    constr:    0.0000
     atom:   20    charge:   14.3601    magn:   -1.4908    constr:    0.0000
     atom:   21    charge:   14.3601    magn:    1.4871    constr:    0.0000
     atom:   22    charge:   14.3602    magn:   -1.4894    constr:    0.0000
     atom:   23    charge:   14.3598    magn:    1.4952    constr:    0.0000
     atom:   24    charge:   14.3601    magn:   -1.4908    constr:    0.0000
     atom:   25    charge:   14.3603    magn:    1.4866    constr:    0.0000
     atom:   26    charge:   14.3601    magn:   -1.4902    constr:    0.0000
     atom:   27    charge:   14.3598    magn:    1.4934    constr:    0.0000
     atom:   28    charge:   14.3601    magn:   -1.4908    constr:    0.0000
     atom:   29    charge:   14.3601    magn:    1.4868    constr:    0.0000
     atom:   30    charge:   14.3602    magn:   -1.4894    constr:    0.0000
     atom:   31    charge:   14.3598    magn:    1.4932    constr:    0.0000
     atom:   32    charge:   14.3601    magn:   -1.4908    constr:    0.0000

     total cpu time spent up to now is    23834.9 secs

     End of self-consistent calculation

     Number of k-points >= 100: set verbosity='high' to print the bands.

     the Fermi energy is    20.1182 ev

!    total energy              =  -10536.24848852 Ry
     Harris-Foulkes estimate   =  -10536.24848817 Ry
     estimated scf accuracy    <       0.00000030 Ry

     total all-electron energy =    -81457.737546 Ry

     The total energy is the sum of the following terms:

     one-electron contribution =   -3292.50375738 Ry
     hartree contribution      =    1996.57877187 Ry
     xc contribution           =    -886.95942265 Ry
     ewald contribution        =   -5703.81826870 Ry
     one-center paw contrib.   =   -2649.56036030 Ry
     smearing contrib. (-TS)   =       0.01454863 Ry

     total magnetization       =    -0.00 Bohr mag/cell
     absolute magnetization    =    49.55 Bohr mag/cell

     convergence has been achieved in  41 iterations

     Forces acting on atoms (cartesian axes, Ry/au):

     atom    1 type  1   force =     0.00000000    0.00000000    0.00000000
     atom    2 type  2   force =    -0.00002472   -0.00000644   -0.00005589
     atom    3 type  3   force =    -0.00006864    0.00000000    0.00003311
     atom    4 type  4   force =    -0.00002236    0.00003608    0.00006834
     atom    5 type  1   force =     0.00000000    0.00000000    0.00000000
     atom    6 type  2   force =    -0.00000635    0.00008615   -0.00000590
     atom    7 type  3   force =    -0.00007542    0.00000000    0.00007056
     atom    8 type  4   force =     0.00002236    0.00003608   -0.00006834
     atom    9 type  1   force =     0.00000000    0.00000000    0.00000000
     atom   10 type  2   force =    -0.00002472    0.00000644   -0.00005589
     atom   11 type  3   force =     0.00004717    0.00000000   -0.00004869
     atom   12 type  4   force =    -0.00002236   -0.00003608    0.00006834
     atom   13 type  1   force =     0.00000000    0.00000000    0.00000000
     atom   14 type  2   force =    -0.00000635   -0.00008615   -0.00000590
     atom   15 type  3   force =    -0.00001351    0.00000000   -0.00005764
     atom   16 type  4   force =     0.00002236   -0.00003608   -0.00006834
     atom   17 type  1   force =     0.00000000    0.00000000    0.00000000
     atom   18 type  2   force =     0.00002472   -0.00000644    0.00005589
     atom   19 type  3   force =     0.00007542    0.00000000   -0.00007056
     atom   20 type  4   force =    -0.00006549   -0.00002438    0.00003706
     atom   21 type  1   force =     0.00000000    0.00000000    0.00000000
     atom   22 type  2   force =     0.00000635    0.00008615    0.00000590
     atom   23 type  3   force =     0.00006864    0.00000000   -0.00003311
     atom   24 type  4   force =     0.00006549   -0.00002438   -0.00003706
     atom   25 type  1   force =     0.00000000    0.00000000    0.00000000
     atom   26 type  2   force =     0.00002472    0.00000644    0.00005589
     atom   27 type  3   force =     0.00001351    0.00000000    0.00005764
     atom   28 type  4   force =    -0.00006549    0.00002438    0.00003706
     atom   29 type  1   force =     0.00000000    0.00000000    0.00000000
     atom   30 type  2   force =     0.00000635   -0.00008615    0.00000590
     atom   31 type  3   force =    -0.00004717    0.00000000    0.00004869
     atom   32 type  4   force =     0.00006549    0.00002438   -0.00003706

     Total force =     0.000381     Total SCF correction =     0.001377
     SCF correction compared to forces is large: reduce conv_thr to get better values


     Computing stress (Cartesian axis) and pressure

          total   stress  (Ry/bohr**3)                   (kbar)     P=    0.19
   0.00000188   0.00000000  -0.00018403          0.28      0.00    -27.07
   0.00000000   0.00000017   0.00000000          0.00      0.03      0.00
  -0.00018403   0.00000000   0.00000180        -27.07      0.00      0.27


     Writing output data file yeubbjasCWBUTWEt.save/
-------------------------------------------------------
Primary job  terminated normally, but 1 process returned
a non-zero exit code.. Per user-direction, the job has been aborted.
-------------------------------------------------------
--------------------------------------------------------------------------
mpirun detected that one or more processes exited with non-zero status, thus causing
the job to be terminated. The first process to do so was:

  Process name: [[49751,1],0]
  Exit code:    38
--------------------------------------------------------------------------
