--------------------------------------------------------------------------
WARNING: No preset parameters were found for the device that Open MPI
detected:

  Local host:            bear-pg0206u13b
  Device name:           mlx5_0
  Device vendor ID:      0x02c9
  Device vendor part ID: 4123

Default device parameters will be used, which may result in lower
performance.  You can edit any of the files specified by the
btl_openib_device_param_files MCA parameter to set values for your
device.

NOTE: You can turn off this warning by setting the MCA parameter
      btl_openib_warn_no_device_params_found to 0.
--------------------------------------------------------------------------
--------------------------------------------------------------------------
WARNING: There was an error initializing an OpenFabrics device.

  Local host:   bear-pg0206u13b
  Local device: mlx5_0
--------------------------------------------------------------------------

     Program PWSCF v.6.3 starts on 15Oct2020 at  1:32:59 

     This program is part of the open-source Quantum ESPRESSO suite
     for quantum simulation of materials; please cite
         "P. Giannozzi et al., J. Phys.:Condens. Matter 21 395502 (2009);
         "P. Giannozzi et al., J. Phys.:Condens. Matter 29 465901 (2017);
          URL http://www.quantum-espresso.org", 
     in publications or presentations arising from this work. More details at
     http://www.quantum-espresso.org/quote

     Parallel version (MPI & OpenMP), running on      40 processor cores
     Number of MPI processes:                40
     Threads/MPI process:                     1

     MPI processes distributed on     1 nodes
     R & G space division:  proc/nbgrp/npool/nimage =      40
     Reading input from wd/ec/ec_5_005.in
Warning: card &IONS ignored
Warning: card ION_DYNAMICS = 'BFGS', ignored
Warning: card / ignored
Warning: card &CELL ignored
Warning: card CELL_DYNAMICS = 'BFGS', ignored
Warning: card CELL_FACTOR = 2.0, ignored
Warning: card PRESS = 0.0, ignored
Warning: card / ignored

     Current dimensions of program PWSCF are:
     Max number of different atomic species (ntypx) = 10
     Max number of k-points (npk) =  40000
     Max angular momentum in pseudopotentials (lmaxx) =  3
               file Fe.pbe-spn-kjpaw_psl.1.0.0.UPF: wavefunction(s)  3P 3D renormalized
               file Fe.pbe-spn-kjpaw_psl.1.0.0.UPF: wavefunction(s)  3P 3D renormalized
               file Fe.pbe-spn-kjpaw_psl.1.0.0.UPF: wavefunction(s)  3P 3D renormalized
               file Fe.pbe-spn-kjpaw_psl.1.0.0.UPF: wavefunction(s)  3P 3D renormalized

     Subspace diagonalization in iterative solution of the eigenvalue problem:
     a serial algorithm will be used

     Found symmetry operation: I + ( -0.0000  0.0000 -0.5000)
     This is a supercell, fractional translations are disabled
 
     Parallelization info
     --------------------
     sticks:   dense  smooth     PW     G-vecs:    dense   smooth      PW
     Min         150      99     27                 8592     4613     663
     Max         151     100     28                 8597     4620     668
     Sum        6035    3993   1103               343781   184669   26611
 


     bravais-lattice index     =            0
     lattice parameter (alat)  =      12.9382  a.u.
     unit-cell volume          =    2283.7593 (a.u.)^3
     number of atoms/cell      =           32
     number of atomic types    =            4
     number of electrons       =       512.00
     number of Kohn-Sham states=          307
     kinetic-energy cutoff     =      71.0000  Ry
     charge density cutoff     =     430.0000  Ry
     convergence threshold     =      1.0E-06
     mixing beta               =       0.1000
     number of iterations used =           10  plain     mixing
     Exchange-correlation      = SLA PW PBX PBC ( 1  4  3  4 0 0)

     celldm(1)=  12.938187  celldm(2)=   0.000000  celldm(3)=   0.000000
     celldm(4)=   0.000000  celldm(5)=   0.000000  celldm(6)=   0.000000

     crystal axes: (cart. coord. in units of alat)
               a(1) = (   1.000015   0.000000   0.006667 )  
               a(2) = (   0.000000   1.054489   0.000000 )  
               a(3) = (   0.006667   0.000000   1.000002 )  

     reciprocal axes: (cart. coord. in units 2 pi/alat)
               b(1) = (  1.000030  0.000000 -0.006667 )  
               b(2) = (  0.000000  0.948326  0.000000 )  
               b(3) = ( -0.006667  0.000000  1.000043 )  


     PseudoPot. # 1 for Fe read from file:
     /rds/homes/b/bxp912/pp/Fe.pbe-spn-kjpaw_psl.1.0.0.UPF
     MD5 check sum: 42f43b795421b414b0dc916aa790dbcb
     Pseudo is Projector augmented-wave + core cor, Zval = 16.0
     Generated using "atomic" code by A. Dal Corso v.6.3
     Shape of augmentation charge: PSQ
     Using radial grid of 1191 points,  6 beta functions with: 
                l(1) =   0
                l(2) =   0
                l(3) =   1
                l(4) =   1
                l(5) =   2
                l(6) =   2
     Q(r) pseudized with 0 coefficients 


     PseudoPot. # 2 for Fe read from file:
     /rds/homes/b/bxp912/pp/Fe.pbe-spn-kjpaw_psl.1.0.0.UPF
     MD5 check sum: 42f43b795421b414b0dc916aa790dbcb
     Pseudo is Projector augmented-wave + core cor, Zval = 16.0
     Generated using "atomic" code by A. Dal Corso v.6.3
     Shape of augmentation charge: PSQ
     Using radial grid of 1191 points,  6 beta functions with: 
                l(1) =   0
                l(2) =   0
                l(3) =   1
                l(4) =   1
                l(5) =   2
                l(6) =   2
     Q(r) pseudized with 0 coefficients 


     PseudoPot. # 3 for Fe read from file:
     /rds/homes/b/bxp912/pp/Fe.pbe-spn-kjpaw_psl.1.0.0.UPF
     MD5 check sum: 42f43b795421b414b0dc916aa790dbcb
     Pseudo is Projector augmented-wave + core cor, Zval = 16.0
     Generated using "atomic" code by A. Dal Corso v.6.3
     Shape of augmentation charge: PSQ
     Using radial grid of 1191 points,  6 beta functions with: 
                l(1) =   0
                l(2) =   0
                l(3) =   1
                l(4) =   1
                l(5) =   2
                l(6) =   2
     Q(r) pseudized with 0 coefficients 


     PseudoPot. # 4 for Fe read from file:
     /rds/homes/b/bxp912/pp/Fe.pbe-spn-kjpaw_psl.1.0.0.UPF
     MD5 check sum: 42f43b795421b414b0dc916aa790dbcb
     Pseudo is Projector augmented-wave + core cor, Zval = 16.0
     Generated using "atomic" code by A. Dal Corso v.6.3
     Shape of augmentation charge: PSQ
     Using radial grid of 1191 points,  6 beta functions with: 
                l(1) =   0
                l(2) =   0
                l(3) =   1
                l(4) =   1
                l(5) =   2
                l(6) =   2
     Q(r) pseudized with 0 coefficients 


     atomic species   valence    mass     pseudopotential
        Fe1           16.00    55.84500     Fe( 1.00)
        Fe2           16.00    55.84500     Fe( 1.00)
        Fe3           16.00    55.84500     Fe( 1.00)
        Fe4           16.00    55.84500     Fe( 1.00)

     Starting magnetic structure 
     atomic species   magnetization
        Fe1          0.100
        Fe2         -0.100
        Fe3          0.100
        Fe4         -0.100

      4 Sym. Ops., with inversion, found



   Cartesian axes

     site n.     atom                  positions (alat units)
         1           Fe1 tau(   1) = (   0.0000000   0.0000000   0.0000000  )
         2           Fe2 tau(   2) = (   0.2500005   0.2636250   0.0016666  )
         3           Fe3 tau(   3) = (   0.2516685   0.0000000   0.2516651  )
         4           Fe4 tau(   4) = (   0.0016667   0.2636236   0.2500045  )
         5           Fe1 tau(   5) = (   0.0033334   0.0000000   0.5000009  )
         6           Fe2 tau(   6) = (   0.2533367   0.2636278   0.5016676  )
         7           Fe3 tau(   7) = (   0.2550019   0.0000000   0.7516690  )
         8           Fe4 tau(   8) = (   0.0050000   0.2636236   0.7499963  )
         9           Fe1 tau(   9) = (   0.0000000   0.5272448   0.0000000  )
        10           Fe2 tau(  10) = (   0.2500005   0.7908646   0.0016666  )
        11           Fe3 tau(  11) = (   0.2516708   0.5272448   0.2516691  )
        12           Fe4 tau(  12) = (   0.0016667   0.7908660   0.2500045  )
        13           Fe1 tau(  13) = (   0.0033334   0.5272448   0.5000009  )
        14           Fe2 tau(  14) = (   0.2533367   0.7908618   0.5016676  )
        15           Fe3 tau(  15) = (   0.2550041   0.5272448   0.7516660  )
        16           Fe4 tau(  16) = (   0.0050000   0.7908660   0.7499963  )
        17           Fe1 tau(  17) = (   0.5000072   0.0000000   0.0033333  )
        18           Fe2 tau(  18) = (   0.7500138   0.2636250   0.0050000  )
        19           Fe3 tau(  19) = (   0.7516792   0.0000000   0.2549985  )
        20           Fe4 tau(  20) = (   0.5016739   0.2636226   0.2533358  )
        21           Fe1 tau(  21) = (   0.5033406   0.0000000   0.5033342  )
        22           Fe2 tau(  22) = (   0.7533443   0.2636278   0.5050009  )
        23           Fe3 tau(  23) = (   0.7550126   0.0000000   0.7550024  )
        24           Fe4 tau(  24) = (   0.5050073   0.2636226   0.7533317  )
        25           Fe1 tau(  25) = (   0.5000072   0.5272448   0.0033333  )
        26           Fe2 tau(  26) = (   0.7500138   0.7908646   0.0050000  )
        27           Fe3 tau(  27) = (   0.7516771   0.5272448   0.2550025  )
        28           Fe4 tau(  28) = (   0.5016739   0.7908670   0.2533358  )
        29           Fe1 tau(  29) = (   0.5033406   0.5272448   0.5033342  )
        30           Fe2 tau(  30) = (   0.7533443   0.7908618   0.5050009  )
        31           Fe3 tau(  31) = (   0.7550104   0.5272448   0.7549993  )
        32           Fe4 tau(  32) = (   0.5050073   0.7908670   0.7533317  )

     number of k points=   205  Marzari-Vanderbilt smearing, width (Ry)=  0.0400

     Number of k-points >= 100: set verbosity='high' to print them.

     Dense  grid:   343781 G-vectors     FFT dimensions: (  90,  96,  90)

     Smooth grid:   184669 G-vectors     FFT dimensions: (  72,  75,  72)

     Estimated max dynamical RAM per process >       1.21 GB

     Estimated total dynamical RAM >      48.54 GB
     Generating pointlists ...
     new r_m :   0.1449 (alat units)  1.8743 (a.u.) for type    1
     new r_m :   0.1449 (alat units)  1.8743 (a.u.) for type    2
     new r_m :   0.1449 (alat units)  1.8743 (a.u.) for type    3
     new r_m :   0.1449 (alat units)  1.8743 (a.u.) for type    4

     Check: negative/imaginary core charge=   -0.000006    0.000000

     Initial potential from superposition of free atoms

     starting charge  511.98600, renormalised to  512.00000
     Starting wfcs are  320 randomized atomic wfcs
     Checking if some PAW data can be deallocated... 

     total cpu time spent up to now is      148.2 secs

     Self-consistent Calculation

     iteration #  1     ecut=    71.00 Ry     beta= 0.10
     Davidson diagonalization with overlap
     ethr =  1.00E-02,  avg # of iterations =  3.7

     Threshold (ethr) on eigenvalues was too large:
     Diagonalizing with lowered threshold

     Davidson diagonalization with overlap
     ethr =  4.42E-04,  avg # of iterations =  3.8

     total cpu time spent up to now is     1719.8 secs

     total energy              =  -10536.81081459 Ry
     Harris-Foulkes estimate   =  -10537.31510180 Ry
     estimated scf accuracy    <       2.61379951 Ry

     total magnetization       =     0.58 Bohr mag/cell
     absolute magnetization    =    45.15 Bohr mag/cell

     iteration #  2     ecut=    71.00 Ry     beta= 0.10
     Davidson diagonalization with overlap
     ethr =  5.11E-04,  avg # of iterations =  1.0

     total cpu time spent up to now is     2110.8 secs

     total energy              =  -10536.41113528 Ry
     Harris-Foulkes estimate   =  -10536.86961129 Ry
     estimated scf accuracy    <       1.61142388 Ry

     total magnetization       =     0.10 Bohr mag/cell
     absolute magnetization    =    45.63 Bohr mag/cell

     iteration #  3     ecut=    71.00 Ry     beta= 0.10
     Davidson diagonalization with overlap
     ethr =  3.15E-04,  avg # of iterations =  2.2

     negative rho (up, down):  0.000E+00 6.234E-04

     total cpu time spent up to now is     2623.4 secs

     total energy              =  -10536.06384833 Ry
     Harris-Foulkes estimate   =  -10536.56061070 Ry
     estimated scf accuracy    <       2.43088681 Ry

     total magnetization       =     0.40 Bohr mag/cell
     absolute magnetization    =    45.89 Bohr mag/cell

     iteration #  4     ecut=    71.00 Ry     beta= 0.10
     Davidson diagonalization with overlap
     ethr =  3.15E-04,  avg # of iterations =  2.8

     negative rho (up, down):  0.000E+00 7.303E-04

     total cpu time spent up to now is     3246.7 secs

     total energy              =  -10536.17521438 Ry
     Harris-Foulkes estimate   =  -10536.25652365 Ry
     estimated scf accuracy    <       1.22821488 Ry

     total magnetization       =     0.29 Bohr mag/cell
     absolute magnetization    =    46.49 Bohr mag/cell

     iteration #  5     ecut=    71.00 Ry     beta= 0.10
     Davidson diagonalization with overlap
     ethr =  2.40E-04,  avg # of iterations =  1.1

     negative rho (up, down):  0.000E+00 6.365E-04

     total cpu time spent up to now is     3633.2 secs

     total energy              =  -10536.19294939 Ry
     Harris-Foulkes estimate   =  -10536.21160624 Ry
     estimated scf accuracy    <       0.10887551 Ry

     total magnetization       =     0.13 Bohr mag/cell
     absolute magnetization    =    46.71 Bohr mag/cell

     iteration #  6     ecut=    71.00 Ry     beta= 0.10
     Davidson diagonalization with overlap
     ethr =  2.13E-05,  avg # of iterations =  3.4

     negative rho (up, down):  0.000E+00 6.018E-04

     total cpu time spent up to now is     4279.9 secs

     total energy              =  -10536.17379143 Ry
     Harris-Foulkes estimate   =  -10536.19792826 Ry
     estimated scf accuracy    <       0.06969645 Ry

     total magnetization       =    -0.01 Bohr mag/cell
     absolute magnetization    =    46.59 Bohr mag/cell

     iteration #  7     ecut=    71.00 Ry     beta= 0.10
     Davidson diagonalization with overlap
     ethr =  1.36E-05,  avg # of iterations =  2.9

     negative rho (up, down):  0.000E+00 6.784E-04

     total cpu time spent up to now is     4955.2 secs

     total energy              =  -10536.15817797 Ry
     Harris-Foulkes estimate   =  -10536.18015037 Ry
     estimated scf accuracy    <       0.05581437 Ry

     total magnetization       =     0.16 Bohr mag/cell
     absolute magnetization    =    46.60 Bohr mag/cell

     iteration #  8     ecut=    71.00 Ry     beta= 0.10
     Davidson diagonalization with overlap
     ethr =  1.09E-05,  avg # of iterations =  2.0

     negative rho (up, down):  0.000E+00 6.731E-04

     total cpu time spent up to now is     5499.9 secs

     total energy              =  -10536.16068316 Ry
     Harris-Foulkes estimate   =  -10536.16217504 Ry
     estimated scf accuracy    <       0.04632124 Ry

     total magnetization       =     0.10 Bohr mag/cell
     absolute magnetization    =    46.78 Bohr mag/cell

     iteration #  9     ecut=    71.00 Ry     beta= 0.10
     Davidson diagonalization with overlap
     ethr =  9.05E-06,  avg # of iterations =  1.1

     negative rho (up, down):  0.000E+00 4.926E-04

     total cpu time spent up to now is     5898.5 secs

     total energy              =  -10536.16977258 Ry
     Harris-Foulkes estimate   =  -10536.16149965 Ry
     estimated scf accuracy    <       0.04090929 Ry

     total magnetization       =     0.05 Bohr mag/cell
     absolute magnetization    =    46.84 Bohr mag/cell

     iteration # 10     ecut=    71.00 Ry     beta= 0.10
     Davidson diagonalization with overlap
     ethr =  7.99E-06,  avg # of iterations =  2.7

     total cpu time spent up to now is     6574.9 secs

     total energy              =  -10536.20224441 Ry
     Harris-Foulkes estimate   =  -10536.17529332 Ry
     estimated scf accuracy    <       0.04961280 Ry

     total magnetization       =    -0.06 Bohr mag/cell
     absolute magnetization    =    47.15 Bohr mag/cell

     iteration # 11     ecut=    71.00 Ry     beta= 0.10
     Davidson diagonalization with overlap
     ethr =  7.99E-06,  avg # of iterations =  2.7

     total cpu time spent up to now is     7319.0 secs

     total energy              =  -10536.23628870 Ry
     Harris-Foulkes estimate   =  -10536.22287357 Ry
     estimated scf accuracy    <       0.03415462 Ry

     total magnetization       =    -0.00 Bohr mag/cell
     absolute magnetization    =    47.80 Bohr mag/cell

     iteration # 12     ecut=    71.00 Ry     beta= 0.10
     Davidson diagonalization with overlap
     ethr =  6.67E-06,  avg # of iterations =  3.5

     total cpu time spent up to now is     8198.5 secs

     total energy              =  -10536.24617913 Ry
     Harris-Foulkes estimate   =  -10536.24431504 Ry
     estimated scf accuracy    <       0.01081635 Ry

     total magnetization       =     0.03 Bohr mag/cell
     absolute magnetization    =    48.18 Bohr mag/cell

     iteration # 13     ecut=    71.00 Ry     beta= 0.10
     Davidson diagonalization with overlap
     ethr =  2.11E-06,  avg # of iterations =  1.4

     total cpu time spent up to now is     8634.0 secs

     total energy              =  -10536.24381735 Ry
     Harris-Foulkes estimate   =  -10536.24669703 Ry
     estimated scf accuracy    <       0.00876658 Ry

     total magnetization       =    -0.00 Bohr mag/cell
     absolute magnetization    =    48.30 Bohr mag/cell

     iteration # 14     ecut=    71.00 Ry     beta= 0.10
     Davidson diagonalization with overlap
     ethr =  1.71E-06,  avg # of iterations =  2.7

     total cpu time spent up to now is     9306.8 secs

     total energy              =  -10536.24538879 Ry
     Harris-Foulkes estimate   =  -10536.24474763 Ry
     estimated scf accuracy    <       0.00282589 Ry

     total magnetization       =    -0.00 Bohr mag/cell
     absolute magnetization    =    48.34 Bohr mag/cell

     iteration # 15     ecut=    71.00 Ry     beta= 0.10
     Davidson diagonalization with overlap
     ethr =  5.52E-07,  avg # of iterations =  3.2

     total cpu time spent up to now is    10101.0 secs

     total energy              =  -10536.24547842 Ry
     Harris-Foulkes estimate   =  -10536.24590397 Ry
     estimated scf accuracy    <       0.00346375 Ry

     total magnetization       =     0.01 Bohr mag/cell
     absolute magnetization    =    48.54 Bohr mag/cell

     iteration # 16     ecut=    71.00 Ry     beta= 0.10
     Davidson diagonalization with overlap
     ethr =  5.52E-07,  avg # of iterations =  1.0

     total cpu time spent up to now is    10479.5 secs

     total energy              =  -10536.24590016 Ry
     Harris-Foulkes estimate   =  -10536.24562546 Ry
     estimated scf accuracy    <       0.00161164 Ry

     total magnetization       =    -0.01 Bohr mag/cell
     absolute magnetization    =    48.50 Bohr mag/cell

     iteration # 17     ecut=    71.00 Ry     beta= 0.10
     Davidson diagonalization with overlap
     ethr =  3.15E-07,  avg # of iterations =  2.8

     total cpu time spent up to now is    11111.5 secs

     total energy              =  -10536.24601476 Ry
     Harris-Foulkes estimate   =  -10536.24606737 Ry
     estimated scf accuracy    <       0.00125441 Ry

     total magnetization       =    -0.02 Bohr mag/cell
     absolute magnetization    =    48.66 Bohr mag/cell

     iteration # 18     ecut=    71.00 Ry     beta= 0.10
     Davidson diagonalization with overlap
     ethr =  2.45E-07,  avg # of iterations =  2.0

     total cpu time spent up to now is    11625.5 secs

     total energy              =  -10536.24630057 Ry
     Harris-Foulkes estimate   =  -10536.24613073 Ry
     estimated scf accuracy    <       0.00131049 Ry

     total magnetization       =     0.02 Bohr mag/cell
     absolute magnetization    =    48.69 Bohr mag/cell

     iteration # 19     ecut=    71.00 Ry     beta= 0.10
     Davidson diagonalization with overlap
     ethr =  2.45E-07,  avg # of iterations =  2.0

     total cpu time spent up to now is    12145.4 secs

     total energy              =  -10536.24650894 Ry
     Harris-Foulkes estimate   =  -10536.24643359 Ry
     estimated scf accuracy    <       0.00053697 Ry

     total magnetization       =    -0.00 Bohr mag/cell
     absolute magnetization    =    48.84 Bohr mag/cell

     iteration # 20     ecut=    71.00 Ry     beta= 0.10
     Davidson diagonalization with overlap
     ethr =  1.05E-07,  avg # of iterations =  1.2

     total cpu time spent up to now is    12545.3 secs

     total energy              =  -10536.24661633 Ry
     Harris-Foulkes estimate   =  -10536.24653135 Ry
     estimated scf accuracy    <       0.00028540 Ry

     total magnetization       =    -0.00 Bohr mag/cell
     absolute magnetization    =    48.89 Bohr mag/cell

     iteration # 21     ecut=    71.00 Ry     beta= 0.10
     Davidson diagonalization with overlap
     ethr =  5.57E-08,  avg # of iterations =  2.6

     total cpu time spent up to now is    13137.2 secs

     total energy              =  -10536.24666848 Ry
     Harris-Foulkes estimate   =  -10536.24664540 Ry
     estimated scf accuracy    <       0.00029502 Ry

     total magnetization       =     0.00 Bohr mag/cell
     absolute magnetization    =    48.99 Bohr mag/cell

     iteration # 22     ecut=    71.00 Ry     beta= 0.10
     Davidson diagonalization with overlap
     ethr =  5.57E-08,  avg # of iterations =  2.3

     total cpu time spent up to now is    13704.2 secs

     total energy              =  -10536.24671974 Ry
     Harris-Foulkes estimate   =  -10536.24670218 Ry
     estimated scf accuracy    <       0.00014928 Ry

     total magnetization       =    -0.01 Bohr mag/cell
     absolute magnetization    =    49.09 Bohr mag/cell

     iteration # 23     ecut=    71.00 Ry     beta= 0.10
     Davidson diagonalization with overlap
     ethr =  2.92E-08,  avg # of iterations =  1.8

     total cpu time spent up to now is    14181.0 secs

     total energy              =  -10536.24673419 Ry
     Harris-Foulkes estimate   =  -10536.24672622 Ry
     estimated scf accuracy    <       0.00012124 Ry

     total magnetization       =    -0.00 Bohr mag/cell
     absolute magnetization    =    49.13 Bohr mag/cell

     iteration # 24     ecut=    71.00 Ry     beta= 0.10
     Davidson diagonalization with overlap
     ethr =  2.37E-08,  avg # of iterations =  1.0

     total cpu time spent up to now is    14574.1 secs

     total energy              =  -10536.24675537 Ry
     Harris-Foulkes estimate   =  -10536.24673753 Ry
     estimated scf accuracy    <       0.00011398 Ry

     total magnetization       =    -0.00 Bohr mag/cell
     absolute magnetization    =    49.15 Bohr mag/cell

     iteration # 25     ecut=    71.00 Ry     beta= 0.10
     Davidson diagonalization with overlap
     ethr =  2.23E-08,  avg # of iterations =  2.0

     total cpu time spent up to now is    15080.3 secs

     total energy              =  -10536.24678449 Ry
     Harris-Foulkes estimate   =  -10536.24676200 Ry
     estimated scf accuracy    <       0.00010922 Ry

     total magnetization       =    -0.01 Bohr mag/cell
     absolute magnetization    =    49.19 Bohr mag/cell

     iteration # 26     ecut=    71.00 Ry     beta= 0.10
     Davidson diagonalization with overlap
     ethr =  2.13E-08,  avg # of iterations =  2.3

     total cpu time spent up to now is    15708.6 secs

     total energy              =  -10536.24680961 Ry
     Harris-Foulkes estimate   =  -10536.24680260 Ry
     estimated scf accuracy    <       0.00009503 Ry

     total magnetization       =    -0.00 Bohr mag/cell
     absolute magnetization    =    49.26 Bohr mag/cell

     iteration # 27     ecut=    71.00 Ry     beta= 0.10
     Davidson diagonalization with overlap
     ethr =  1.86E-08,  avg # of iterations =  1.0

     total cpu time spent up to now is    16090.8 secs

     total energy              =  -10536.24682534 Ry
     Harris-Foulkes estimate   =  -10536.24681503 Ry
     estimated scf accuracy    <       0.00011853 Ry

     total magnetization       =     0.00 Bohr mag/cell
     absolute magnetization    =    49.28 Bohr mag/cell

     iteration # 28     ecut=    71.00 Ry     beta= 0.10
     Davidson diagonalization with overlap
     ethr =  1.86E-08,  avg # of iterations =  2.0

     total cpu time spent up to now is    16610.9 secs

     total energy              =  -10536.24684213 Ry
     Harris-Foulkes estimate   =  -10536.24683476 Ry
     estimated scf accuracy    <       0.00004862 Ry

     total magnetization       =     0.00 Bohr mag/cell
     absolute magnetization    =    49.33 Bohr mag/cell

     iteration # 29     ecut=    71.00 Ry     beta= 0.10
     Davidson diagonalization with overlap
     ethr =  9.50E-09,  avg # of iterations =  2.5

     total cpu time spent up to now is    17281.8 secs

     total energy              =  -10536.24685623 Ry
     Harris-Foulkes estimate   =  -10536.24685341 Ry
     estimated scf accuracy    <       0.00002127 Ry

     total magnetization       =     0.00 Bohr mag/cell
     absolute magnetization    =    49.39 Bohr mag/cell

     iteration # 30     ecut=    71.00 Ry     beta= 0.10
     Davidson diagonalization with overlap
     ethr =  4.15E-09,  avg # of iterations =  1.1

     total cpu time spent up to now is    17673.4 secs

     total energy              =  -10536.24685725 Ry
     Harris-Foulkes estimate   =  -10536.24685713 Ry
     estimated scf accuracy    <       0.00001905 Ry

     total magnetization       =    -0.00 Bohr mag/cell
     absolute magnetization    =    49.41 Bohr mag/cell

     iteration # 31     ecut=    71.00 Ry     beta= 0.10
     Davidson diagonalization with overlap
     ethr =  3.72E-09,  avg # of iterations =  3.0

     total cpu time spent up to now is    18327.3 secs

     total energy              =  -10536.24686063 Ry
     Harris-Foulkes estimate   =  -10536.24685975 Ry
     estimated scf accuracy    <       0.00001175 Ry

     total magnetization       =    -0.00 Bohr mag/cell
     absolute magnetization    =    49.45 Bohr mag/cell

     iteration # 32     ecut=    71.00 Ry     beta= 0.10
     Davidson diagonalization with overlap
     ethr =  2.30E-09,  avg # of iterations =  2.4

     total cpu time spent up to now is    18896.1 secs

     total energy              =  -10536.24686050 Ry
     Harris-Foulkes estimate   =  -10536.24686270 Ry
     estimated scf accuracy    <       0.00001148 Ry

     total magnetization       =     0.00 Bohr mag/cell
     absolute magnetization    =    49.48 Bohr mag/cell

     iteration # 33     ecut=    71.00 Ry     beta= 0.10
     Davidson diagonalization with overlap
     ethr =  2.24E-09,  avg # of iterations =  1.0

     total cpu time spent up to now is    19289.7 secs

     total energy              =  -10536.24686169 Ry
     Harris-Foulkes estimate   =  -10536.24686096 Ry
     estimated scf accuracy    <       0.00000608 Ry

     total magnetization       =     0.00 Bohr mag/cell
     absolute magnetization    =    49.48 Bohr mag/cell

     iteration # 34     ecut=    71.00 Ry     beta= 0.10
     Davidson diagonalization with overlap
     ethr =  1.19E-09,  avg # of iterations =  1.0

     total cpu time spent up to now is    19666.3 secs

     total energy              =  -10536.24686271 Ry
     Harris-Foulkes estimate   =  -10536.24686184 Ry
     estimated scf accuracy    <       0.00000475 Ry

     total magnetization       =     0.00 Bohr mag/cell
     absolute magnetization    =    49.49 Bohr mag/cell

     iteration # 35     ecut=    71.00 Ry     beta= 0.10
     Davidson diagonalization with overlap
     ethr =  9.28E-10,  avg # of iterations =  2.0

     total cpu time spent up to now is    20173.8 secs

     total energy              =  -10536.24686399 Ry
     Harris-Foulkes estimate   =  -10536.24686292 Ry
     estimated scf accuracy    <       0.00000441 Ry

     total magnetization       =     0.00 Bohr mag/cell
     absolute magnetization    =    49.49 Bohr mag/cell

     iteration # 36     ecut=    71.00 Ry     beta= 0.10
     Davidson diagonalization with overlap
     ethr =  8.61E-10,  avg # of iterations =  1.5

     total cpu time spent up to now is    20609.1 secs

     total energy              =  -10536.24686620 Ry
     Harris-Foulkes estimate   =  -10536.24686412 Ry
     estimated scf accuracy    <       0.00000406 Ry

     total magnetization       =     0.00 Bohr mag/cell
     absolute magnetization    =    49.50 Bohr mag/cell

     iteration # 37     ecut=    71.00 Ry     beta= 0.10
     Davidson diagonalization with overlap
     ethr =  7.94E-10,  avg # of iterations =  2.2

     total cpu time spent up to now is    21184.9 secs

     total energy              =  -10536.24686778 Ry
     Harris-Foulkes estimate   =  -10536.24686663 Ry
     estimated scf accuracy    <       0.00000502 Ry

     total magnetization       =     0.00 Bohr mag/cell
     absolute magnetization    =    49.51 Bohr mag/cell

     iteration # 38     ecut=    71.00 Ry     beta= 0.10
     Davidson diagonalization with overlap
     ethr =  7.94E-10,  avg # of iterations =  1.4

     total cpu time spent up to now is    21612.7 secs

     total energy              =  -10536.24686892 Ry
     Harris-Foulkes estimate   =  -10536.24686797 Ry
     estimated scf accuracy    <       0.00000320 Ry

     total magnetization       =     0.00 Bohr mag/cell
     absolute magnetization    =    49.51 Bohr mag/cell

     iteration # 39     ecut=    71.00 Ry     beta= 0.10
     Davidson diagonalization with overlap
     ethr =  6.24E-10,  avg # of iterations =  1.0

     total cpu time spent up to now is    22007.7 secs

     total energy              =  -10536.24687018 Ry
     Harris-Foulkes estimate   =  -10536.24686905 Ry
     estimated scf accuracy    <       0.00000354 Ry

     total magnetization       =     0.00 Bohr mag/cell
     absolute magnetization    =    49.52 Bohr mag/cell

     iteration # 40     ecut=    71.00 Ry     beta= 0.10
     Davidson diagonalization with overlap
     ethr =  6.24E-10,  avg # of iterations =  2.3

     total cpu time spent up to now is    22536.8 secs

     total energy              =  -10536.24687134 Ry
     Harris-Foulkes estimate   =  -10536.24687052 Ry
     estimated scf accuracy    <       0.00000263 Ry

     total magnetization       =     0.00 Bohr mag/cell
     absolute magnetization    =    49.53 Bohr mag/cell

     iteration # 41     ecut=    71.00 Ry     beta= 0.10
     Davidson diagonalization with overlap
     ethr =  5.14E-10,  avg # of iterations =  2.9

     total cpu time spent up to now is    23253.9 secs

     total energy              =  -10536.24687187 Ry
     Harris-Foulkes estimate   =  -10536.24687183 Ry
     estimated scf accuracy    <       0.00000137 Ry

     total magnetization       =     0.00 Bohr mag/cell
     absolute magnetization    =    49.54 Bohr mag/cell

     iteration # 42     ecut=    71.00 Ry     beta= 0.10
     Davidson diagonalization with overlap
     ethr =  2.68E-10,  avg # of iterations =  3.0
 
     Magnetic moment per site:
     atom:    1    charge:   14.3498    magn:    1.4857    constr:    0.0000
     atom:    2    charge:   14.3498    magn:   -1.4898    constr:    0.0000
     atom:    3    charge:   14.3492    magn:    1.4948    constr:    0.0000
     atom:    4    charge:   14.3497    magn:   -1.4907    constr:    0.0000
     atom:    5    charge:   14.3498    magn:    1.4865    constr:    0.0000
     atom:    6    charge:   14.3498    magn:   -1.4891    constr:    0.0000
     atom:    7    charge:   14.3498    magn:    1.4934    constr:    0.0000
     atom:    8    charge:   14.3497    magn:   -1.4907    constr:    0.0000
     atom:    9    charge:   14.3497    magn:    1.4868    constr:    0.0000
     atom:   10    charge:   14.3498    magn:   -1.4898    constr:    0.0000
     atom:   11    charge:   14.3496    magn:    1.4928    constr:    0.0000
     atom:   12    charge:   14.3497    magn:   -1.4907    constr:    0.0000
     atom:   13    charge:   14.3498    magn:    1.4871    constr:    0.0000
     atom:   14    charge:   14.3498    magn:   -1.4891    constr:    0.0000
     atom:   15    charge:   14.3495    magn:    1.4931    constr:    0.0000
     atom:   16    charge:   14.3497    magn:   -1.4907    constr:    0.0000
     atom:   17    charge:   14.3498    magn:    1.4863    constr:    0.0000
     atom:   18    charge:   14.3498    magn:   -1.4898    constr:    0.0000
     atom:   19    charge:   14.3498    magn:    1.4934    constr:    0.0000
     atom:   20    charge:   14.3497    magn:   -1.4905    constr:    0.0000
     atom:   21    charge:   14.3498    magn:    1.4868    constr:    0.0000
     atom:   22    charge:   14.3498    magn:   -1.4891    constr:    0.0000
     atom:   23    charge:   14.3492    magn:    1.4948    constr:    0.0000
     atom:   24    charge:   14.3497    magn:   -1.4905    constr:    0.0000
     atom:   25    charge:   14.3497    magn:    1.4865    constr:    0.0000
     atom:   26    charge:   14.3498    magn:   -1.4898    constr:    0.0000
     atom:   27    charge:   14.3495    magn:    1.4931    constr:    0.0000
     atom:   28    charge:   14.3497    magn:   -1.4905    constr:    0.0000
     atom:   29    charge:   14.3496    magn:    1.4866    constr:    0.0000
     atom:   30    charge:   14.3498    magn:   -1.4891    constr:    0.0000
     atom:   31    charge:   14.3496    magn:    1.4928    constr:    0.0000
     atom:   32    charge:   14.3497    magn:   -1.4905    constr:    0.0000

     total cpu time spent up to now is    23964.6 secs

     End of self-consistent calculation

     Number of k-points >= 100: set verbosity='high' to print the bands.

     the Fermi energy is    20.1184 ev

!    total energy              =  -10536.24687243 Ry
     Harris-Foulkes estimate   =  -10536.24687232 Ry
     estimated scf accuracy    <       0.00000086 Ry

     total all-electron energy =    -81457.735930 Ry

     The total energy is the sum of the following terms:

     one-electron contribution =   -3292.60541679 Ry
     hartree contribution      =    1996.63131343 Ry
     xc contribution           =    -886.96162021 Ry
     ewald contribution        =   -5703.76575254 Ry
     one-center paw contrib.   =   -2649.55999713 Ry
     smearing contrib. (-TS)   =       0.01460080 Ry

     total magnetization       =     0.00 Bohr mag/cell
     absolute magnetization    =    49.56 Bohr mag/cell

     convergence has been achieved in  42 iterations

     Forces acting on atoms (cartesian axes, Ry/au):

     atom    1 type  1   force =     0.00000000    0.00000000    0.00000000
     atom    2 type  2   force =    -0.00000296    0.00003976   -0.00006286
     atom    3 type  3   force =     0.00000553    0.00000000   -0.00003919
     atom    4 type  4   force =    -0.00000655   -0.00003762    0.00001550
     atom    5 type  1   force =     0.00000000    0.00000000    0.00000000
     atom    6 type  2   force =     0.00002500    0.00002610    0.00000726
     atom    7 type  3   force =     0.00002480    0.00000000   -0.00001786
     atom    8 type  4   force =     0.00000655   -0.00003762   -0.00001550
     atom    9 type  1   force =     0.00000000    0.00000000    0.00000000
     atom   10 type  2   force =    -0.00000296   -0.00003976   -0.00006286
     atom   11 type  3   force =    -0.00002539    0.00000000   -0.00001485
     atom   12 type  4   force =    -0.00000655    0.00003762    0.00001550
     atom   13 type  1   force =     0.00000000    0.00000000    0.00000000
     atom   14 type  2   force =     0.00002500   -0.00002610    0.00000726
     atom   15 type  3   force =     0.00006386    0.00000000   -0.00000463
     atom   16 type  4   force =     0.00000655    0.00003762   -0.00001550
     atom   17 type  1   force =     0.00000000    0.00000000    0.00000000
     atom   18 type  2   force =     0.00000296    0.00003976    0.00006286
     atom   19 type  3   force =    -0.00002480    0.00000000    0.00001786
     atom   20 type  4   force =    -0.00004383    0.00000974   -0.00000332
     atom   21 type  1   force =     0.00000000    0.00000000    0.00000000
     atom   22 type  2   force =    -0.00002500    0.00002610   -0.00000726
     atom   23 type  3   force =    -0.00000553    0.00000000    0.00003919
     atom   24 type  4   force =     0.00004383    0.00000974    0.00000332
     atom   25 type  1   force =     0.00000000    0.00000000    0.00000000
     atom   26 type  2   force =     0.00000296   -0.00003976    0.00006286
     atom   27 type  3   force =    -0.00006386    0.00000000    0.00000463
     atom   28 type  4   force =    -0.00004383   -0.00000974   -0.00000332
     atom   29 type  1   force =     0.00000000    0.00000000    0.00000000
     atom   30 type  2   force =    -0.00002500   -0.00002610   -0.00000726
     atom   31 type  3   force =     0.00002539    0.00000000    0.00001485
     atom   32 type  4   force =     0.00004383   -0.00000974    0.00000332

     Total force =     0.000240     Total SCF correction =     0.001410
     SCF correction compared to forces is large: reduce conv_thr to get better values


     Computing stress (Cartesian axis) and pressure

          total   stress  (Ry/bohr**3)                   (kbar)     P=   -0.02
   0.00000104   0.00000000  -0.00024515          0.15      0.00    -36.06
   0.00000000  -0.00000237   0.00000000          0.00     -0.35      0.00
  -0.00024515   0.00000000   0.00000095        -36.06      0.00      0.14


     Writing output data file hCVdmKyOujaCqBUk.save/
-------------------------------------------------------
Primary job  terminated normally, but 1 process returned
a non-zero exit code.. Per user-direction, the job has been aborted.
-------------------------------------------------------
--------------------------------------------------------------------------
mpirun detected that one or more processes exited with non-zero status, thus causing
the job to be terminated. The first process to do so was:

  Process name: [[7159,1],0]
  Exit code:    38
--------------------------------------------------------------------------
