--------------------------------------------------------------------------
WARNING: No preset parameters were found for the device that Open MPI
detected:

  Local host:            bear-pg0206u13b
  Device name:           mlx5_0
  Device vendor ID:      0x02c9
  Device vendor part ID: 4123

Default device parameters will be used, which may result in lower
performance.  You can edit any of the files specified by the
btl_openib_device_param_files MCA parameter to set values for your
device.

NOTE: You can turn off this warning by setting the MCA parameter
      btl_openib_warn_no_device_params_found to 0.
--------------------------------------------------------------------------
--------------------------------------------------------------------------
WARNING: There was an error initializing an OpenFabrics device.

  Local host:   bear-pg0206u13b
  Local device: mlx5_0
--------------------------------------------------------------------------

     Program PWSCF v.6.3 starts on 12Oct2020 at  8: 2:16 

     This program is part of the open-source Quantum ESPRESSO suite
     for quantum simulation of materials; please cite
         "P. Giannozzi et al., J. Phys.:Condens. Matter 21 395502 (2009);
         "P. Giannozzi et al., J. Phys.:Condens. Matter 29 465901 (2017);
          URL http://www.quantum-espresso.org", 
     in publications or presentations arising from this work. More details at
     http://www.quantum-espresso.org/quote

     Parallel version (MPI & OpenMP), running on      40 processor cores
     Number of MPI processes:                40
     Threads/MPI process:                     1

     MPI processes distributed on     1 nodes
     R & G space division:  proc/nbgrp/npool/nimage =      40
     Reading input from wd/ec/ec_3_005.in
Warning: card &IONS ignored
Warning: card ION_DYNAMICS = 'BFGS', ignored
Warning: card / ignored
Warning: card &CELL ignored
Warning: card CELL_DYNAMICS = 'BFGS', ignored
Warning: card CELL_FACTOR = 2.0, ignored
Warning: card PRESS = 0.0, ignored
Warning: card / ignored

     Current dimensions of program PWSCF are:
     Max number of different atomic species (ntypx) = 10
     Max number of k-points (npk) =  40000
     Max angular momentum in pseudopotentials (lmaxx) =  3
               file Fe.pbe-spn-kjpaw_psl.1.0.0.UPF: wavefunction(s)  3P 3D renormalized
               file Fe.pbe-spn-kjpaw_psl.1.0.0.UPF: wavefunction(s)  3P 3D renormalized
               file Fe.pbe-spn-kjpaw_psl.1.0.0.UPF: wavefunction(s)  3P 3D renormalized
               file Fe.pbe-spn-kjpaw_psl.1.0.0.UPF: wavefunction(s)  3P 3D renormalized

     Subspace diagonalization in iterative solution of the eigenvalue problem:
     a serial algorithm will be used

     Found symmetry operation: I + (  0.0000  0.0000 -0.5000)
     This is a supercell, fractional translations are disabled
 
     Parallelization info
     --------------------
     sticks:   dense  smooth     PW     G-vecs:    dense   smooth      PW
     Min         150      99     27                 8650     4643     667
     Max         151     100     28                 8655     4648     672
     Sum        6035    3993   1103               346099   185809   26775
 


     bravais-lattice index     =            0
     lattice parameter (alat)  =      12.9382  a.u.
     unit-cell volume          =    2298.9844 (a.u.)^3
     number of atoms/cell      =           32
     number of atomic types    =            4
     number of electrons       =       512.00
     number of Kohn-Sham states=          307
     kinetic-energy cutoff     =      71.0000  Ry
     charge density cutoff     =     430.0000  Ry
     convergence threshold     =      1.0E-06
     mixing beta               =       0.1000
     number of iterations used =           10  plain     mixing
     Exchange-correlation      = SLA PW PBX PBC ( 1  4  3  4 0 0)

     celldm(1)=  12.938187  celldm(2)=   0.000000  celldm(3)=   0.000000
     celldm(4)=   0.000000  celldm(5)=   0.000000  celldm(6)=   0.000000

     crystal axes: (cart. coord. in units of alat)
               a(1) = (   1.000000   0.000000   0.000000 )  
               a(2) = (   0.000000   1.054474   0.000000 )  
               a(3) = (   0.000000   0.000000   1.006654 )  

     reciprocal axes: (cart. coord. in units 2 pi/alat)
               b(1) = (  1.000000  0.000000  0.000000 )  
               b(2) = (  0.000000  0.948340  0.000000 )  
               b(3) = (  0.000000  0.000000  0.993390 )  


     PseudoPot. # 1 for Fe read from file:
     /rds/homes/b/bxp912/pp/Fe.pbe-spn-kjpaw_psl.1.0.0.UPF
     MD5 check sum: 42f43b795421b414b0dc916aa790dbcb
     Pseudo is Projector augmented-wave + core cor, Zval = 16.0
     Generated using "atomic" code by A. Dal Corso v.6.3
     Shape of augmentation charge: PSQ
     Using radial grid of 1191 points,  6 beta functions with: 
                l(1) =   0
                l(2) =   0
                l(3) =   1
                l(4) =   1
                l(5) =   2
                l(6) =   2
     Q(r) pseudized with 0 coefficients 


     PseudoPot. # 2 for Fe read from file:
     /rds/homes/b/bxp912/pp/Fe.pbe-spn-kjpaw_psl.1.0.0.UPF
     MD5 check sum: 42f43b795421b414b0dc916aa790dbcb
     Pseudo is Projector augmented-wave + core cor, Zval = 16.0
     Generated using "atomic" code by A. Dal Corso v.6.3
     Shape of augmentation charge: PSQ
     Using radial grid of 1191 points,  6 beta functions with: 
                l(1) =   0
                l(2) =   0
                l(3) =   1
                l(4) =   1
                l(5) =   2
                l(6) =   2
     Q(r) pseudized with 0 coefficients 


     PseudoPot. # 3 for Fe read from file:
     /rds/homes/b/bxp912/pp/Fe.pbe-spn-kjpaw_psl.1.0.0.UPF
     MD5 check sum: 42f43b795421b414b0dc916aa790dbcb
     Pseudo is Projector augmented-wave + core cor, Zval = 16.0
     Generated using "atomic" code by A. Dal Corso v.6.3
     Shape of augmentation charge: PSQ
     Using radial grid of 1191 points,  6 beta functions with: 
                l(1) =   0
                l(2) =   0
                l(3) =   1
                l(4) =   1
                l(5) =   2
                l(6) =   2
     Q(r) pseudized with 0 coefficients 


     PseudoPot. # 4 for Fe read from file:
     /rds/homes/b/bxp912/pp/Fe.pbe-spn-kjpaw_psl.1.0.0.UPF
     MD5 check sum: 42f43b795421b414b0dc916aa790dbcb
     Pseudo is Projector augmented-wave + core cor, Zval = 16.0
     Generated using "atomic" code by A. Dal Corso v.6.3
     Shape of augmentation charge: PSQ
     Using radial grid of 1191 points,  6 beta functions with: 
                l(1) =   0
                l(2) =   0
                l(3) =   1
                l(4) =   1
                l(5) =   2
                l(6) =   2
     Q(r) pseudized with 0 coefficients 


     atomic species   valence    mass     pseudopotential
        Fe1           16.00    55.84500     Fe( 1.00)
        Fe2           16.00    55.84500     Fe( 1.00)
        Fe3           16.00    55.84500     Fe( 1.00)
        Fe4           16.00    55.84500     Fe( 1.00)

     Starting magnetic structure 
     atomic species   magnetization
        Fe1          0.100
        Fe2         -0.100
        Fe3          0.100
        Fe4         -0.100

      8 Sym. Ops., with inversion, found



   Cartesian axes

     site n.     atom                  positions (alat units)
         1           Fe1 tau(   1) = (   0.0000000   0.0000000   0.0000000  )
         2           Fe2 tau(   2) = (   0.2499968   0.2636211   0.0000000  )
         3           Fe3 tau(   3) = (   0.2499981   0.0000000   0.2516614  )
         4           Fe4 tau(   4) = (   0.0000000   0.2636197   0.2516674  )
         5           Fe1 tau(   5) = (   0.0000000   0.0000000   0.5033268  )
         6           Fe2 tau(   6) = (   0.2499996   0.2636239   0.5033268  )
         7           Fe3 tau(   7) = (   0.2499981   0.0000000   0.7549912  )
         8           Fe4 tau(   8) = (   0.0000000   0.2636197   0.7549851  )
         9           Fe1 tau(   9) = (   0.0000000   0.5272369   0.0000000  )
        10           Fe2 tau(  10) = (   0.2499968   0.7908529   0.0000000  )
        11           Fe3 tau(  11) = (   0.2500004   0.5272369   0.2516654  )
        12           Fe4 tau(  12) = (   0.0000000   0.7908543   0.2516674  )
        13           Fe1 tau(  13) = (   0.0000000   0.5272369   0.5033268  )
        14           Fe2 tau(  14) = (   0.2499996   0.7908501   0.5033268  )
        15           Fe3 tau(  15) = (   0.2500004   0.5272369   0.7549882  )
        16           Fe4 tau(  16) = (   0.0000000   0.7908543   0.7549851  )
        17           Fe1 tau(  17) = (   0.4999998   0.0000000   0.0000000  )
        18           Fe2 tau(  18) = (   0.7500027   0.2636211   0.0000000  )
        19           Fe3 tau(  19) = (   0.7500015   0.0000000   0.2516614  )
        20           Fe4 tau(  20) = (   0.4999998   0.2636187   0.2516654  )
        21           Fe1 tau(  21) = (   0.4999998   0.0000000   0.5033268  )
        22           Fe2 tau(  22) = (   0.7499998   0.2636239   0.5033268  )
        23           Fe3 tau(  23) = (   0.7500015   0.0000000   0.7549912  )
        24           Fe4 tau(  24) = (   0.4999998   0.2636187   0.7549871  )
        25           Fe1 tau(  25) = (   0.4999998   0.5272369   0.0000000  )
        26           Fe2 tau(  26) = (   0.7500027   0.7908529   0.0000000  )
        27           Fe3 tau(  27) = (   0.7499992   0.5272369   0.2516654  )
        28           Fe4 tau(  28) = (   0.4999998   0.7908553   0.2516654  )
        29           Fe1 tau(  29) = (   0.4999998   0.5272369   0.5033268  )
        30           Fe2 tau(  30) = (   0.7499998   0.7908501   0.5033268  )
        31           Fe3 tau(  31) = (   0.7499992   0.5272369   0.7549882  )
        32           Fe4 tau(  32) = (   0.4999998   0.7908553   0.7549871  )

     number of k points=   125  Marzari-Vanderbilt smearing, width (Ry)=  0.0400

     Number of k-points >= 100: set verbosity='high' to print them.

     Dense  grid:   346099 G-vectors     FFT dimensions: (  90,  96,  90)

     Smooth grid:   185809 G-vectors     FFT dimensions: (  72,  75,  72)

     Estimated max dynamical RAM per process >     815.91 MB

     Estimated total dynamical RAM >      31.87 GB
     Generating pointlists ...
     new r_m :   0.1463 (alat units)  1.8932 (a.u.) for type    1
     new r_m :   0.1463 (alat units)  1.8932 (a.u.) for type    2
     new r_m :   0.1463 (alat units)  1.8932 (a.u.) for type    3
     new r_m :   0.1463 (alat units)  1.8932 (a.u.) for type    4

     Check: negative/imaginary core charge=   -0.000006    0.000000

     Initial potential from superposition of free atoms

     starting charge  511.98600, renormalised to  512.00000
     Starting wfcs are  320 randomized atomic wfcs
     Checking if some PAW data can be deallocated... 

     total cpu time spent up to now is       84.6 secs

     Self-consistent Calculation

     iteration #  1     ecut=    71.00 Ry     beta= 0.10
     Davidson diagonalization with overlap
     ethr =  1.00E-02,  avg # of iterations =  3.5

     Threshold (ethr) on eigenvalues was too large:
     Diagonalizing with lowered threshold

     Davidson diagonalization with overlap
     ethr =  3.14E-04,  avg # of iterations =  4.0

     total cpu time spent up to now is     1040.1 secs

     total energy              =  -10536.43245168 Ry
     Harris-Foulkes estimate   =  -10536.77020984 Ry
     estimated scf accuracy    <       1.85693968 Ry

     total magnetization       =     0.24 Bohr mag/cell
     absolute magnetization    =    44.44 Bohr mag/cell

     iteration #  2     ecut=    71.00 Ry     beta= 0.10
     Davidson diagonalization with overlap
     ethr =  3.63E-04,  avg # of iterations =  1.0

     total cpu time spent up to now is     1275.3 secs

     total energy              =  -10536.21764871 Ry
     Harris-Foulkes estimate   =  -10536.47778472 Ry
     estimated scf accuracy    <       1.10290626 Ry

     total magnetization       =    -0.12 Bohr mag/cell
     absolute magnetization    =    45.17 Bohr mag/cell

     iteration #  3     ecut=    71.00 Ry     beta= 0.10
     Davidson diagonalization with overlap
     ethr =  2.15E-04,  avg # of iterations =  2.3

     total cpu time spent up to now is     1595.6 secs

     total energy              =  -10536.08345891 Ry
     Harris-Foulkes estimate   =  -10536.35491002 Ry
     estimated scf accuracy    <       2.68044470 Ry

     total magnetization       =     0.24 Bohr mag/cell
     absolute magnetization    =    45.56 Bohr mag/cell

     iteration #  4     ecut=    71.00 Ry     beta= 0.10
     Davidson diagonalization with overlap
     ethr =  2.15E-04,  avg # of iterations =  2.4

     total cpu time spent up to now is     1916.3 secs

     total energy              =  -10536.18440184 Ry
     Harris-Foulkes estimate   =  -10536.21602015 Ry
     estimated scf accuracy    <       0.52319696 Ry

     total magnetization       =     0.36 Bohr mag/cell
     absolute magnetization    =    46.59 Bohr mag/cell

     iteration #  5     ecut=    71.00 Ry     beta= 0.10
     Davidson diagonalization with overlap
     ethr =  1.02E-04,  avg # of iterations =  1.3

     total cpu time spent up to now is     2177.7 secs

     total energy              =  -10536.19520472 Ry
     Harris-Foulkes estimate   =  -10536.20394144 Ry
     estimated scf accuracy    <       0.08335606 Ry

     total magnetization       =     0.02 Bohr mag/cell
     absolute magnetization    =    46.74 Bohr mag/cell

     iteration #  6     ecut=    71.00 Ry     beta= 0.10
     Davidson diagonalization with overlap
     ethr =  1.63E-05,  avg # of iterations =  3.6

     total cpu time spent up to now is     2577.1 secs

     total energy              =  -10536.18642296 Ry
     Harris-Foulkes estimate   =  -10536.19862780 Ry
     estimated scf accuracy    <       0.06840238 Ry

     total magnetization       =    -0.11 Bohr mag/cell
     absolute magnetization    =    46.70 Bohr mag/cell

     iteration #  7     ecut=    71.00 Ry     beta= 0.10
     Davidson diagonalization with overlap
     ethr =  1.34E-05,  avg # of iterations =  3.7

     total cpu time spent up to now is     3142.6 secs

     total energy              =  -10536.20262523 Ry
     Harris-Foulkes estimate   =  -10536.20717854 Ry
     estimated scf accuracy    <       0.09301859 Ry

     total magnetization       =     0.05 Bohr mag/cell
     absolute magnetization    =    46.88 Bohr mag/cell

     iteration #  8     ecut=    71.00 Ry     beta= 0.10
     Davidson diagonalization with overlap
     ethr =  1.34E-05,  avg # of iterations =  2.0

     total cpu time spent up to now is     3445.6 secs

     total energy              =  -10536.20464883 Ry
     Harris-Foulkes estimate   =  -10536.20660350 Ry
     estimated scf accuracy    <       0.06706356 Ry

     total magnetization       =     0.05 Bohr mag/cell
     absolute magnetization    =    47.16 Bohr mag/cell

     iteration #  9     ecut=    71.00 Ry     beta= 0.10
     Davidson diagonalization with overlap
     ethr =  1.31E-05,  avg # of iterations =  1.0

     total cpu time spent up to now is     3677.9 secs

     total energy              =  -10536.21349745 Ry
     Harris-Foulkes estimate   =  -10536.20585120 Ry
     estimated scf accuracy    <       0.03818016 Ry

     total magnetization       =     0.01 Bohr mag/cell
     absolute magnetization    =    47.28 Bohr mag/cell

     iteration # 10     ecut=    71.00 Ry     beta= 0.10
     Davidson diagonalization with overlap
     ethr =  7.46E-06,  avg # of iterations =  2.3

     total cpu time spent up to now is     4016.9 secs

     total energy              =  -10536.23688938 Ry
     Harris-Foulkes estimate   =  -10536.21536211 Ry
     estimated scf accuracy    <       0.03251246 Ry

     total magnetization       =    -0.07 Bohr mag/cell
     absolute magnetization    =    47.55 Bohr mag/cell

     iteration # 11     ecut=    71.00 Ry     beta= 0.10
     Davidson diagonalization with overlap
     ethr =  6.35E-06,  avg # of iterations =  3.8

     total cpu time spent up to now is     4572.4 secs

     total energy              =  -10536.25135439 Ry
     Harris-Foulkes estimate   =  -10536.24859292 Ry
     estimated scf accuracy    <       0.03077643 Ry

     total magnetization       =    -0.13 Bohr mag/cell
     absolute magnetization    =    48.39 Bohr mag/cell

     iteration # 12     ecut=    71.00 Ry     beta= 0.10
     Davidson diagonalization with overlap
     ethr =  6.01E-06,  avg # of iterations =  1.0

     total cpu time spent up to now is     4818.3 secs

     total energy              =  -10536.25207785 Ry
     Harris-Foulkes estimate   =  -10536.25237059 Ry
     estimated scf accuracy    <       0.02004820 Ry

     total magnetization       =    -0.07 Bohr mag/cell
     absolute magnetization    =    48.58 Bohr mag/cell

     iteration # 13     ecut=    71.00 Ry     beta= 0.10
     Davidson diagonalization with overlap
     ethr =  3.92E-06,  avg # of iterations =  2.0

     total cpu time spent up to now is     5124.5 secs

     total energy              =  -10536.25324761 Ry
     Harris-Foulkes estimate   =  -10536.25321428 Ry
     estimated scf accuracy    <       0.00286954 Ry

     total magnetization       =    -0.01 Bohr mag/cell
     absolute magnetization    =    48.81 Bohr mag/cell

     iteration # 14     ecut=    71.00 Ry     beta= 0.10
     Davidson diagonalization with overlap
     ethr =  5.60E-07,  avg # of iterations =  3.2

     total cpu time spent up to now is     5524.3 secs

     total energy              =  -10536.25352121 Ry
     Harris-Foulkes estimate   =  -10536.25343279 Ry
     estimated scf accuracy    <       0.00126111 Ry

     total magnetization       =    -0.02 Bohr mag/cell
     absolute magnetization    =    48.87 Bohr mag/cell

     iteration # 15     ecut=    71.00 Ry     beta= 0.10
     Davidson diagonalization with overlap
     ethr =  2.46E-07,  avg # of iterations =  1.1

     total cpu time spent up to now is     5775.6 secs

     total energy              =  -10536.25371484 Ry
     Harris-Foulkes estimate   =  -10536.25355238 Ry
     estimated scf accuracy    <       0.00092593 Ry

     total magnetization       =    -0.01 Bohr mag/cell
     absolute magnetization    =    48.95 Bohr mag/cell

     iteration # 16     ecut=    71.00 Ry     beta= 0.10
     Davidson diagonalization with overlap
     ethr =  1.81E-07,  avg # of iterations =  2.0

     total cpu time spent up to now is     6069.1 secs

     total energy              =  -10536.25382111 Ry
     Harris-Foulkes estimate   =  -10536.25378524 Ry
     estimated scf accuracy    <       0.00080656 Ry

     total magnetization       =     0.00 Bohr mag/cell
     absolute magnetization    =    49.08 Bohr mag/cell

     iteration # 17     ecut=    71.00 Ry     beta= 0.10
     Davidson diagonalization with overlap
     ethr =  1.58E-07,  avg # of iterations =  1.2

     total cpu time spent up to now is     6313.1 secs

     total energy              =  -10536.25390834 Ry
     Harris-Foulkes estimate   =  -10536.25386117 Ry
     estimated scf accuracy    <       0.00066041 Ry

     total magnetization       =    -0.03 Bohr mag/cell
     absolute magnetization    =    49.13 Bohr mag/cell

     iteration # 18     ecut=    71.00 Ry     beta= 0.10
     Davidson diagonalization with overlap
     ethr =  1.29E-07,  avg # of iterations =  1.4

     total cpu time spent up to now is     6583.5 secs

     total energy              =  -10536.25401217 Ry
     Harris-Foulkes estimate   =  -10536.25393307 Ry
     estimated scf accuracy    <       0.00046949 Ry

     total magnetization       =    -0.01 Bohr mag/cell
     absolute magnetization    =    49.18 Bohr mag/cell

     iteration # 19     ecut=    71.00 Ry     beta= 0.10
     Davidson diagonalization with overlap
     ethr =  9.17E-08,  avg # of iterations =  1.4

     total cpu time spent up to now is     6834.8 secs

     total energy              =  -10536.25412963 Ry
     Harris-Foulkes estimate   =  -10536.25402851 Ry
     estimated scf accuracy    <       0.00043530 Ry

     total magnetization       =    -0.00 Bohr mag/cell
     absolute magnetization    =    49.23 Bohr mag/cell

     iteration # 20     ecut=    71.00 Ry     beta= 0.10
     Davidson diagonalization with overlap
     ethr =  8.50E-08,  avg # of iterations =  2.0

     total cpu time spent up to now is     7132.1 secs

     total energy              =  -10536.25429789 Ry
     Harris-Foulkes estimate   =  -10536.25414953 Ry
     estimated scf accuracy    <       0.00037502 Ry

     total magnetization       =    -0.01 Bohr mag/cell
     absolute magnetization    =    49.30 Bohr mag/cell

     iteration # 21     ecut=    71.00 Ry     beta= 0.10
     Davidson diagonalization with overlap
     ethr =  7.32E-08,  avg # of iterations =  3.0

     total cpu time spent up to now is     7533.8 secs

     total energy              =  -10536.25434624 Ry
     Harris-Foulkes estimate   =  -10536.25437051 Ry
     estimated scf accuracy    <       0.00034515 Ry

     total magnetization       =    -0.01 Bohr mag/cell
     absolute magnetization    =    49.51 Bohr mag/cell

     iteration # 22     ecut=    71.00 Ry     beta= 0.10
     Davidson diagonalization with overlap
     ethr =  6.74E-08,  avg # of iterations =  1.0

     total cpu time spent up to now is     7765.8 secs

     total energy              =  -10536.25442956 Ry
     Harris-Foulkes estimate   =  -10536.25436270 Ry
     estimated scf accuracy    <       0.00017388 Ry

     total magnetization       =    -0.01 Bohr mag/cell
     absolute magnetization    =    49.54 Bohr mag/cell

     iteration # 23     ecut=    71.00 Ry     beta= 0.10
     Davidson diagonalization with overlap
     ethr =  3.40E-08,  avg # of iterations =  2.1

     total cpu time spent up to now is     8069.8 secs

     total energy              =  -10536.25446781 Ry
     Harris-Foulkes estimate   =  -10536.25444946 Ry
     estimated scf accuracy    <       0.00010458 Ry

     total magnetization       =    -0.01 Bohr mag/cell
     absolute magnetization    =    49.64 Bohr mag/cell

     iteration # 24     ecut=    71.00 Ry     beta= 0.10
     Davidson diagonalization with overlap
     ethr =  2.04E-08,  avg # of iterations =  2.4

     total cpu time spent up to now is     8406.0 secs

     total energy              =  -10536.25447094 Ry
     Harris-Foulkes estimate   =  -10536.25447450 Ry
     estimated scf accuracy    <       0.00009512 Ry

     total magnetization       =    -0.00 Bohr mag/cell
     absolute magnetization    =    49.69 Bohr mag/cell

     iteration # 25     ecut=    71.00 Ry     beta= 0.10
     Davidson diagonalization with overlap
     ethr =  1.86E-08,  avg # of iterations =  3.2

     total cpu time spent up to now is     8869.4 secs

     total energy              =  -10536.25450224 Ry
     Harris-Foulkes estimate   =  -10536.25450455 Ry
     estimated scf accuracy    <       0.00006108 Ry

     total magnetization       =    -0.00 Bohr mag/cell
     absolute magnetization    =    49.82 Bohr mag/cell

     iteration # 26     ecut=    71.00 Ry     beta= 0.10
     Davidson diagonalization with overlap
     ethr =  1.19E-08,  avg # of iterations =  1.0

     total cpu time spent up to now is     9100.9 secs

     total energy              =  -10536.25450719 Ry
     Harris-Foulkes estimate   =  -10536.25450682 Ry
     estimated scf accuracy    <       0.00007058 Ry

     total magnetization       =    -0.00 Bohr mag/cell
     absolute magnetization    =    49.83 Bohr mag/cell

     iteration # 27     ecut=    71.00 Ry     beta= 0.10
     Davidson diagonalization with overlap
     ethr =  1.19E-08,  avg # of iterations =  1.0

     total cpu time spent up to now is     9340.8 secs

     total energy              =  -10536.25451809 Ry
     Harris-Foulkes estimate   =  -10536.25451140 Ry
     estimated scf accuracy    <       0.00003215 Ry

     total magnetization       =    -0.00 Bohr mag/cell
     absolute magnetization    =    49.87 Bohr mag/cell

     iteration # 28     ecut=    71.00 Ry     beta= 0.10
     Davidson diagonalization with overlap
     ethr =  6.28E-09,  avg # of iterations =  1.2

     total cpu time spent up to now is     9588.6 secs

     total energy              =  -10536.25452791 Ry
     Harris-Foulkes estimate   =  -10536.25452020 Ry
     estimated scf accuracy    <       0.00002486 Ry

     total magnetization       =    -0.00 Bohr mag/cell
     absolute magnetization    =    49.90 Bohr mag/cell

     iteration # 29     ecut=    71.00 Ry     beta= 0.10
     Davidson diagonalization with overlap
     ethr =  4.85E-09,  avg # of iterations =  3.0

     total cpu time spent up to now is    10010.0 secs

     total energy              =  -10536.25453412 Ry
     Harris-Foulkes estimate   =  -10536.25453249 Ry
     estimated scf accuracy    <       0.00001065 Ry

     total magnetization       =    -0.00 Bohr mag/cell
     absolute magnetization    =    49.94 Bohr mag/cell

     iteration # 30     ecut=    71.00 Ry     beta= 0.10
     Davidson diagonalization with overlap
     ethr =  2.08E-09,  avg # of iterations =  1.3

     total cpu time spent up to now is    10272.1 secs

     total energy              =  -10536.25453580 Ry
     Harris-Foulkes estimate   =  -10536.25453471 Ry
     estimated scf accuracy    <       0.00001117 Ry

     total magnetization       =    -0.00 Bohr mag/cell
     absolute magnetization    =    49.95 Bohr mag/cell

     iteration # 31     ecut=    71.00 Ry     beta= 0.10
     Davidson diagonalization with overlap
     ethr =  2.08E-09,  avg # of iterations =  2.4

     total cpu time spent up to now is    10607.8 secs

     total energy              =  -10536.25453780 Ry
     Harris-Foulkes estimate   =  -10536.25453685 Ry
     estimated scf accuracy    <       0.00000637 Ry

     total magnetization       =    -0.00 Bohr mag/cell
     absolute magnetization    =    49.97 Bohr mag/cell

     iteration # 32     ecut=    71.00 Ry     beta= 0.10
     Davidson diagonalization with overlap
     ethr =  1.24E-09,  avg # of iterations =  2.1

     total cpu time spent up to now is    10913.8 secs

     total energy              =  -10536.25453919 Ry
     Harris-Foulkes estimate   =  -10536.25453855 Ry
     estimated scf accuracy    <       0.00001156 Ry

     total magnetization       =    -0.00 Bohr mag/cell
     absolute magnetization    =    49.98 Bohr mag/cell

     iteration # 33     ecut=    71.00 Ry     beta= 0.10
     Davidson diagonalization with overlap
     ethr =  1.24E-09,  avg # of iterations =  2.3

     total cpu time spent up to now is    11243.9 secs

     total energy              =  -10536.25454104 Ry
     Harris-Foulkes estimate   =  -10536.25454008 Ry
     estimated scf accuracy    <       0.00000400 Ry

     total magnetization       =    -0.00 Bohr mag/cell
     absolute magnetization    =    49.99 Bohr mag/cell

     iteration # 34     ecut=    71.00 Ry     beta= 0.10
     Davidson diagonalization with overlap
     ethr =  7.81E-10,  avg # of iterations =  3.1
 
     Magnetic moment per site:
     atom:    1    charge:   14.4032    magn:    1.5058    constr:    0.0000
     atom:    2    charge:   14.4037    magn:   -1.5057    constr:    0.0000
     atom:    3    charge:   14.4031    magn:    1.5084    constr:    0.0000
     atom:    4    charge:   14.4036    magn:   -1.5099    constr:    0.0000
     atom:    5    charge:   14.4037    magn:    1.5064    constr:    0.0000
     atom:    6    charge:   14.4037    magn:   -1.5050    constr:    0.0000
     atom:    7    charge:   14.4031    magn:    1.5084    constr:    0.0000
     atom:    8    charge:   14.4036    magn:   -1.5099    constr:    0.0000
     atom:    9    charge:   14.4033    magn:    1.5065    constr:    0.0000
     atom:   10    charge:   14.4037    magn:   -1.5057    constr:    0.0000
     atom:   11    charge:   14.4032    magn:    1.5079    constr:    0.0000
     atom:   12    charge:   14.4036    magn:   -1.5099    constr:    0.0000
     atom:   13    charge:   14.4034    magn:    1.5071    constr:    0.0000
     atom:   14    charge:   14.4037    magn:   -1.5050    constr:    0.0000
     atom:   15    charge:   14.4032    magn:    1.5079    constr:    0.0000
     atom:   16    charge:   14.4036    magn:   -1.5099    constr:    0.0000
     atom:   17    charge:   14.4034    magn:    1.5069    constr:    0.0000
     atom:   18    charge:   14.4037    magn:   -1.5057    constr:    0.0000
     atom:   19    charge:   14.4031    magn:    1.5084    constr:    0.0000
     atom:   20    charge:   14.4036    magn:   -1.5090    constr:    0.0000
     atom:   21    charge:   14.4035    magn:    1.5073    constr:    0.0000
     atom:   22    charge:   14.4037    magn:   -1.5050    constr:    0.0000
     atom:   23    charge:   14.4031    magn:    1.5084    constr:    0.0000
     atom:   24    charge:   14.4036    magn:   -1.5090    constr:    0.0000
     atom:   25    charge:   14.4034    magn:    1.5059    constr:    0.0000
     atom:   26    charge:   14.4037    magn:   -1.5057    constr:    0.0000
     atom:   27    charge:   14.4032    magn:    1.5079    constr:    0.0000
     atom:   28    charge:   14.4036    magn:   -1.5090    constr:    0.0000
     atom:   29    charge:   14.4036    magn:    1.5058    constr:    0.0000
     atom:   30    charge:   14.4037    magn:   -1.5050    constr:    0.0000
     atom:   31    charge:   14.4032    magn:    1.5079    constr:    0.0000
     atom:   32    charge:   14.4036    magn:   -1.5090    constr:    0.0000

     total cpu time spent up to now is    11692.2 secs

     End of self-consistent calculation

     Number of k-points >= 100: set verbosity='high' to print the bands.

     the Fermi energy is    19.9655 ev

!    total energy              =  -10536.25454269 Ry
     Harris-Foulkes estimate   =  -10536.25454228 Ry
     estimated scf accuracy    <       0.00000072 Ry

     total all-electron energy =    -81457.743601 Ry

     The total energy is the sum of the following terms:

     one-electron contribution =   -3312.11861310 Ry
     hartree contribution      =    2003.52974835 Ry
     xc contribution           =    -886.80581326 Ry
     ewald contribution        =   -5691.31128467 Ry
     one-center paw contrib.   =   -2649.55919895 Ry
     smearing contrib. (-TS)   =       0.01061894 Ry

     total magnetization       =    -0.00 Bohr mag/cell
     absolute magnetization    =    50.02 Bohr mag/cell

     convergence has been achieved in  34 iterations

     Forces acting on atoms (cartesian axes, Ry/au):

     atom    1 type  1   force =     0.00000000    0.00000000    0.00000000
     atom    2 type  2   force =     0.00006363   -0.00000186    0.00000000
     atom    3 type  3   force =     0.00013411    0.00000000    0.00004895
     atom    4 type  4   force =     0.00000000   -0.00008203   -0.00013125
     atom    5 type  1   force =     0.00000000    0.00000000    0.00000000
     atom    6 type  2   force =     0.00004119   -0.00010403    0.00000000
     atom    7 type  3   force =     0.00013411    0.00000000   -0.00004895
     atom    8 type  4   force =     0.00000000   -0.00008203    0.00013125
     atom    9 type  1   force =     0.00000000    0.00000000    0.00000000
     atom   10 type  2   force =     0.00006363    0.00000186    0.00000000
     atom   11 type  3   force =     0.00002789   -0.00000000   -0.00000924
     atom   12 type  4   force =     0.00000000    0.00008203   -0.00013125
     atom   13 type  1   force =     0.00000000    0.00000000    0.00000000
     atom   14 type  2   force =     0.00004119    0.00010403    0.00000000
     atom   15 type  3   force =     0.00002789    0.00000000    0.00000924
     atom   16 type  4   force =     0.00000000    0.00008203    0.00013125
     atom   17 type  1   force =     0.00000000    0.00000000    0.00000000
     atom   18 type  2   force =    -0.00006363   -0.00000186    0.00000000
     atom   19 type  3   force =    -0.00013411    0.00000000    0.00004895
     atom   20 type  4   force =     0.00000000    0.00006658   -0.00007930
     atom   21 type  1   force =     0.00000000    0.00000000    0.00000000
     atom   22 type  2   force =    -0.00004119   -0.00010403    0.00000000
     atom   23 type  3   force =    -0.00013411    0.00000000   -0.00004895
     atom   24 type  4   force =     0.00000000    0.00006658    0.00007930
     atom   25 type  1   force =     0.00000000    0.00000000    0.00000000
     atom   26 type  2   force =    -0.00006363    0.00000186    0.00000000
     atom   27 type  3   force =    -0.00002789    0.00000000   -0.00000924
     atom   28 type  4   force =     0.00000000   -0.00006658   -0.00007930
     atom   29 type  1   force =     0.00000000    0.00000000    0.00000000
     atom   30 type  2   force =    -0.00004119    0.00010403    0.00000000
     atom   31 type  3   force =    -0.00002789   -0.00000000    0.00000924
     atom   32 type  4   force =     0.00000000   -0.00006658    0.00007930

     Total force =     0.000538     Total SCF correction =     0.003800
     SCF correction compared to forces is large: reduce conv_thr to get better values


     Computing stress (Cartesian axis) and pressure

          total   stress  (Ry/bohr**3)                   (kbar)     P=  -15.49
  -0.00010274   0.00000000   0.00000000        -15.11      0.00      0.00
   0.00000000  -0.00005429   0.00000000          0.00     -7.99      0.00
   0.00000000   0.00000000  -0.00015881          0.00      0.00    -23.36


     Writing output data file bAkjWLEOVyTwTMuV.save/
-------------------------------------------------------
Primary job  terminated normally, but 1 process returned
a non-zero exit code.. Per user-direction, the job has been aborted.
-------------------------------------------------------
--------------------------------------------------------------------------
mpirun detected that one or more processes exited with non-zero status, thus causing
the job to be terminated. The first process to do so was:

  Process name: [[24644,1],0]
  Exit code:    38
--------------------------------------------------------------------------
