
     Program PWSCF v.6.3 starts on 18Oct2020 at  2:46:48 

     This program is part of the open-source Quantum ESPRESSO suite
     for quantum simulation of materials; please cite
         "P. Giannozzi et al., J. Phys.:Condens. Matter 21 395502 (2009);
         "P. Giannozzi et al., J. Phys.:Condens. Matter 29 465901 (2017);
          URL http://www.quantum-espresso.org", 
     in publications or presentations arising from this work. More details at
     http://www.quantum-espresso.org/quote

     Parallel version (MPI & OpenMP), running on      40 processor cores
     Number of MPI processes:                40
     Threads/MPI process:                     1

     MPI processes distributed on     1 nodes
     R & G space division:  proc/nbgrp/npool/nimage =      40
     Reading input from wd/ec/ec_6_006.in
Warning: card &IONS ignored
Warning: card ION_DYNAMICS = 'BFGS', ignored
Warning: card / ignored
Warning: card &CELL ignored
Warning: card CELL_DYNAMICS = 'BFGS', ignored
Warning: card CELL_FACTOR = 2.0, ignored
Warning: card PRESS = 0.0, ignored
Warning: card / ignored

     Current dimensions of program PWSCF are:
     Max number of different atomic species (ntypx) = 10
     Max number of k-points (npk) =  40000
     Max angular momentum in pseudopotentials (lmaxx) =  3
               file Fe.pbe-spn-kjpaw_psl.1.0.0.UPF: wavefunction(s)  3P 3D renormalized
               file Fe.pbe-spn-kjpaw_psl.1.0.0.UPF: wavefunction(s)  3P 3D renormalized
               file Fe.pbe-spn-kjpaw_psl.1.0.0.UPF: wavefunction(s)  3P 3D renormalized
               file Fe.pbe-spn-kjpaw_psl.1.0.0.UPF: wavefunction(s)  3P 3D renormalized

     Subspace diagonalization in iterative solution of the eigenvalue problem:
     a serial algorithm will be used

     Found symmetry operation: I + (  0.0000  0.0000  0.5000)
     This is a supercell, fractional translations are disabled
 
     Parallelization info
     --------------------
     sticks:   dense  smooth     PW     G-vecs:    dense   smooth      PW
     Min         150      99     27                 8594     4613     665
     Max         151     100     28                 8599     4618     668
     Sum        6037    3977   1105               343853   184593   26649
 


     bravais-lattice index     =            0
     lattice parameter (alat)  =      12.9382  a.u.
     unit-cell volume          =    2283.7593 (a.u.)^3
     number of atoms/cell      =           32
     number of atomic types    =            4
     number of electrons       =       512.00
     number of Kohn-Sham states=          307
     kinetic-energy cutoff     =      71.0000  Ry
     charge density cutoff     =     430.0000  Ry
     convergence threshold     =      1.0E-06
     mixing beta               =       0.1000
     number of iterations used =           10  plain     mixing
     Exchange-correlation      = SLA PW PBX PBC ( 1  4  3  4 0 0)

     celldm(1)=  12.938187  celldm(2)=   0.000000  celldm(3)=   0.000000
     celldm(4)=   0.000000  celldm(5)=   0.000000  celldm(6)=   0.000000

     crystal axes: (cart. coord. in units of alat)
               a(1) = (   1.000023   0.008787   0.000000 )  
               a(2) = (   0.008334   1.054498   0.000000 )  
               a(3) = (   0.000000   0.000000   1.000010 )  

     reciprocal axes: (cart. coord. in units 2 pi/alat)
               b(1) = (  1.000046 -0.007903  0.000000 )  
               b(2) = ( -0.008334  0.948384  0.000000 )  
               b(3) = (  0.000000  0.000000  0.999990 )  


     PseudoPot. # 1 for Fe read from file:
     /rds/homes/b/bxp912/pp/Fe.pbe-spn-kjpaw_psl.1.0.0.UPF
     MD5 check sum: 42f43b795421b414b0dc916aa790dbcb
     Pseudo is Projector augmented-wave + core cor, Zval = 16.0
     Generated using "atomic" code by A. Dal Corso v.6.3
     Shape of augmentation charge: PSQ
     Using radial grid of 1191 points,  6 beta functions with: 
                l(1) =   0
                l(2) =   0
                l(3) =   1
                l(4) =   1
                l(5) =   2
                l(6) =   2
     Q(r) pseudized with 0 coefficients 


     PseudoPot. # 2 for Fe read from file:
     /rds/homes/b/bxp912/pp/Fe.pbe-spn-kjpaw_psl.1.0.0.UPF
     MD5 check sum: 42f43b795421b414b0dc916aa790dbcb
     Pseudo is Projector augmented-wave + core cor, Zval = 16.0
     Generated using "atomic" code by A. Dal Corso v.6.3
     Shape of augmentation charge: PSQ
     Using radial grid of 1191 points,  6 beta functions with: 
                l(1) =   0
                l(2) =   0
                l(3) =   1
                l(4) =   1
                l(5) =   2
                l(6) =   2
     Q(r) pseudized with 0 coefficients 


     PseudoPot. # 3 for Fe read from file:
     /rds/homes/b/bxp912/pp/Fe.pbe-spn-kjpaw_psl.1.0.0.UPF
     MD5 check sum: 42f43b795421b414b0dc916aa790dbcb
     Pseudo is Projector augmented-wave + core cor, Zval = 16.0
     Generated using "atomic" code by A. Dal Corso v.6.3
     Shape of augmentation charge: PSQ
     Using radial grid of 1191 points,  6 beta functions with: 
                l(1) =   0
                l(2) =   0
                l(3) =   1
                l(4) =   1
                l(5) =   2
                l(6) =   2
     Q(r) pseudized with 0 coefficients 


     PseudoPot. # 4 for Fe read from file:
     /rds/homes/b/bxp912/pp/Fe.pbe-spn-kjpaw_psl.1.0.0.UPF
     MD5 check sum: 42f43b795421b414b0dc916aa790dbcb
     Pseudo is Projector augmented-wave + core cor, Zval = 16.0
     Generated using "atomic" code by A. Dal Corso v.6.3
     Shape of augmentation charge: PSQ
     Using radial grid of 1191 points,  6 beta functions with: 
                l(1) =   0
                l(2) =   0
                l(3) =   1
                l(4) =   1
                l(5) =   2
                l(6) =   2
     Q(r) pseudized with 0 coefficients 


     atomic species   valence    mass     pseudopotential
        Fe1           16.00    55.84500     Fe( 1.00)
        Fe2           16.00    55.84500     Fe( 1.00)
        Fe3           16.00    55.84500     Fe( 1.00)
        Fe4           16.00    55.84500     Fe( 1.00)

     Starting magnetic structure 
     atomic species   magnetization
        Fe1          0.100
        Fe2         -0.100
        Fe3          0.100
        Fe4         -0.100

      4 Sym. Ops., with inversion, found



   Cartesian axes

     site n.     atom                  positions (alat units)
         1           Fe1 tau(   1) = (   0.0000000   0.0000000   0.0000000  )
         2           Fe2 tau(   2) = (   0.2520860   0.2658240   0.0000000  )
         3           Fe3 tau(   3) = (   0.2500039   0.0021969   0.2500005  )
         4           Fe4 tau(   4) = (   0.0020834   0.2636258   0.2500065  )
         5           Fe1 tau(   5) = (   0.0000000   0.0000000   0.5000051  )
         6           Fe2 tau(   6) = (   0.2520889   0.2658269   0.5000051  )
         7           Fe3 tau(   7) = (   0.2500039   0.0021969   0.7500086  )
         8           Fe4 tau(   8) = (   0.0020834   0.2636258   0.7500026  )
         9           Fe1 tau(   9) = (   0.0041668   0.5272492   0.0000000  )
        10           Fe2 tau(  10) = (   0.2562528   0.7930681   0.0000000  )
        11           Fe3 tau(  11) = (   0.2541729   0.5294460   0.2500045  )
        12           Fe4 tau(  12) = (   0.0062501   0.7908726   0.2500065  )
        13           Fe1 tau(  13) = (   0.0041668   0.5272492   0.5000051  )
        14           Fe2 tau(  14) = (   0.2562555   0.7930653   0.5000051  )
        15           Fe3 tau(  15) = (   0.2541729   0.5294460   0.7500056  )
        16           Fe4 tau(  16) = (   0.0062501   0.7908726   0.7500026  )
        17           Fe1 tau(  17) = (   0.5000114   0.0043937   0.0000000  )
        18           Fe2 tau(  18) = (   0.7521034   0.2702178   0.0000000  )
        19           Fe3 tau(  19) = (   0.7500188   0.0065906   0.2500005  )
        20           Fe4 tau(  20) = (   0.5020948   0.2680185   0.2500045  )
        21           Fe1 tau(  21) = (   0.5000114   0.0043937   0.5000051  )
        22           Fe2 tau(  22) = (   0.7521006   0.2702206   0.5000051  )
        23           Fe3 tau(  23) = (   0.7500188   0.0065906   0.7500086  )
        24           Fe4 tau(  24) = (   0.5020948   0.2680185   0.7500046  )
        25           Fe1 tau(  25) = (   0.5041781   0.5316429   0.0000000  )
        26           Fe2 tau(  26) = (   0.7562701   0.7974619   0.0000000  )
        27           Fe3 tau(  27) = (   0.7541834   0.5338398   0.2500045  )
        28           Fe4 tau(  28) = (   0.5062615   0.7952674   0.2500045  )
        29           Fe1 tau(  29) = (   0.5041781   0.5316429   0.5000051  )
        30           Fe2 tau(  30) = (   0.7562673   0.7974590   0.5000051  )
        31           Fe3 tau(  31) = (   0.7541834   0.5338398   0.7500056  )
        32           Fe4 tau(  32) = (   0.5062615   0.7952674   0.7500046  )

     number of k points=   205  Marzari-Vanderbilt smearing, width (Ry)=  0.0400

     Number of k-points >= 100: set verbosity='high' to print them.

     Dense  grid:   343853 G-vectors     FFT dimensions: (  90,  96,  90)

     Smooth grid:   184593 G-vectors     FFT dimensions: (  72,  75,  72)

     Estimated max dynamical RAM per process >       1.21 GB

     Estimated total dynamical RAM >      48.54 GB
     Generating pointlists ...
     new r_m :   0.1458 (alat units)  1.8870 (a.u.) for type    1
     new r_m :   0.1458 (alat units)  1.8870 (a.u.) for type    2
     new r_m :   0.1458 (alat units)  1.8870 (a.u.) for type    3
     new r_m :   0.1458 (alat units)  1.8870 (a.u.) for type    4

     Check: negative/imaginary core charge=   -0.000006    0.000000

     Initial potential from superposition of free atoms

     starting charge  511.98600, renormalised to  512.00000
     Starting wfcs are  320 randomized atomic wfcs
     Checking if some PAW data can be deallocated... 

     total cpu time spent up to now is      138.7 secs

     Self-consistent Calculation

     iteration #  1     ecut=    71.00 Ry     beta= 0.10
     Davidson diagonalization with overlap
     ethr =  1.00E-02,  avg # of iterations =  3.7

     Threshold (ethr) on eigenvalues was too large:
     Diagonalizing with lowered threshold

     Davidson diagonalization with overlap
     ethr =  3.86E-04,  avg # of iterations =  3.8

     total cpu time spent up to now is     1726.9 secs

     total energy              =  -10536.63080257 Ry
     Harris-Foulkes estimate   =  -10537.05393154 Ry
     estimated scf accuracy    <       2.28442113 Ry

     total magnetization       =     0.32 Bohr mag/cell
     absolute magnetization    =    44.77 Bohr mag/cell

     iteration #  2     ecut=    71.00 Ry     beta= 0.10
     Davidson diagonalization with overlap
     ethr =  4.46E-04,  avg # of iterations =  1.0

     total cpu time spent up to now is     2115.9 secs

     total energy              =  -10536.45557268 Ry
     Harris-Foulkes estimate   =  -10536.69452848 Ry
     estimated scf accuracy    <       1.53704874 Ry

     total magnetization       =    -0.22 Bohr mag/cell
     absolute magnetization    =    45.33 Bohr mag/cell

     iteration #  3     ecut=    71.00 Ry     beta= 0.10
     Davidson diagonalization with overlap
     ethr =  3.00E-04,  avg # of iterations =  1.2

     negative rho (up, down):  6.313E-04 0.000E+00

     total cpu time spent up to now is     2514.7 secs

     total energy              =  -10536.11265790 Ry
     Harris-Foulkes estimate   =  -10536.55543259 Ry
     estimated scf accuracy    <       1.66308764 Ry

     total magnetization       =     0.47 Bohr mag/cell
     absolute magnetization    =    45.80 Bohr mag/cell

     iteration #  4     ecut=    71.00 Ry     beta= 0.10
     Davidson diagonalization with overlap
     ethr =  3.00E-04,  avg # of iterations =  2.9

     negative rho (up, down):  1.147E-03 0.000E+00

     total cpu time spent up to now is     3149.3 secs

     total energy              =  -10536.17373020 Ry
     Harris-Foulkes estimate   =  -10536.28112598 Ry
     estimated scf accuracy    <       1.38130848 Ry

     total magnetization       =     0.29 Bohr mag/cell
     absolute magnetization    =    46.38 Bohr mag/cell

     iteration #  5     ecut=    71.00 Ry     beta= 0.10
     Davidson diagonalization with overlap
     ethr =  2.70E-04,  avg # of iterations =  1.2

     negative rho (up, down):  1.080E-03 0.000E+00

     total cpu time spent up to now is     3551.8 secs

     total energy              =  -10536.19872354 Ry
     Harris-Foulkes estimate   =  -10536.22227847 Ry
     estimated scf accuracy    <       0.12722821 Ry

     total magnetization       =     0.02 Bohr mag/cell
     absolute magnetization    =    46.68 Bohr mag/cell

     iteration #  6     ecut=    71.00 Ry     beta= 0.10
     Davidson diagonalization with overlap
     ethr =  2.48E-05,  avg # of iterations =  3.3

     negative rho (up, down):  1.121E-03 0.000E+00

     total cpu time spent up to now is     4183.3 secs

     total energy              =  -10536.18682856 Ry
     Harris-Foulkes estimate   =  -10536.20591712 Ry
     estimated scf accuracy    <       0.09049407 Ry

     total magnetization       =    -0.24 Bohr mag/cell
     absolute magnetization    =    46.58 Bohr mag/cell

     iteration #  7     ecut=    71.00 Ry     beta= 0.10
     Davidson diagonalization with overlap
     ethr =  1.77E-05,  avg # of iterations =  1.7

     negative rho (up, down):  1.368E-03 0.000E+00

     total cpu time spent up to now is     4643.8 secs

     total energy              =  -10536.16726757 Ry
     Harris-Foulkes estimate   =  -10536.19087354 Ry
     estimated scf accuracy    <       0.05408814 Ry

     total magnetization       =    -0.02 Bohr mag/cell
     absolute magnetization    =    46.59 Bohr mag/cell

     iteration #  8     ecut=    71.00 Ry     beta= 0.10
     Davidson diagonalization with overlap
     ethr =  1.06E-05,  avg # of iterations =  3.2

     negative rho (up, down):  1.509E-03 0.000E+00

     total cpu time spent up to now is     5351.2 secs

     total energy              =  -10536.16364858 Ry
     Harris-Foulkes estimate   =  -10536.17265301 Ry
     estimated scf accuracy    <       0.07752836 Ry

     total magnetization       =     0.03 Bohr mag/cell
     absolute magnetization    =    46.77 Bohr mag/cell

     iteration #  9     ecut=    71.00 Ry     beta= 0.10
     Davidson diagonalization with overlap
     ethr =  1.06E-05,  avg # of iterations =  2.0

     negative rho (up, down):  1.374E-03 0.000E+00

     total cpu time spent up to now is     5866.6 secs

     total energy              =  -10536.17072647 Ry
     Harris-Foulkes estimate   =  -10536.16681719 Ry
     estimated scf accuracy    <       0.03849878 Ry

     total magnetization       =    -0.02 Bohr mag/cell
     absolute magnetization    =    46.93 Bohr mag/cell

     iteration # 10     ecut=    71.00 Ry     beta= 0.10
     Davidson diagonalization with overlap
     ethr =  7.52E-06,  avg # of iterations =  1.4

     negative rho (up, down):  1.064E-04 0.000E+00

     total cpu time spent up to now is     6294.7 secs

     total energy              =  -10536.20341287 Ry
     Harris-Foulkes estimate   =  -10536.17185404 Ry
     estimated scf accuracy    <       0.03881957 Ry

     total magnetization       =    -0.10 Bohr mag/cell
     absolute magnetization    =    47.05 Bohr mag/cell

     iteration # 11     ecut=    71.00 Ry     beta= 0.10
     Davidson diagonalization with overlap
     ethr =  7.52E-06,  avg # of iterations =  3.7

     total cpu time spent up to now is     7202.3 secs

     total energy              =  -10536.23280028 Ry
     Harris-Foulkes estimate   =  -10536.21848886 Ry
     estimated scf accuracy    <       0.04310128 Ry

     total magnetization       =    -0.18 Bohr mag/cell
     absolute magnetization    =    47.70 Bohr mag/cell

     iteration # 12     ecut=    71.00 Ry     beta= 0.10
     Davidson diagonalization with overlap
     ethr =  7.52E-06,  avg # of iterations =  2.9

     total cpu time spent up to now is     7943.7 secs

     total energy              =  -10536.24403018 Ry
     Harris-Foulkes estimate   =  -10536.24022653 Ry
     estimated scf accuracy    <       0.01390409 Ry

     total magnetization       =    -0.08 Bohr mag/cell
     absolute magnetization    =    48.07 Bohr mag/cell

     iteration # 13     ecut=    71.00 Ry     beta= 0.10
     Davidson diagonalization with overlap
     ethr =  2.72E-06,  avg # of iterations =  3.7

     total cpu time spent up to now is     8860.5 secs

     total energy              =  -10536.24233057 Ry
     Harris-Foulkes estimate   =  -10536.24698323 Ry
     estimated scf accuracy    <       0.01288884 Ry

     total magnetization       =    -0.02 Bohr mag/cell
     absolute magnetization    =    48.29 Bohr mag/cell

     iteration # 14     ecut=    71.00 Ry     beta= 0.10
     Davidson diagonalization with overlap
     ethr =  2.52E-06,  avg # of iterations =  3.0

     total cpu time spent up to now is     9619.6 secs

     total energy              =  -10536.24456745 Ry
     Harris-Foulkes estimate   =  -10536.24427397 Ry
     estimated scf accuracy    <       0.00532503 Ry

     total magnetization       =    -0.06 Bohr mag/cell
     absolute magnetization    =    48.33 Bohr mag/cell

     iteration # 15     ecut=    71.00 Ry     beta= 0.10
     Davidson diagonalization with overlap
     ethr =  1.04E-06,  avg # of iterations =  1.0

     total cpu time spent up to now is    10005.8 secs

     total energy              =  -10536.24513285 Ry
     Harris-Foulkes estimate   =  -10536.24475567 Ry
     estimated scf accuracy    <       0.00256185 Ry

     total magnetization       =    -0.06 Bohr mag/cell
     absolute magnetization    =    48.38 Bohr mag/cell

     iteration # 16     ecut=    71.00 Ry     beta= 0.10
     Davidson diagonalization with overlap
     ethr =  5.00E-07,  avg # of iterations =  1.1

     total cpu time spent up to now is    10401.0 secs

     total energy              =  -10536.24527812 Ry
     Harris-Foulkes estimate   =  -10536.24522772 Ry
     estimated scf accuracy    <       0.00217782 Ry

     total magnetization       =    -0.07 Bohr mag/cell
     absolute magnetization    =    48.45 Bohr mag/cell

     iteration # 17     ecut=    71.00 Ry     beta= 0.10
     Davidson diagonalization with overlap
     ethr =  4.25E-07,  avg # of iterations =  1.0

     total cpu time spent up to now is    10787.0 secs

     total energy              =  -10536.24561038 Ry
     Harris-Foulkes estimate   =  -10536.24540177 Ry
     estimated scf accuracy    <       0.00315255 Ry

     total magnetization       =    -0.07 Bohr mag/cell
     absolute magnetization    =    48.50 Bohr mag/cell

     iteration # 18     ecut=    71.00 Ry     beta= 0.10
     Davidson diagonalization with overlap
     ethr =  4.25E-07,  avg # of iterations =  1.1

     total cpu time spent up to now is    11186.0 secs

     total energy              =  -10536.24583779 Ry
     Harris-Foulkes estimate   =  -10536.24576251 Ry
     estimated scf accuracy    <       0.00134434 Ry

     total magnetization       =    -0.06 Bohr mag/cell
     absolute magnetization    =    48.63 Bohr mag/cell

     iteration # 19     ecut=    71.00 Ry     beta= 0.10
     Davidson diagonalization with overlap
     ethr =  2.63E-07,  avg # of iterations =  2.0

     total cpu time spent up to now is    11690.5 secs

     total energy              =  -10536.24603127 Ry
     Harris-Foulkes estimate   =  -10536.24591727 Ry
     estimated scf accuracy    <       0.00074341 Ry

     total magnetization       =    -0.05 Bohr mag/cell
     absolute magnetization    =    48.71 Bohr mag/cell

     iteration # 20     ecut=    71.00 Ry     beta= 0.10
     Davidson diagonalization with overlap
     ethr =  1.45E-07,  avg # of iterations =  1.6

     total cpu time spent up to now is    12146.8 secs

     total energy              =  -10536.24614354 Ry
     Harris-Foulkes estimate   =  -10536.24607243 Ry
     estimated scf accuracy    <       0.00065005 Ry

     total magnetization       =    -0.04 Bohr mag/cell
     absolute magnetization    =    48.78 Bohr mag/cell

     iteration # 21     ecut=    71.00 Ry     beta= 0.10
     Davidson diagonalization with overlap
     ethr =  1.27E-07,  avg # of iterations =  1.3

     total cpu time spent up to now is    12573.6 secs

     total energy              =  -10536.24615184 Ry
     Harris-Foulkes estimate   =  -10536.24617933 Ry
     estimated scf accuracy    <       0.00067983 Ry

     total magnetization       =    -0.05 Bohr mag/cell
     absolute magnetization    =    48.85 Bohr mag/cell

     iteration # 22     ecut=    71.00 Ry     beta= 0.10
     Davidson diagonalization with overlap
     ethr =  1.27E-07,  avg # of iterations =  1.0

     total cpu time spent up to now is    12956.8 secs

     total energy              =  -10536.24630265 Ry
     Harris-Foulkes estimate   =  -10536.24618050 Ry
     estimated scf accuracy    <       0.00040595 Ry

     total magnetization       =    -0.04 Bohr mag/cell
     absolute magnetization    =    48.85 Bohr mag/cell

     iteration # 23     ecut=    71.00 Ry     beta= 0.10
     Davidson diagonalization with overlap
     ethr =  7.93E-08,  avg # of iterations =  2.4

     total cpu time spent up to now is    13507.9 secs

     total energy              =  -10536.24638808 Ry
     Harris-Foulkes estimate   =  -10536.24634692 Ry
     estimated scf accuracy    <       0.00017595 Ry

     total magnetization       =    -0.04 Bohr mag/cell
     absolute magnetization    =    49.00 Bohr mag/cell

     iteration # 24     ecut=    71.00 Ry     beta= 0.10
     Davidson diagonalization with overlap
     ethr =  3.44E-08,  avg # of iterations =  2.5

     total cpu time spent up to now is    14074.1 secs

     total energy              =  -10536.24644105 Ry
     Harris-Foulkes estimate   =  -10536.24640180 Ry
     estimated scf accuracy    <       0.00017104 Ry

     total magnetization       =    -0.03 Bohr mag/cell
     absolute magnetization    =    49.04 Bohr mag/cell

     iteration # 25     ecut=    71.00 Ry     beta= 0.10
     Davidson diagonalization with overlap
     ethr =  3.34E-08,  avg # of iterations =  2.7

     total cpu time spent up to now is    14693.8 secs

     total energy              =  -10536.24648032 Ry
     Harris-Foulkes estimate   =  -10536.24646149 Ry
     estimated scf accuracy    <       0.00010228 Ry

     total magnetization       =    -0.03 Bohr mag/cell
     absolute magnetization    =    49.12 Bohr mag/cell

     iteration # 26     ecut=    71.00 Ry     beta= 0.10
     Davidson diagonalization with overlap
     ethr =  2.00E-08,  avg # of iterations =  1.5

     total cpu time spent up to now is    15137.1 secs

     total energy              =  -10536.24649245 Ry
     Harris-Foulkes estimate   =  -10536.24648663 Ry
     estimated scf accuracy    <       0.00008930 Ry

     total magnetization       =    -0.04 Bohr mag/cell
     absolute magnetization    =    49.17 Bohr mag/cell

     iteration # 27     ecut=    71.00 Ry     beta= 0.10
     Davidson diagonalization with overlap
     ethr =  1.74E-08,  avg # of iterations =  2.4

     total cpu time spent up to now is    15688.5 secs

     total energy              =  -10536.24651343 Ry
     Harris-Foulkes estimate   =  -10536.24649978 Ry
     estimated scf accuracy    <       0.00006938 Ry

     total magnetization       =    -0.03 Bohr mag/cell
     absolute magnetization    =    49.23 Bohr mag/cell

     iteration # 28     ecut=    71.00 Ry     beta= 0.10
     Davidson diagonalization with overlap
     ethr =  1.36E-08,  avg # of iterations =  1.4

     total cpu time spent up to now is    16115.8 secs

     total energy              =  -10536.24652381 Ry
     Harris-Foulkes estimate   =  -10536.24651730 Ry
     estimated scf accuracy    <       0.00008087 Ry

     total magnetization       =    -0.02 Bohr mag/cell
     absolute magnetization    =    49.26 Bohr mag/cell

     iteration # 29     ecut=    71.00 Ry     beta= 0.10
     Davidson diagonalization with overlap
     ethr =  1.36E-08,  avg # of iterations =  1.6

     total cpu time spent up to now is    16564.4 secs

     total energy              =  -10536.24654360 Ry
     Harris-Foulkes estimate   =  -10536.24652807 Ry
     estimated scf accuracy    <       0.00004852 Ry

     total magnetization       =    -0.02 Bohr mag/cell
     absolute magnetization    =    49.31 Bohr mag/cell

     iteration # 30     ecut=    71.00 Ry     beta= 0.10
     Davidson diagonalization with overlap
     ethr =  9.48E-09,  avg # of iterations =  2.1

     total cpu time spent up to now is    17080.9 secs

     total energy              =  -10536.24655765 Ry
     Harris-Foulkes estimate   =  -10536.24654651 Ry
     estimated scf accuracy    <       0.00004049 Ry

     total magnetization       =    -0.02 Bohr mag/cell
     absolute magnetization    =    49.34 Bohr mag/cell

     iteration # 31     ecut=    71.00 Ry     beta= 0.10
     Davidson diagonalization with overlap
     ethr =  7.91E-09,  avg # of iterations =  2.3

     total cpu time spent up to now is    17632.5 secs

     total energy              =  -10536.24656913 Ry
     Harris-Foulkes estimate   =  -10536.24656111 Ry
     estimated scf accuracy    <       0.00004359 Ry

     total magnetization       =    -0.02 Bohr mag/cell
     absolute magnetization    =    49.38 Bohr mag/cell

     iteration # 32     ecut=    71.00 Ry     beta= 0.10
     Davidson diagonalization with overlap
     ethr =  7.91E-09,  avg # of iterations =  3.0

     total cpu time spent up to now is    18372.1 secs

     total energy              =  -10536.24658157 Ry
     Harris-Foulkes estimate   =  -10536.24658019 Ry
     estimated scf accuracy    <       0.00002682 Ry

     total magnetization       =    -0.01 Bohr mag/cell
     absolute magnetization    =    49.46 Bohr mag/cell

     iteration # 33     ecut=    71.00 Ry     beta= 0.10
     Davidson diagonalization with overlap
     ethr =  5.24E-09,  avg # of iterations =  2.8

     total cpu time spent up to now is    18984.7 secs

     total energy              =  -10536.24658573 Ry
     Harris-Foulkes estimate   =  -10536.24658601 Ry
     estimated scf accuracy    <       0.00000793 Ry

     total magnetization       =    -0.01 Bohr mag/cell
     absolute magnetization    =    49.51 Bohr mag/cell

     iteration # 34     ecut=    71.00 Ry     beta= 0.10
     Davidson diagonalization with overlap
     ethr =  1.55E-09,  avg # of iterations =  1.7

     total cpu time spent up to now is    19449.6 secs

     total energy              =  -10536.24658637 Ry
     Harris-Foulkes estimate   =  -10536.24658610 Ry
     estimated scf accuracy    <       0.00000746 Ry

     total magnetization       =    -0.01 Bohr mag/cell
     absolute magnetization    =    49.51 Bohr mag/cell

     iteration # 35     ecut=    71.00 Ry     beta= 0.10
     Davidson diagonalization with overlap
     ethr =  1.46E-09,  avg # of iterations =  1.0

     total cpu time spent up to now is    19835.6 secs

     total energy              =  -10536.24658650 Ry
     Harris-Foulkes estimate   =  -10536.24658674 Ry
     estimated scf accuracy    <       0.00000552 Ry

     total magnetization       =    -0.01 Bohr mag/cell
     absolute magnetization    =    49.52 Bohr mag/cell

     iteration # 36     ecut=    71.00 Ry     beta= 0.10
     Davidson diagonalization with overlap
     ethr =  1.08E-09,  avg # of iterations =  2.4

     total cpu time spent up to now is    20400.9 secs

     total energy              =  -10536.24658733 Ry
     Harris-Foulkes estimate   =  -10536.24658720 Ry
     estimated scf accuracy    <       0.00000325 Ry

     total magnetization       =    -0.01 Bohr mag/cell
     absolute magnetization    =    49.53 Bohr mag/cell

     iteration # 37     ecut=    71.00 Ry     beta= 0.10
     Davidson diagonalization with overlap
     ethr =  6.35E-10,  avg # of iterations =  1.4

     total cpu time spent up to now is    20830.0 secs

     total energy              =  -10536.24658778 Ry
     Harris-Foulkes estimate   =  -10536.24658751 Ry
     estimated scf accuracy    <       0.00000103 Ry

     total magnetization       =    -0.01 Bohr mag/cell
     absolute magnetization    =    49.54 Bohr mag/cell

     iteration # 38     ecut=    71.00 Ry     beta= 0.10
     Davidson diagonalization with overlap
     ethr =  2.01E-10,  avg # of iterations =  1.8
 
     Magnetic moment per site:
     atom:    1    charge:   14.3922    magn:    1.4901    constr:    0.0000
     atom:    2    charge:   14.3920    magn:   -1.4929    constr:    0.0000
     atom:    3    charge:   14.3915    magn:    1.4930    constr:    0.0000
     atom:    4    charge:   14.3923    magn:   -1.4905    constr:    0.0000
     atom:    5    charge:   14.3920    magn:    1.4918    constr:    0.0000
     atom:    6    charge:   14.3920    magn:   -1.4932    constr:    0.0000
     atom:    7    charge:   14.3915    magn:    1.4930    constr:    0.0000
     atom:    8    charge:   14.3923    magn:   -1.4905    constr:    0.0000
     atom:    9    charge:   14.3920    magn:    1.4905    constr:    0.0000
     atom:   10    charge:   14.3919    magn:   -1.4983    constr:    0.0000
     atom:   11    charge:   14.3917    magn:    1.4929    constr:    0.0000
     atom:   12    charge:   14.3923    magn:   -1.4905    constr:    0.0000
     atom:   13    charge:   14.3920    magn:    1.4916    constr:    0.0000
     atom:   14    charge:   14.3920    magn:   -1.4932    constr:    0.0000
     atom:   15    charge:   14.3917    magn:    1.4929    constr:    0.0000
     atom:   16    charge:   14.3923    magn:   -1.4905    constr:    0.0000
     atom:   17    charge:   14.3921    magn:    1.4911    constr:    0.0000
     atom:   18    charge:   14.3919    magn:   -1.4983    constr:    0.0000
     atom:   19    charge:   14.3915    magn:    1.4930    constr:    0.0000
     atom:   20    charge:   14.3922    magn:   -1.4901    constr:    0.0000
     atom:   21    charge:   14.3921    magn:    1.4922    constr:    0.0000
     atom:   22    charge:   14.3920    magn:   -1.4932    constr:    0.0000
     atom:   23    charge:   14.3915    magn:    1.4930    constr:    0.0000
     atom:   24    charge:   14.3922    magn:   -1.4901    constr:    0.0000
     atom:   25    charge:   14.3921    magn:    1.4892    constr:    0.0000
     atom:   26    charge:   14.3920    magn:   -1.4929    constr:    0.0000
     atom:   27    charge:   14.3917    magn:    1.4929    constr:    0.0000
     atom:   28    charge:   14.3922    magn:   -1.4901    constr:    0.0000
     atom:   29    charge:   14.3920    magn:    1.4901    constr:    0.0000
     atom:   30    charge:   14.3920    magn:   -1.4932    constr:    0.0000
     atom:   31    charge:   14.3917    magn:    1.4929    constr:    0.0000
     atom:   32    charge:   14.3922    magn:   -1.4901    constr:    0.0000

     total cpu time spent up to now is    21299.5 secs

     End of self-consistent calculation

     Number of k-points >= 100: set verbosity='high' to print the bands.

     the Fermi energy is    20.1192 ev

!    total energy              =  -10536.24658894 Ry
     Harris-Foulkes estimate   =  -10536.24658781 Ry
     estimated scf accuracy    <       0.00000094 Ry

     total all-electron energy =    -81457.735647 Ry

     The total energy is the sum of the following terms:

     one-electron contribution =   -3292.66655892 Ry
     hartree contribution      =    1996.66310698 Ry
     xc contribution           =    -886.96204512 Ry
     ewald contribution        =   -5703.73503391 Ry
     one-center paw contrib.   =   -2649.56031813 Ry
     smearing contrib. (-TS)   =       0.01426016 Ry

     total magnetization       =    -0.01 Bohr mag/cell
     absolute magnetization    =    49.54 Bohr mag/cell

     convergence has been achieved in  38 iterations

     Forces acting on atoms (cartesian axes, Ry/au):

     atom    1 type  1   force =     0.00000000    0.00000000    0.00000000
     atom    2 type  2   force =     0.00005625    0.00002811    0.00000000
     atom    3 type  3   force =     0.00019658    0.00000131    0.00013898
     atom    4 type  4   force =    -0.00000001   -0.00017592   -0.00013938
     atom    5 type  1   force =     0.00000000    0.00000000    0.00000000
     atom    6 type  2   force =     0.00015135   -0.00041521    0.00000000
     atom    7 type  3   force =     0.00019658    0.00000131   -0.00013898
     atom    8 type  4   force =    -0.00000001   -0.00017592    0.00013938
     atom    9 type  1   force =     0.00000000    0.00000000    0.00000000
     atom   10 type  2   force =     0.00006947    0.00000780    0.00000000
     atom   11 type  3   force =    -0.00001431   -0.00014469    0.00001489
     atom   12 type  4   force =     0.00000001    0.00017592   -0.00013938
     atom   13 type  1   force =     0.00000000    0.00000000    0.00000000
     atom   14 type  2   force =    -0.00004196    0.00002675    0.00000000
     atom   15 type  3   force =    -0.00001431   -0.00014469   -0.00001489
     atom   16 type  4   force =     0.00000001    0.00017592    0.00013938
     atom   17 type  1   force =     0.00000000    0.00000000    0.00000000
     atom   18 type  2   force =    -0.00006947   -0.00000780    0.00000000
     atom   19 type  3   force =    -0.00019658   -0.00000131    0.00013898
     atom   20 type  4   force =     0.00015800    0.00003135   -0.00010242
     atom   21 type  1   force =     0.00000000    0.00000000    0.00000000
     atom   22 type  2   force =     0.00004196   -0.00002675    0.00000000
     atom   23 type  3   force =    -0.00019658   -0.00000131   -0.00013898
     atom   24 type  4   force =     0.00015800    0.00003135    0.00010242
     atom   25 type  1   force =     0.00000000    0.00000000    0.00000000
     atom   26 type  2   force =    -0.00005625   -0.00002811    0.00000000
     atom   27 type  3   force =     0.00001431    0.00014469    0.00001489
     atom   28 type  4   force =    -0.00015800   -0.00003135   -0.00010242
     atom   29 type  1   force =     0.00000000    0.00000000    0.00000000
     atom   30 type  2   force =    -0.00015135    0.00041521    0.00000000
     atom   31 type  3   force =     0.00001431    0.00014469   -0.00001489
     atom   32 type  4   force =    -0.00015800   -0.00003135    0.00010242

     Total force =     0.001038     Total SCF correction =     0.002717
     SCF correction compared to forces is large: reduce conv_thr to get better values


     Computing stress (Cartesian axis) and pressure

          total   stress  (Ry/bohr**3)                   (kbar)     P=    0.36
   0.00000379  -0.00021029   0.00000000          0.56    -30.93      0.00
  -0.00021029   0.00000715   0.00000000        -30.93      1.05      0.00
   0.00000000   0.00000000  -0.00000365          0.00      0.00     -0.54


     Writing output data file ihYiTKFEKAOVKFeW.save/
-------------------------------------------------------
Primary job  terminated normally, but 1 process returned
a non-zero exit code.. Per user-direction, the job has been aborted.
-------------------------------------------------------
--------------------------------------------------------------------------
mpirun detected that one or more processes exited with non-zero status, thus causing
the job to be terminated. The first process to do so was:

  Process name: [[37534,1],0]
  Exit code:    38
--------------------------------------------------------------------------
