--------------------------------------------------------------------------
WARNING: No preset parameters were found for the device that Open MPI
detected:

  Local host:            bear-pg0206u20a
  Device name:           mlx5_0
  Device vendor ID:      0x02c9
  Device vendor part ID: 4123

Default device parameters will be used, which may result in lower
performance.  You can edit any of the files specified by the
btl_openib_device_param_files MCA parameter to set values for your
device.

NOTE: You can turn off this warning by setting the MCA parameter
      btl_openib_warn_no_device_params_found to 0.
--------------------------------------------------------------------------
--------------------------------------------------------------------------
WARNING: There was an error initializing an OpenFabrics device.

  Local host:   bear-pg0206u20a
  Local device: mlx5_0
--------------------------------------------------------------------------

     Program PWSCF v.6.3 starts on 20Oct2020 at 19:35:29 

     This program is part of the open-source Quantum ESPRESSO suite
     for quantum simulation of materials; please cite
         "P. Giannozzi et al., J. Phys.:Condens. Matter 21 395502 (2009);
         "P. Giannozzi et al., J. Phys.:Condens. Matter 29 465901 (2017);
          URL http://www.quantum-espresso.org", 
     in publications or presentations arising from this work. More details at
     http://www.quantum-espresso.org/quote

     Parallel version (MPI & OpenMP), running on      40 processor cores
     Number of MPI processes:                40
     Threads/MPI process:                     1

     MPI processes distributed on     1 nodes
     R & G space division:  proc/nbgrp/npool/nimage =      40
     Reading input from wd/ec/ec_8_004.in
Warning: card &IONS ignored
Warning: card ION_DYNAMICS = 'BFGS', ignored
Warning: card / ignored
Warning: card &CELL ignored
Warning: card CELL_DYNAMICS = 'BFGS', ignored
Warning: card CELL_FACTOR = 2.0, ignored
Warning: card PRESS = 0.0, ignored
Warning: card / ignored

     Current dimensions of program PWSCF are:
     Max number of different atomic species (ntypx) = 10
     Max number of k-points (npk) =  40000
     Max angular momentum in pseudopotentials (lmaxx) =  3
               file Fe.pbe-spn-kjpaw_psl.1.0.0.UPF: wavefunction(s)  3P 3D renormalized
               file Fe.pbe-spn-kjpaw_psl.1.0.0.UPF: wavefunction(s)  3P 3D renormalized
               file Fe.pbe-spn-kjpaw_psl.1.0.0.UPF: wavefunction(s)  3P 3D renormalized
               file Fe.pbe-spn-kjpaw_psl.1.0.0.UPF: wavefunction(s)  3P 3D renormalized

     Subspace diagonalization in iterative solution of the eigenvalue problem:
     a serial algorithm will be used

     Found symmetry operation: I + (  0.0000  0.0000 -0.5000)
     This is a supercell, fractional translations are disabled
 
     Parallelization info
     --------------------
     sticks:   dense  smooth     PW     G-vecs:    dense   smooth      PW
     Min         151     100     27                 8596     4612     663
     Max         152     101     28                 8598     4616     666
     Sum        6067    4005   1111               343867   184597   26607
 


     bravais-lattice index     =            0
     lattice parameter (alat)  =      12.9382  a.u.
     unit-cell volume          =    2283.7593 (a.u.)^3
     number of atoms/cell      =           32
     number of atomic types    =            4
     number of electrons       =       512.00
     number of Kohn-Sham states=          307
     kinetic-energy cutoff     =      71.0000  Ry
     charge density cutoff     =     430.0000  Ry
     convergence threshold     =      1.0E-06
     mixing beta               =       0.1000
     number of iterations used =           10  plain     mixing
     Exchange-correlation      = SLA PW PBX PBC ( 1  4  3  4 0 0)

     celldm(1)=  12.938187  celldm(2)=   0.000000  celldm(3)=   0.000000
     celldm(4)=   0.000000  celldm(5)=   0.000000  celldm(6)=   0.000000

     crystal axes: (cart. coord. in units of alat)
               a(1) = (   1.005008   0.000000   0.000000 )  
               a(2) = (   0.000000   1.054482   0.000000 )  
               a(3) = (   0.000000   0.000000   0.994995 )  

     reciprocal axes: (cart. coord. in units 2 pi/alat)
               b(1) = (  0.995017  0.000000  0.000000 )  
               b(2) = (  0.000000  0.948332  0.000000 )  
               b(3) = (  0.000000  0.000000  1.005030 )  


     PseudoPot. # 1 for Fe read from file:
     /rds/homes/b/bxp912/pp/Fe.pbe-spn-kjpaw_psl.1.0.0.UPF
     MD5 check sum: 42f43b795421b414b0dc916aa790dbcb
     Pseudo is Projector augmented-wave + core cor, Zval = 16.0
     Generated using "atomic" code by A. Dal Corso v.6.3
     Shape of augmentation charge: PSQ
     Using radial grid of 1191 points,  6 beta functions with: 
                l(1) =   0
                l(2) =   0
                l(3) =   1
                l(4) =   1
                l(5) =   2
                l(6) =   2
     Q(r) pseudized with 0 coefficients 


     PseudoPot. # 2 for Fe read from file:
     /rds/homes/b/bxp912/pp/Fe.pbe-spn-kjpaw_psl.1.0.0.UPF
     MD5 check sum: 42f43b795421b414b0dc916aa790dbcb
     Pseudo is Projector augmented-wave + core cor, Zval = 16.0
     Generated using "atomic" code by A. Dal Corso v.6.3
     Shape of augmentation charge: PSQ
     Using radial grid of 1191 points,  6 beta functions with: 
                l(1) =   0
                l(2) =   0
                l(3) =   1
                l(4) =   1
                l(5) =   2
                l(6) =   2
     Q(r) pseudized with 0 coefficients 


     PseudoPot. # 3 for Fe read from file:
     /rds/homes/b/bxp912/pp/Fe.pbe-spn-kjpaw_psl.1.0.0.UPF
     MD5 check sum: 42f43b795421b414b0dc916aa790dbcb
     Pseudo is Projector augmented-wave + core cor, Zval = 16.0
     Generated using "atomic" code by A. Dal Corso v.6.3
     Shape of augmentation charge: PSQ
     Using radial grid of 1191 points,  6 beta functions with: 
                l(1) =   0
                l(2) =   0
                l(3) =   1
                l(4) =   1
                l(5) =   2
                l(6) =   2
     Q(r) pseudized with 0 coefficients 


     PseudoPot. # 4 for Fe read from file:
     /rds/homes/b/bxp912/pp/Fe.pbe-spn-kjpaw_psl.1.0.0.UPF
     MD5 check sum: 42f43b795421b414b0dc916aa790dbcb
     Pseudo is Projector augmented-wave + core cor, Zval = 16.0
     Generated using "atomic" code by A. Dal Corso v.6.3
     Shape of augmentation charge: PSQ
     Using radial grid of 1191 points,  6 beta functions with: 
                l(1) =   0
                l(2) =   0
                l(3) =   1
                l(4) =   1
                l(5) =   2
                l(6) =   2
     Q(r) pseudized with 0 coefficients 


     atomic species   valence    mass     pseudopotential
        Fe1           16.00    55.84500     Fe( 1.00)
        Fe2           16.00    55.84500     Fe( 1.00)
        Fe3           16.00    55.84500     Fe( 1.00)
        Fe4           16.00    55.84500     Fe( 1.00)

     Starting magnetic structure 
     atomic species   magnetization
        Fe1          0.100
        Fe2         -0.100
        Fe3          0.100
        Fe4         -0.100

      8 Sym. Ops., with inversion, found



   Cartesian axes

     site n.     atom                  positions (alat units)
         1           Fe1 tau(   1) = (   0.0000000   0.0000000   0.0000000  )
         2           Fe2 tau(   2) = (   0.2512489   0.2636233   0.0000000  )
         3           Fe3 tau(   3) = (   0.2512502   0.0000000   0.2487468  )
         4           Fe4 tau(   4) = (   0.0000000   0.2636219   0.2487528  )
         5           Fe1 tau(   5) = (   0.0000000   0.0000000   0.4974977  )
         6           Fe2 tau(   6) = (   0.2512517   0.2636261   0.4974977  )
         7           Fe3 tau(   7) = (   0.2512502   0.0000000   0.7462475  )
         8           Fe4 tau(   8) = (   0.0000000   0.2636219   0.7462415  )
         9           Fe1 tau(   9) = (   0.0000000   0.5272413   0.0000000  )
        10           Fe2 tau(  10) = (   0.2512489   0.7908595   0.0000000  )
        11           Fe3 tau(  11) = (   0.2512524   0.5272413   0.2487508  )
        12           Fe4 tau(  12) = (   0.0000000   0.7908609   0.2487528  )
        13           Fe1 tau(  13) = (   0.0000000   0.5272413   0.4974977  )
        14           Fe2 tau(  14) = (   0.2512517   0.7908567   0.4974977  )
        15           Fe3 tau(  15) = (   0.2512524   0.5272413   0.7462445  )
        16           Fe4 tau(  16) = (   0.0000000   0.7908609   0.7462415  )
        17           Fe1 tau(  17) = (   0.5025040   0.0000000   0.0000000  )
        18           Fe2 tau(  18) = (   0.7537589   0.2636233   0.0000000  )
        19           Fe3 tau(  19) = (   0.7537577   0.0000000   0.2487468  )
        20           Fe4 tau(  20) = (   0.5025040   0.2636209   0.2487508  )
        21           Fe1 tau(  21) = (   0.5025040   0.0000000   0.4974977  )
        22           Fe2 tau(  22) = (   0.7537561   0.2636261   0.4974977  )
        23           Fe3 tau(  23) = (   0.7537577   0.0000000   0.7462475  )
        24           Fe4 tau(  24) = (   0.5025040   0.2636209   0.7462435  )
        25           Fe1 tau(  25) = (   0.5025040   0.5272413   0.0000000  )
        26           Fe2 tau(  26) = (   0.7537589   0.7908595   0.0000000  )
        27           Fe3 tau(  27) = (   0.7537555   0.5272413   0.2487508  )
        28           Fe4 tau(  28) = (   0.5025040   0.7908619   0.2487508  )
        29           Fe1 tau(  29) = (   0.5025040   0.5272413   0.4974977  )
        30           Fe2 tau(  30) = (   0.7537561   0.7908567   0.4974977  )
        31           Fe3 tau(  31) = (   0.7537555   0.5272413   0.7462445  )
        32           Fe4 tau(  32) = (   0.5025040   0.7908619   0.7462435  )

     number of k points=   125  Marzari-Vanderbilt smearing, width (Ry)=  0.0400

     Number of k-points >= 100: set verbosity='high' to print them.

     Dense  grid:   343867 G-vectors     FFT dimensions: (  90,  96,  90)

     Smooth grid:   184597 G-vectors     FFT dimensions: (  72,  75,  72)

     Estimated max dynamical RAM per process >     810.89 MB

     Estimated total dynamical RAM >      31.68 GB
     Generating pointlists ...
     new r_m :   0.1458 (alat units)  1.8869 (a.u.) for type    1
     new r_m :   0.1458 (alat units)  1.8869 (a.u.) for type    2
     new r_m :   0.1458 (alat units)  1.8869 (a.u.) for type    3
     new r_m :   0.1458 (alat units)  1.8869 (a.u.) for type    4

     Check: negative/imaginary core charge=   -0.000006    0.000000

     Initial potential from superposition of free atoms

     starting charge  511.98600, renormalised to  512.00000
     Starting wfcs are  320 randomized atomic wfcs
     Checking if some PAW data can be deallocated... 

     total cpu time spent up to now is       85.2 secs

     Self-consistent Calculation

     iteration #  1     ecut=    71.00 Ry     beta= 0.10
     Davidson diagonalization with overlap
     ethr =  1.00E-02,  avg # of iterations =  3.6

     Threshold (ethr) on eigenvalues was too large:
     Diagonalizing with lowered threshold

     Davidson diagonalization with overlap
     ethr =  3.19E-04,  avg # of iterations =  4.0

     total cpu time spent up to now is     1032.5 secs

     total energy              =  -10536.43209769 Ry
     Harris-Foulkes estimate   =  -10536.77354182 Ry
     estimated scf accuracy    <       1.88261075 Ry

     total magnetization       =     0.23 Bohr mag/cell
     absolute magnetization    =    44.22 Bohr mag/cell

     iteration #  2     ecut=    71.00 Ry     beta= 0.10
     Davidson diagonalization with overlap
     ethr =  3.68E-04,  avg # of iterations =  1.0

     total cpu time spent up to now is     1259.0 secs

     total energy              =  -10536.21238381 Ry
     Harris-Foulkes estimate   =  -10536.47763795 Ry
     estimated scf accuracy    <       1.11684487 Ry

     total magnetization       =    -0.11 Bohr mag/cell
     absolute magnetization    =    44.93 Bohr mag/cell

     iteration #  3     ecut=    71.00 Ry     beta= 0.10
     Davidson diagonalization with overlap
     ethr =  2.18E-04,  avg # of iterations =  2.3

     total cpu time spent up to now is     1585.4 secs

     total energy              =  -10536.07759557 Ry
     Harris-Foulkes estimate   =  -10536.35222057 Ry
     estimated scf accuracy    <       2.72956567 Ry

     total magnetization       =     0.23 Bohr mag/cell
     absolute magnetization    =    45.30 Bohr mag/cell

     iteration #  4     ecut=    71.00 Ry     beta= 0.10
     Davidson diagonalization with overlap
     ethr =  2.18E-04,  avg # of iterations =  2.4

     total cpu time spent up to now is     1909.2 secs

     total energy              =  -10536.18016784 Ry
     Harris-Foulkes estimate   =  -10536.21159347 Ry
     estimated scf accuracy    <       0.51961312 Ry

     total magnetization       =     0.35 Bohr mag/cell
     absolute magnetization    =    46.32 Bohr mag/cell

     iteration #  5     ecut=    71.00 Ry     beta= 0.10
     Davidson diagonalization with overlap
     ethr =  1.01E-04,  avg # of iterations =  1.4

     total cpu time spent up to now is     2162.9 secs

     total energy              =  -10536.19121092 Ry
     Harris-Foulkes estimate   =  -10536.19973193 Ry
     estimated scf accuracy    <       0.08393893 Ry

     total magnetization       =     0.02 Bohr mag/cell
     absolute magnetization    =    46.45 Bohr mag/cell

     iteration #  6     ecut=    71.00 Ry     beta= 0.10
     Davidson diagonalization with overlap
     ethr =  1.64E-05,  avg # of iterations =  3.4

     total cpu time spent up to now is     2553.0 secs

     total energy              =  -10536.18192206 Ry
     Harris-Foulkes estimate   =  -10536.19455666 Ry
     estimated scf accuracy    <       0.06899971 Ry

     total magnetization       =    -0.10 Bohr mag/cell
     absolute magnetization    =    46.41 Bohr mag/cell

     iteration #  7     ecut=    71.00 Ry     beta= 0.10
     Davidson diagonalization with overlap
     ethr =  1.35E-05,  avg # of iterations =  3.8

     total cpu time spent up to now is     3115.0 secs

     total energy              =  -10536.19875488 Ry
     Harris-Foulkes estimate   =  -10536.20249723 Ry
     estimated scf accuracy    <       0.09282848 Ry

     total magnetization       =     0.05 Bohr mag/cell
     absolute magnetization    =    46.56 Bohr mag/cell

     iteration #  8     ecut=    71.00 Ry     beta= 0.10
     Davidson diagonalization with overlap
     ethr =  1.35E-05,  avg # of iterations =  2.0

     total cpu time spent up to now is     3421.8 secs

     total energy              =  -10536.20027618 Ry
     Harris-Foulkes estimate   =  -10536.20276118 Ry
     estimated scf accuracy    <       0.06801385 Ry

     total magnetization       =     0.05 Bohr mag/cell
     absolute magnetization    =    46.82 Bohr mag/cell

     iteration #  9     ecut=    71.00 Ry     beta= 0.10
     Davidson diagonalization with overlap
     ethr =  1.33E-05,  avg # of iterations =  1.0

     total cpu time spent up to now is     3651.0 secs

     total energy              =  -10536.21034240 Ry
     Harris-Foulkes estimate   =  -10536.20152333 Ry
     estimated scf accuracy    <       0.03814960 Ry

     total magnetization       =     0.01 Bohr mag/cell
     absolute magnetization    =    46.94 Bohr mag/cell

     iteration # 10     ecut=    71.00 Ry     beta= 0.10
     Davidson diagonalization with overlap
     ethr =  7.45E-06,  avg # of iterations =  2.4

     total cpu time spent up to now is     3982.6 secs

     total energy              =  -10536.23362889 Ry
     Harris-Foulkes estimate   =  -10536.21256015 Ry
     estimated scf accuracy    <       0.03263289 Ry

     total magnetization       =    -0.07 Bohr mag/cell
     absolute magnetization    =    47.23 Bohr mag/cell

     iteration # 11     ecut=    71.00 Ry     beta= 0.10
     Davidson diagonalization with overlap
     ethr =  6.37E-06,  avg # of iterations =  3.9

     total cpu time spent up to now is     4541.7 secs

     total energy              =  -10536.24724135 Ry
     Harris-Foulkes estimate   =  -10536.24481822 Ry
     estimated scf accuracy    <       0.02773367 Ry

     total magnetization       =    -0.12 Bohr mag/cell
     absolute magnetization    =    48.01 Bohr mag/cell

     iteration # 12     ecut=    71.00 Ry     beta= 0.10
     Davidson diagonalization with overlap
     ethr =  5.42E-06,  avg # of iterations =  1.0

     total cpu time spent up to now is     4775.8 secs

     total energy              =  -10536.24783287 Ry
     Harris-Foulkes estimate   =  -10536.24823466 Ry
     estimated scf accuracy    <       0.01865521 Ry

     total magnetization       =    -0.07 Bohr mag/cell
     absolute magnetization    =    48.19 Bohr mag/cell

     iteration # 13     ecut=    71.00 Ry     beta= 0.10
     Davidson diagonalization with overlap
     ethr =  3.64E-06,  avg # of iterations =  2.1

     total cpu time spent up to now is     5087.2 secs

     total energy              =  -10536.24892833 Ry
     Harris-Foulkes estimate   =  -10536.24889874 Ry
     estimated scf accuracy    <       0.00225513 Ry

     total magnetization       =    -0.01 Bohr mag/cell
     absolute magnetization    =    48.40 Bohr mag/cell

     iteration # 14     ecut=    71.00 Ry     beta= 0.10
     Davidson diagonalization with overlap
     ethr =  4.40E-07,  avg # of iterations =  3.3

     total cpu time spent up to now is     5493.6 secs

     total energy              =  -10536.24915321 Ry
     Harris-Foulkes estimate   =  -10536.24906617 Ry
     estimated scf accuracy    <       0.00117827 Ry

     total magnetization       =    -0.02 Bohr mag/cell
     absolute magnetization    =    48.45 Bohr mag/cell

     iteration # 15     ecut=    71.00 Ry     beta= 0.10
     Davidson diagonalization with overlap
     ethr =  2.30E-07,  avg # of iterations =  1.1

     total cpu time spent up to now is     5729.3 secs

     total energy              =  -10536.24937354 Ry
     Harris-Foulkes estimate   =  -10536.24918017 Ry
     estimated scf accuracy    <       0.00085419 Ry

     total magnetization       =    -0.01 Bohr mag/cell
     absolute magnetization    =    48.52 Bohr mag/cell

     iteration # 16     ecut=    71.00 Ry     beta= 0.10
     Davidson diagonalization with overlap
     ethr =  1.67E-07,  avg # of iterations =  2.4

     total cpu time spent up to now is     6064.3 secs

     total energy              =  -10536.24947315 Ry
     Harris-Foulkes estimate   =  -10536.24947905 Ry
     estimated scf accuracy    <       0.00062278 Ry

     total magnetization       =    -0.00 Bohr mag/cell
     absolute magnetization    =    48.69 Bohr mag/cell

     iteration # 17     ecut=    71.00 Ry     beta= 0.10
     Davidson diagonalization with overlap
     ethr =  1.22E-07,  avg # of iterations =  1.1

     total cpu time spent up to now is     6300.2 secs

     total energy              =  -10536.24955755 Ry
     Harris-Foulkes estimate   =  -10536.24950047 Ry
     estimated scf accuracy    <       0.00054397 Ry

     total magnetization       =    -0.03 Bohr mag/cell
     absolute magnetization    =    48.71 Bohr mag/cell

     iteration # 18     ecut=    71.00 Ry     beta= 0.10
     Davidson diagonalization with overlap
     ethr =  1.06E-07,  avg # of iterations =  1.2

     total cpu time spent up to now is     6546.0 secs

     total energy              =  -10536.24967518 Ry
     Harris-Foulkes estimate   =  -10536.24957544 Ry
     estimated scf accuracy    <       0.00038421 Ry

     total magnetization       =    -0.01 Bohr mag/cell
     absolute magnetization    =    48.76 Bohr mag/cell

     iteration # 19     ecut=    71.00 Ry     beta= 0.10
     Davidson diagonalization with overlap
     ethr =  7.50E-08,  avg # of iterations =  1.9

     total cpu time spent up to now is     6836.8 secs

     total energy              =  -10536.24978083 Ry
     Harris-Foulkes estimate   =  -10536.24969304 Ry
     estimated scf accuracy    <       0.00033415 Ry

     total magnetization       =    -0.00 Bohr mag/cell
     absolute magnetization    =    48.83 Bohr mag/cell

     iteration # 20     ecut=    71.00 Ry     beta= 0.10
     Davidson diagonalization with overlap
     ethr =  6.53E-08,  avg # of iterations =  1.8

     total cpu time spent up to now is     7122.0 secs

     total energy              =  -10536.24991001 Ry
     Harris-Foulkes estimate   =  -10536.24979925 Ry
     estimated scf accuracy    <       0.00037365 Ry

     total magnetization       =    -0.01 Bohr mag/cell
     absolute magnetization    =    48.90 Bohr mag/cell

     iteration # 21     ecut=    71.00 Ry     beta= 0.10
     Davidson diagonalization with overlap
     ethr =  6.53E-08,  avg # of iterations =  3.0

     total cpu time spent up to now is     7506.9 secs

     total energy              =  -10536.24994351 Ry
     Harris-Foulkes estimate   =  -10536.24996949 Ry
     estimated scf accuracy    <       0.00018888 Ry

     total magnetization       =    -0.01 Bohr mag/cell
     absolute magnetization    =    49.09 Bohr mag/cell

     iteration # 22     ecut=    71.00 Ry     beta= 0.10
     Davidson diagonalization with overlap
     ethr =  3.69E-08,  avg # of iterations =  1.0

     total cpu time spent up to now is     7739.9 secs

     total energy              =  -10536.25000702 Ry
     Harris-Foulkes estimate   =  -10536.24995397 Ry
     estimated scf accuracy    <       0.00016719 Ry

     total magnetization       =    -0.01 Bohr mag/cell
     absolute magnetization    =    49.10 Bohr mag/cell

     iteration # 23     ecut=    71.00 Ry     beta= 0.10
     Davidson diagonalization with overlap
     ethr =  3.27E-08,  avg # of iterations =  1.7

     total cpu time spent up to now is     8016.4 secs

     total energy              =  -10536.25003869 Ry
     Harris-Foulkes estimate   =  -10536.25002249 Ry
     estimated scf accuracy    <       0.00008390 Ry

     total magnetization       =    -0.01 Bohr mag/cell
     absolute magnetization    =    49.18 Bohr mag/cell

     iteration # 24     ecut=    71.00 Ry     beta= 0.10
     Davidson diagonalization with overlap
     ethr =  1.64E-08,  avg # of iterations =  2.9

     total cpu time spent up to now is     8379.8 secs

     total energy              =  -10536.25004872 Ry
     Harris-Foulkes estimate   =  -10536.25004628 Ry
     estimated scf accuracy    <       0.00012088 Ry

     total magnetization       =    -0.01 Bohr mag/cell
     absolute magnetization    =    49.24 Bohr mag/cell

     iteration # 25     ecut=    71.00 Ry     beta= 0.10
     Davidson diagonalization with overlap
     ethr =  1.64E-08,  avg # of iterations =  3.1

     total cpu time spent up to now is     8798.1 secs

     total energy              =  -10536.25007040 Ry
     Harris-Foulkes estimate   =  -10536.25007286 Ry
     estimated scf accuracy    <       0.00004903 Ry

     total magnetization       =    -0.00 Bohr mag/cell
     absolute magnetization    =    49.35 Bohr mag/cell

     iteration # 26     ecut=    71.00 Ry     beta= 0.10
     Davidson diagonalization with overlap
     ethr =  9.58E-09,  avg # of iterations =  1.1

     total cpu time spent up to now is     9031.8 secs

     total energy              =  -10536.25007386 Ry
     Harris-Foulkes estimate   =  -10536.25007389 Ry
     estimated scf accuracy    <       0.00004988 Ry

     total magnetization       =    -0.01 Bohr mag/cell
     absolute magnetization    =    49.36 Bohr mag/cell

     iteration # 27     ecut=    71.00 Ry     beta= 0.10
     Davidson diagonalization with overlap
     ethr =  9.58E-09,  avg # of iterations =  1.0

     total cpu time spent up to now is     9261.6 secs

     total energy              =  -10536.25008387 Ry
     Harris-Foulkes estimate   =  -10536.25007727 Ry
     estimated scf accuracy    <       0.00002370 Ry

     total magnetization       =    -0.00 Bohr mag/cell
     absolute magnetization    =    49.41 Bohr mag/cell

     iteration # 28     ecut=    71.00 Ry     beta= 0.10
     Davidson diagonalization with overlap
     ethr =  4.63E-09,  avg # of iterations =  2.1

     total cpu time spent up to now is     9576.3 secs

     total energy              =  -10536.25009052 Ry
     Harris-Foulkes estimate   =  -10536.25008545 Ry
     estimated scf accuracy    <       0.00002348 Ry

     total magnetization       =    -0.00 Bohr mag/cell
     absolute magnetization    =    49.43 Bohr mag/cell

     iteration # 29     ecut=    71.00 Ry     beta= 0.10
     Davidson diagonalization with overlap
     ethr =  4.59E-09,  avg # of iterations =  2.8

     total cpu time spent up to now is     9985.5 secs

     total energy              =  -10536.25009677 Ry
     Harris-Foulkes estimate   =  -10536.25009517 Ry
     estimated scf accuracy    <       0.00001016 Ry

     total magnetization       =    -0.00 Bohr mag/cell
     absolute magnetization    =    49.48 Bohr mag/cell

     iteration # 30     ecut=    71.00 Ry     beta= 0.10
     Davidson diagonalization with overlap
     ethr =  1.98E-09,  avg # of iterations =  1.5

     total cpu time spent up to now is    10246.9 secs

     total energy              =  -10536.25009831 Ry
     Harris-Foulkes estimate   =  -10536.25009704 Ry
     estimated scf accuracy    <       0.00000604 Ry

     total magnetization       =    -0.00 Bohr mag/cell
     absolute magnetization    =    49.48 Bohr mag/cell

     iteration # 31     ecut=    71.00 Ry     beta= 0.10
     Davidson diagonalization with overlap
     ethr =  1.18E-09,  avg # of iterations =  1.3

     total cpu time spent up to now is    10496.5 secs

     total energy              =  -10536.25010015 Ry
     Harris-Foulkes estimate   =  -10536.25009840 Ry
     estimated scf accuracy    <       0.00000485 Ry

     total magnetization       =    -0.00 Bohr mag/cell
     absolute magnetization    =    49.49 Bohr mag/cell

     iteration # 32     ecut=    71.00 Ry     beta= 0.10
     Davidson diagonalization with overlap
     ethr =  9.47E-10,  avg # of iterations =  3.0

     total cpu time spent up to now is    10885.3 secs

     total energy              =  -10536.25010229 Ry
     Harris-Foulkes estimate   =  -10536.25010101 Ry
     estimated scf accuracy    <       0.00000585 Ry

     total magnetization       =    -0.00 Bohr mag/cell
     absolute magnetization    =    49.51 Bohr mag/cell

     iteration # 33     ecut=    71.00 Ry     beta= 0.10
     Davidson diagonalization with overlap
     ethr =  9.47E-10,  avg # of iterations =  2.1

     total cpu time spent up to now is    11189.8 secs

     total energy              =  -10536.25010338 Ry
     Harris-Foulkes estimate   =  -10536.25010289 Ry
     estimated scf accuracy    <       0.00000297 Ry

     total magnetization       =    -0.00 Bohr mag/cell
     absolute magnetization    =    49.52 Bohr mag/cell

     iteration # 34     ecut=    71.00 Ry     beta= 0.10
     Davidson diagonalization with overlap
     ethr =  5.79E-10,  avg # of iterations =  2.8

     total cpu time spent up to now is    11588.2 secs

     total energy              =  -10536.25010398 Ry
     Harris-Foulkes estimate   =  -10536.25010398 Ry
     estimated scf accuracy    <       0.00000144 Ry

     total magnetization       =    -0.00 Bohr mag/cell
     absolute magnetization    =    49.54 Bohr mag/cell

     iteration # 35     ecut=    71.00 Ry     beta= 0.10
     Davidson diagonalization with overlap
     ethr =  2.82E-10,  avg # of iterations =  1.8
 
     Magnetic moment per site:
     atom:    1    charge:   14.3916    magn:    1.4905    constr:    0.0000
     atom:    2    charge:   14.3918    magn:   -1.4906    constr:    0.0000
     atom:    3    charge:   14.3912    magn:    1.4934    constr:    0.0000
     atom:    4    charge:   14.3915    magn:   -1.4947    constr:    0.0000
     atom:    5    charge:   14.3917    magn:    1.4913    constr:    0.0000
     atom:    6    charge:   14.3919    magn:   -1.4901    constr:    0.0000
     atom:    7    charge:   14.3912    magn:    1.4934    constr:    0.0000
     atom:    8    charge:   14.3915    magn:   -1.4947    constr:    0.0000
     atom:    9    charge:   14.3912    magn:    1.4913    constr:    0.0000
     atom:   10    charge:   14.3918    magn:   -1.4906    constr:    0.0000
     atom:   11    charge:   14.3912    magn:    1.4930    constr:    0.0000
     atom:   12    charge:   14.3915    magn:   -1.4947    constr:    0.0000
     atom:   13    charge:   14.3916    magn:    1.4918    constr:    0.0000
     atom:   14    charge:   14.3919    magn:   -1.4901    constr:    0.0000
     atom:   15    charge:   14.3912    magn:    1.4930    constr:    0.0000
     atom:   16    charge:   14.3915    magn:   -1.4947    constr:    0.0000
     atom:   17    charge:   14.3916    magn:    1.4917    constr:    0.0000
     atom:   18    charge:   14.3918    magn:   -1.4906    constr:    0.0000
     atom:   19    charge:   14.3912    magn:    1.4934    constr:    0.0000
     atom:   20    charge:   14.3916    magn:   -1.4939    constr:    0.0000
     atom:   21    charge:   14.3914    magn:    1.4922    constr:    0.0000
     atom:   22    charge:   14.3919    magn:   -1.4901    constr:    0.0000
     atom:   23    charge:   14.3912    magn:    1.4934    constr:    0.0000
     atom:   24    charge:   14.3916    magn:   -1.4939    constr:    0.0000
     atom:   25    charge:   14.3916    magn:    1.4907    constr:    0.0000
     atom:   26    charge:   14.3918    magn:   -1.4906    constr:    0.0000
     atom:   27    charge:   14.3912    magn:    1.4930    constr:    0.0000
     atom:   28    charge:   14.3916    magn:   -1.4939    constr:    0.0000
     atom:   29    charge:   14.3915    magn:    1.4909    constr:    0.0000
     atom:   30    charge:   14.3919    magn:   -1.4901    constr:    0.0000
     atom:   31    charge:   14.3912    magn:    1.4930    constr:    0.0000
     atom:   32    charge:   14.3916    magn:   -1.4939    constr:    0.0000

     total cpu time spent up to now is    11876.1 secs

     End of self-consistent calculation

     Number of k-points >= 100: set verbosity='high' to print the bands.

     the Fermi energy is    20.1184 ev

!    total energy              =  -10536.25010440 Ry
     Harris-Foulkes estimate   =  -10536.25010411 Ry
     estimated scf accuracy    <       0.00000056 Ry

     total all-electron energy =    -81457.739162 Ry

     The total energy is the sum of the following terms:

     one-electron contribution =   -3292.36161489 Ry
     hartree contribution      =    1996.49832271 Ry
     xc contribution           =    -886.95574366 Ry
     ewald contribution        =   -5703.88506086 Ry
     one-center paw contrib.   =   -2649.56058012 Ry
     smearing contrib. (-TS)   =       0.01457242 Ry

     total magnetization       =    -0.00 Bohr mag/cell
     absolute magnetization    =    49.55 Bohr mag/cell

     convergence has been achieved in  35 iterations

     Forces acting on atoms (cartesian axes, Ry/au):

     atom    1 type  1   force =     0.00000000    0.00000000    0.00000000
     atom    2 type  2   force =    -0.00003163   -0.00000179    0.00000000
     atom    3 type  3   force =    -0.00003049    0.00000000   -0.00001482
     atom    4 type  4   force =     0.00000000    0.00000988   -0.00001996
     atom    5 type  1   force =     0.00000000    0.00000000    0.00000000
     atom    6 type  2   force =    -0.00001768    0.00000609    0.00000000
     atom    7 type  3   force =    -0.00003049    0.00000000    0.00001482
     atom    8 type  4   force =     0.00000000    0.00000988    0.00001996
     atom    9 type  1   force =     0.00000000    0.00000000    0.00000000
     atom   10 type  2   force =    -0.00003163    0.00000179    0.00000000
     atom   11 type  3   force =    -0.00001359    0.00000000   -0.00001547
     atom   12 type  4   force =     0.00000000   -0.00000988   -0.00001996
     atom   13 type  1   force =     0.00000000    0.00000000    0.00000000
     atom   14 type  2   force =    -0.00001768   -0.00000609    0.00000000
     atom   15 type  3   force =    -0.00001359   -0.00000000    0.00001547
     atom   16 type  4   force =     0.00000000   -0.00000988    0.00001996
     atom   17 type  1   force =     0.00000000    0.00000000    0.00000000
     atom   18 type  2   force =     0.00003163   -0.00000179    0.00000000
     atom   19 type  3   force =     0.00003049    0.00000000   -0.00001482
     atom   20 type  4   force =     0.00000000    0.00000569    0.00000863
     atom   21 type  1   force =     0.00000000    0.00000000    0.00000000
     atom   22 type  2   force =     0.00001768    0.00000609    0.00000000
     atom   23 type  3   force =     0.00003049    0.00000000    0.00001482
     atom   24 type  4   force =     0.00000000    0.00000569   -0.00000863
     atom   25 type  1   force =     0.00000000    0.00000000    0.00000000
     atom   26 type  2   force =     0.00003163    0.00000179    0.00000000
     atom   27 type  3   force =     0.00001359   -0.00000000   -0.00001547
     atom   28 type  4   force =     0.00000000   -0.00000569    0.00000863
     atom   29 type  1   force =     0.00000000    0.00000000    0.00000000
     atom   30 type  2   force =     0.00001768   -0.00000609    0.00000000
     atom   31 type  3   force =     0.00001359    0.00000000    0.00001547
     atom   32 type  4   force =     0.00000000   -0.00000569   -0.00000863

     Total force =     0.000119     Total SCF correction =     0.003394
     SCF correction compared to forces is large: reduce conv_thr to get better values


     Computing stress (Cartesian axis) and pressure

          total   stress  (Ry/bohr**3)                   (kbar)     P=   -0.94
  -0.00004950   0.00000000   0.00000000         -7.28      0.00      0.00
   0.00000000  -0.00000521   0.00000000          0.00     -0.77      0.00
   0.00000000   0.00000000   0.00003545          0.00      0.00      5.21


     Writing output data file sUtWpCbmmKrFGjNs.save/
-------------------------------------------------------
Primary job  terminated normally, but 1 process returned
a non-zero exit code.. Per user-direction, the job has been aborted.
-------------------------------------------------------
--------------------------------------------------------------------------
mpirun detected that one or more processes exited with non-zero status, thus causing
the job to be terminated. The first process to do so was:

  Process name: [[21233,1],0]
  Exit code:    38
--------------------------------------------------------------------------
