--------------------------------------------------------------------------
WARNING: No preset parameters were found for the device that Open MPI
detected:

  Local host:            bear-pg0206u37a
  Device name:           mlx5_0
  Device vendor ID:      0x02c9
  Device vendor part ID: 4123

Default device parameters will be used, which may result in lower
performance.  You can edit any of the files specified by the
btl_openib_device_param_files MCA parameter to set values for your
device.

NOTE: You can turn off this warning by setting the MCA parameter
      btl_openib_warn_no_device_params_found to 0.
--------------------------------------------------------------------------
--------------------------------------------------------------------------
WARNING: There was an error initializing an OpenFabrics device.

  Local host:   bear-pg0206u37a
  Local device: mlx5_0
--------------------------------------------------------------------------

     Program PWSCF v.6.3 starts on 14Jun2020 at  1:30:45 

     This program is part of the open-source Quantum ESPRESSO suite
     for quantum simulation of materials; please cite
         "P. Giannozzi et al., J. Phys.:Condens. Matter 21 395502 (2009);
         "P. Giannozzi et al., J. Phys.:Condens. Matter 29 465901 (2017);
          URL http://www.quantum-espresso.org", 
     in publications or presentations arising from this work. More details at
     http://www.quantum-espresso.org/quote

     Parallel version (MPI & OpenMP), running on      20 processor cores
     Number of MPI processes:                20
     Threads/MPI process:                     1

     MPI processes distributed on     1 nodes
     R & G space division:  proc/nbgrp/npool/nimage =      20
     Reading input from wd/eos/eos_014.in
Warning: card &IONS ignored
Warning: card ION_DYNAMICS = 'BFGS', ignored
Warning: card / ignored
Warning: card &CELL ignored
Warning: card CELL_DYNAMICS = 'BFGS', ignored
Warning: card CELL_FACTOR = 2.0, ignored
Warning: card PRESS = 0.0, ignored
Warning: card / ignored

     Current dimensions of program PWSCF are:
     Max number of different atomic species (ntypx) = 10
     Max number of k-points (npk) =  40000
     Max angular momentum in pseudopotentials (lmaxx) =  3
               file Fe.pbe-spn-kjpaw_psl.1.0.0.UPF: wavefunction(s)  3P 3D renormalized
               file Fe.pbe-spn-kjpaw_psl.1.0.0.UPF: wavefunction(s)  3P 3D renormalized

     Subspace diagonalization in iterative solution of the eigenvalue problem:
     a serial algorithm will be used

     Found symmetry operation: I + (  0.0000  0.0000 -0.5000)
     This is a supercell, fractional translations are disabled
 
     Parallelization info
     --------------------
     sticks:   dense  smooth     PW     G-vecs:    dense   smooth      PW
     Min         199     130     37                 9407     5052     757
     Max         200     131     38                 9410     5055     760
     Sum        3985    2617    749               188183   101073   15155
 


     bravais-lattice index     =            0
     lattice parameter (alat)  =      10.5935  a.u.
     unit-cell volume          =    1251.0270 (a.u.)^3
     number of atoms/cell      =           16
     number of atomic types    =            2
     number of electrons       =       256.00
     number of Kohn-Sham states=          154
     kinetic-energy cutoff     =      71.0000  Ry
     charge density cutoff     =     430.0000  Ry
     convergence threshold     =      1.0E-06
     mixing beta               =       0.1000
     number of iterations used =           10  plain     mixing
     Exchange-correlation      = SLA PW PBX PBC ( 1  4  3  4 0 0)

     celldm(1)=  10.593520  celldm(2)=   0.000000  celldm(3)=   0.000000
     celldm(4)=   0.000000  celldm(5)=   0.000000  celldm(6)=   0.000000

     crystal axes: (cart. coord. in units of alat)
               a(1) = (   1.017143   0.000000   0.000000 )  
               a(2) = (   0.000000   1.017143   0.000000 )  
               a(3) = (   0.000000   0.000000   1.017143 )  

     reciprocal axes: (cart. coord. in units 2 pi/alat)
               b(1) = (  0.983146  0.000000  0.000000 )  
               b(2) = (  0.000000  0.983146  0.000000 )  
               b(3) = (  0.000000  0.000000  0.983146 )  


     PseudoPot. # 1 for Fe read from file:
     /rds/homes/b/bxp912/pp/Fe.pbe-spn-kjpaw_psl.1.0.0.UPF
     MD5 check sum: 42f43b795421b414b0dc916aa790dbcb
     Pseudo is Projector augmented-wave + core cor, Zval = 16.0
     Generated using "atomic" code by A. Dal Corso v.6.3
     Shape of augmentation charge: PSQ
     Using radial grid of 1191 points,  6 beta functions with: 
                l(1) =   0
                l(2) =   0
                l(3) =   1
                l(4) =   1
                l(5) =   2
                l(6) =   2
     Q(r) pseudized with 0 coefficients 


     PseudoPot. # 2 for Fe read from file:
     /rds/homes/b/bxp912/pp/Fe.pbe-spn-kjpaw_psl.1.0.0.UPF
     MD5 check sum: 42f43b795421b414b0dc916aa790dbcb
     Pseudo is Projector augmented-wave + core cor, Zval = 16.0
     Generated using "atomic" code by A. Dal Corso v.6.3
     Shape of augmentation charge: PSQ
     Using radial grid of 1191 points,  6 beta functions with: 
                l(1) =   0
                l(2) =   0
                l(3) =   1
                l(4) =   1
                l(5) =   2
                l(6) =   2
     Q(r) pseudized with 0 coefficients 


     atomic species   valence    mass     pseudopotential
        Fe1           16.00    55.84500     Fe( 1.00)
        Fe2           16.00    55.84500     Fe( 1.00)

     Starting magnetic structure 
     atomic species   magnetization
        Fe1          0.100
        Fe2          0.100

     48 Sym. Ops., with inversion, found



   Cartesian axes

     site n.     atom                  positions (alat units)
         1           Fe1 tau(   1) = (   0.0000000   0.0000000   0.0000000  )
         2           Fe2 tau(   2) = (   0.2542862   0.2542862   0.2542862  )
         3           Fe1 tau(   3) = (   0.0000000   0.0000000   0.5085714  )
         4           Fe2 tau(   4) = (   0.2542862   0.2542862   0.7628567  )
         5           Fe1 tau(   5) = (   0.0000000   0.5085714   0.0000000  )
         6           Fe2 tau(   6) = (   0.2542862   0.7628567   0.2542862  )
         7           Fe1 tau(   7) = (   0.0000000   0.5085714   0.5085714  )
         8           Fe2 tau(   8) = (   0.2542862   0.7628567   0.7628567  )
         9           Fe1 tau(   9) = (   0.5085714   0.0000000   0.0000000  )
        10           Fe2 tau(  10) = (   0.7628567   0.2542862   0.2542862  )
        11           Fe1 tau(  11) = (   0.5085714   0.0000000   0.5085714  )
        12           Fe2 tau(  12) = (   0.7628567   0.2542862   0.7628567  )
        13           Fe1 tau(  13) = (   0.5085714   0.5085714   0.0000000  )
        14           Fe2 tau(  14) = (   0.7628567   0.7628567   0.2542862  )
        15           Fe1 tau(  15) = (   0.5085714   0.5085714   0.5085714  )
        16           Fe2 tau(  16) = (   0.7628567   0.7628567   0.7628567  )

     number of k points=    35  Marzari-Vanderbilt smearing, width (Ry)=  0.0400
                       cart. coord. in units 2pi/alat
        k(    1) = (   0.0546192   0.0546192   0.0546192), wk =   0.0109739
        k(    2) = (   0.0546192   0.0546192   0.1638577), wk =   0.0329218
        k(    3) = (   0.0546192   0.0546192   0.2730961), wk =   0.0329218
        k(    4) = (   0.0546192   0.0546192   0.3823346), wk =   0.0329218
        k(    5) = (   0.0546192   0.0546192  -0.4915730), wk =   0.0164609
        k(    6) = (   0.0546192   0.1638577   0.1638577), wk =   0.0329218
        k(    7) = (   0.0546192   0.1638577   0.2730961), wk =   0.0658436
        k(    8) = (   0.0546192   0.1638577   0.3823346), wk =   0.0658436
        k(    9) = (   0.0546192   0.1638577  -0.4915730), wk =   0.0329218
        k(   10) = (   0.0546192   0.2730961   0.2730961), wk =   0.0329218
        k(   11) = (   0.0546192   0.2730961   0.3823346), wk =   0.0658436
        k(   12) = (   0.0546192   0.2730961  -0.4915730), wk =   0.0329218
        k(   13) = (   0.0546192   0.3823346   0.3823346), wk =   0.0329218
        k(   14) = (   0.0546192   0.3823346  -0.4915730), wk =   0.0329218
        k(   15) = (   0.0546192  -0.4915730  -0.4915730), wk =   0.0082305
        k(   16) = (   0.1638577   0.1638577   0.1638577), wk =   0.0109739
        k(   17) = (   0.1638577   0.1638577   0.2730961), wk =   0.0329218
        k(   18) = (   0.1638577   0.1638577   0.3823346), wk =   0.0329218
        k(   19) = (   0.1638577   0.1638577  -0.4915730), wk =   0.0164609
        k(   20) = (   0.1638577   0.2730961   0.2730961), wk =   0.0329218
        k(   21) = (   0.1638577   0.2730961   0.3823346), wk =   0.0658436
        k(   22) = (   0.1638577   0.2730961  -0.4915730), wk =   0.0329218
        k(   23) = (   0.1638577   0.3823346   0.3823346), wk =   0.0329218
        k(   24) = (   0.1638577   0.3823346  -0.4915730), wk =   0.0329218
        k(   25) = (   0.1638577  -0.4915730  -0.4915730), wk =   0.0082305
        k(   26) = (   0.2730961   0.2730961   0.2730961), wk =   0.0109739
        k(   27) = (   0.2730961   0.2730961   0.3823346), wk =   0.0329218
        k(   28) = (   0.2730961   0.2730961  -0.4915730), wk =   0.0164609
        k(   29) = (   0.2730961   0.3823346   0.3823346), wk =   0.0329218
        k(   30) = (   0.2730961   0.3823346  -0.4915730), wk =   0.0329218
        k(   31) = (   0.2730961  -0.4915730  -0.4915730), wk =   0.0082305
        k(   32) = (   0.3823346   0.3823346   0.3823346), wk =   0.0109739
        k(   33) = (   0.3823346   0.3823346  -0.4915730), wk =   0.0164609
        k(   34) = (   0.3823346  -0.4915730  -0.4915730), wk =   0.0082305
        k(   35) = (  -0.4915730  -0.4915730  -0.4915730), wk =   0.0013717

     Dense  grid:   188183 G-vectors     FFT dimensions: (  72,  72,  72)

     Smooth grid:   101073 G-vectors     FFT dimensions: (  60,  60,  60)

     Estimated max dynamical RAM per process >     159.90 MB

     Estimated total dynamical RAM >       3.12 GB
     Generating pointlists ...
     new r_m :   0.1817 (alat units)  1.9246 (a.u.) for type    1
     new r_m :   0.1817 (alat units)  1.9246 (a.u.) for type    2

     Check: negative/imaginary core charge=   -0.000006    0.000000

     Initial potential from superposition of free atoms

     starting charge  255.99300, renormalised to  256.00000
     Starting wfcs are  160 randomized atomic wfcs
     Checking if some PAW data can be deallocated... 

     total cpu time spent up to now is        9.0 secs

     Self-consistent Calculation

     iteration #  1     ecut=    71.00 Ry     beta= 0.10
     Davidson diagonalization with overlap
     ethr =  1.00E-02,  avg # of iterations =  3.3

     Threshold (ethr) on eigenvalues was too large:
     Diagonalizing with lowered threshold

     Davidson diagonalization with overlap
     ethr =  1.78E-04,  avg # of iterations =  3.7

     total cpu time spent up to now is       69.3 secs

     total energy              =   -5267.94655580 Ry
     Harris-Foulkes estimate   =   -5267.98188450 Ry
     estimated scf accuracy    <       0.54011745 Ry

     total magnetization       =    28.86 Bohr mag/cell
     absolute magnetization    =    28.99 Bohr mag/cell

     iteration #  2     ecut=    71.00 Ry     beta= 0.10
     Davidson diagonalization with overlap
     ethr =  2.11E-04,  avg # of iterations =  1.0

     total cpu time spent up to now is       87.5 secs

     total energy              =   -5267.95102557 Ry
     Harris-Foulkes estimate   =   -5267.95688646 Ry
     estimated scf accuracy    <       0.32342670 Ry

     total magnetization       =    29.50 Bohr mag/cell
     absolute magnetization    =    29.67 Bohr mag/cell

     iteration #  3     ecut=    71.00 Ry     beta= 0.10
     Davidson diagonalization with overlap
     ethr =  1.26E-04,  avg # of iterations =  3.0

     total cpu time spent up to now is      116.2 secs

     total energy              =   -5268.00360358 Ry
     Harris-Foulkes estimate   =   -5268.00479287 Ry
     estimated scf accuracy    <       0.40177109 Ry

     total magnetization       =    30.71 Bohr mag/cell
     absolute magnetization    =    31.09 Bohr mag/cell

     iteration #  4     ecut=    71.00 Ry     beta= 0.10
     Davidson diagonalization with overlap
     ethr =  1.26E-04,  avg # of iterations =  1.0

     total cpu time spent up to now is      134.4 secs

     total energy              =   -5268.02284210 Ry
     Harris-Foulkes estimate   =   -5268.01321047 Ry
     estimated scf accuracy    <       0.12775764 Ry

     total magnetization       =    30.98 Bohr mag/cell
     absolute magnetization    =    31.38 Bohr mag/cell

     iteration #  5     ecut=    71.00 Ry     beta= 0.10
     Davidson diagonalization with overlap
     ethr =  4.99E-05,  avg # of iterations =  1.0

     total cpu time spent up to now is      152.6 secs

     total energy              =   -5268.11499884 Ry
     Harris-Foulkes estimate   =   -5268.02638454 Ry
     estimated scf accuracy    <       0.11652361 Ry

     total magnetization       =    31.03 Bohr mag/cell
     absolute magnetization    =    31.48 Bohr mag/cell

     iteration #  6     ecut=    71.00 Ry     beta= 0.10
     Davidson diagonalization with overlap
     ethr =  4.55E-05,  avg # of iterations =  3.4

     negative rho (up, down):  0.000E+00 3.994E-03

     total cpu time spent up to now is      185.4 secs

     total energy              =   -5268.12893639 Ry
     Harris-Foulkes estimate   =   -5268.16024696 Ry
     estimated scf accuracy    <       0.25193946 Ry

     total magnetization       =    31.71 Bohr mag/cell
     absolute magnetization    =    32.59 Bohr mag/cell

     iteration #  7     ecut=    71.00 Ry     beta= 0.10
     Davidson diagonalization with overlap
     ethr =  4.55E-05,  avg # of iterations =  2.9

     negative rho (up, down):  0.000E+00 2.716E-03

     total cpu time spent up to now is      215.2 secs

     total energy              =   -5268.17867724 Ry
     Harris-Foulkes estimate   =   -5268.18238831 Ry
     estimated scf accuracy    <       0.01237879 Ry

     total magnetization       =    33.29 Bohr mag/cell
     absolute magnetization    =    35.11 Bohr mag/cell

     iteration #  8     ecut=    71.00 Ry     beta= 0.10
     Davidson diagonalization with overlap
     ethr =  4.84E-06,  avg # of iterations =  2.3

     negative rho (up, down):  0.000E+00 2.301E-03

     total cpu time spent up to now is      239.9 secs

     total energy              =   -5268.17934258 Ry
     Harris-Foulkes estimate   =   -5268.18028736 Ry
     estimated scf accuracy    <       0.00962343 Ry

     total magnetization       =    33.20 Bohr mag/cell
     absolute magnetization    =    34.83 Bohr mag/cell

     iteration #  9     ecut=    71.00 Ry     beta= 0.10
     Davidson diagonalization with overlap
     ethr =  3.76E-06,  avg # of iterations =  1.1

     negative rho (up, down):  0.000E+00 2.830E-03

     total cpu time spent up to now is      258.4 secs

     total energy              =   -5268.18251005 Ry
     Harris-Foulkes estimate   =   -5268.17964363 Ry
     estimated scf accuracy    <       0.00589236 Ry

     total magnetization       =    33.25 Bohr mag/cell
     absolute magnetization    =    34.88 Bohr mag/cell

     iteration # 10     ecut=    71.00 Ry     beta= 0.10
     Davidson diagonalization with overlap
     ethr =  2.30E-06,  avg # of iterations =  3.5

     negative rho (up, down):  0.000E+00 2.780E-03

     total cpu time spent up to now is      289.7 secs

     total energy              =   -5268.18470494 Ry
     Harris-Foulkes estimate   =   -5268.18459260 Ry
     estimated scf accuracy    <       0.00097091 Ry

     total magnetization       =    33.70 Bohr mag/cell
     absolute magnetization    =    35.62 Bohr mag/cell

     iteration # 11     ecut=    71.00 Ry     beta= 0.10
     Davidson diagonalization with overlap
     ethr =  3.79E-07,  avg # of iterations =  1.0

     negative rho (up, down):  0.000E+00 2.553E-03

     total cpu time spent up to now is      307.9 secs

     total energy              =   -5268.18499709 Ry
     Harris-Foulkes estimate   =   -5268.18472009 Ry
     estimated scf accuracy    <       0.00074190 Ry

     total magnetization       =    33.73 Bohr mag/cell
     absolute magnetization    =    35.65 Bohr mag/cell

     iteration # 12     ecut=    71.00 Ry     beta= 0.10
     Davidson diagonalization with overlap
     ethr =  2.90E-07,  avg # of iterations =  1.9

     negative rho (up, down):  0.000E+00 2.784E-03

     total cpu time spent up to now is      329.3 secs

     total energy              =   -5268.18503495 Ry
     Harris-Foulkes estimate   =   -5268.18508047 Ry
     estimated scf accuracy    <       0.00068870 Ry

     total magnetization       =    33.80 Bohr mag/cell
     absolute magnetization    =    35.73 Bohr mag/cell

     iteration # 13     ecut=    71.00 Ry     beta= 0.10
     Davidson diagonalization with overlap
     ethr =  2.69E-07,  avg # of iterations =  3.1

     negative rho (up, down):  0.000E+00 2.822E-03

     total cpu time spent up to now is      359.2 secs

     total energy              =   -5268.18534226 Ry
     Harris-Foulkes estimate   =   -5268.18534374 Ry
     estimated scf accuracy    <       0.00027614 Ry

     total magnetization       =    34.02 Bohr mag/cell
     absolute magnetization    =    36.05 Bohr mag/cell

     iteration # 14     ecut=    71.00 Ry     beta= 0.10
     Davidson diagonalization with overlap
     ethr =  1.08E-07,  avg # of iterations =  1.8

     negative rho (up, down):  0.000E+00 2.821E-03

     total cpu time spent up to now is      380.0 secs

     total energy              =   -5268.18541174 Ry
     Harris-Foulkes estimate   =   -5268.18537760 Ry
     estimated scf accuracy    <       0.00018606 Ry

     total magnetization       =    34.06 Bohr mag/cell
     absolute magnetization    =    36.10 Bohr mag/cell

     iteration # 15     ecut=    71.00 Ry     beta= 0.10
     Davidson diagonalization with overlap
     ethr =  7.27E-08,  avg # of iterations =  1.1

     negative rho (up, down):  0.000E+00 2.838E-03

     total cpu time spent up to now is      398.4 secs

     total energy              =   -5268.18545626 Ry
     Harris-Foulkes estimate   =   -5268.18542549 Ry
     estimated scf accuracy    <       0.00003523 Ry

     total magnetization       =    34.09 Bohr mag/cell
     absolute magnetization    =    36.13 Bohr mag/cell

     iteration # 16     ecut=    71.00 Ry     beta= 0.10
     Davidson diagonalization with overlap
     ethr =  1.38E-08,  avg # of iterations =  3.2

     negative rho (up, down):  0.000E+00 2.831E-03

     total cpu time spent up to now is      427.7 secs

     total energy              =   -5268.18546781 Ry
     Harris-Foulkes estimate   =   -5268.18546365 Ry
     estimated scf accuracy    <       0.00001344 Ry

     total magnetization       =    34.10 Bohr mag/cell
     absolute magnetization    =    36.12 Bohr mag/cell

     iteration # 17     ecut=    71.00 Ry     beta= 0.10
     Davidson diagonalization with overlap
     ethr =  5.25E-09,  avg # of iterations =  2.5

     negative rho (up, down):  0.000E+00 2.865E-03

     total cpu time spent up to now is      452.8 secs

     total energy              =   -5268.18547364 Ry
     Harris-Foulkes estimate   =   -5268.18546970 Ry
     estimated scf accuracy    <       0.00000592 Ry

     total magnetization       =    34.11 Bohr mag/cell
     absolute magnetization    =    36.13 Bohr mag/cell

     iteration # 18     ecut=    71.00 Ry     beta= 0.10
     Davidson diagonalization with overlap
     ethr =  2.31E-09,  avg # of iterations =  2.9

     negative rho (up, down):  0.000E+00 2.888E-03
 
     Magnetic moment per site:
     atom:    1    charge:   14.4077    magn:    2.1851    constr:    0.0000
     atom:    2    charge:   14.4075    magn:    2.1871    constr:    0.0000
     atom:    3    charge:   14.4075    magn:    2.1858    constr:    0.0000
     atom:    4    charge:   14.4075    magn:    2.1871    constr:    0.0000
     atom:    5    charge:   14.4075    magn:    2.1858    constr:    0.0000
     atom:    6    charge:   14.4075    magn:    2.1871    constr:    0.0000
     atom:    7    charge:   14.4076    magn:    2.1864    constr:    0.0000
     atom:    8    charge:   14.4075    magn:    2.1871    constr:    0.0000
     atom:    9    charge:   14.4075    magn:    2.1858    constr:    0.0000
     atom:   10    charge:   14.4075    magn:    2.1871    constr:    0.0000
     atom:   11    charge:   14.4076    magn:    2.1864    constr:    0.0000
     atom:   12    charge:   14.4075    magn:    2.1871    constr:    0.0000
     atom:   13    charge:   14.4076    magn:    2.1864    constr:    0.0000
     atom:   14    charge:   14.4075    magn:    2.1871    constr:    0.0000
     atom:   15    charge:   14.4077    magn:    2.1871    constr:    0.0000
     atom:   16    charge:   14.4075    magn:    2.1871    constr:    0.0000

     total cpu time spent up to now is      479.5 secs

     End of self-consistent calculation

 ------ SPIN UP ------------


          k = 0.0546 0.0546 0.0546 ( 12704 PWs)   bands (ev):

   -70.2120 -70.1507 -70.1506 -70.1506 -70.1413 -70.1413 -70.1413 -70.1402
   -70.1399 -70.1399 -70.1394 -70.1394 -70.1392 -70.1363 -70.1350 -70.0873
   -36.4037 -36.4037 -36.4037 -36.4018 -36.4018 -36.4018 -36.2978 -36.2978
   -36.2934 -36.2413 -36.2382 -36.2381 -36.2381 -36.2243 -36.2243 -36.2149
   -36.2149 -36.2148 -36.1907 -36.1907 -36.1744 -36.1672 -36.1672 -36.1672
   -36.1589 -36.1589 -36.1589 -36.1517 -36.1517 -36.1517 -36.1493 -36.1493
   -36.1493 -36.1426 -36.1426 -36.1426 -36.1352 -36.1351 -36.1351 -36.0240
   -36.0225 -36.0225 -36.0225 -36.0204 -36.0204 -36.0204 -36.0198 -36.0198
     9.4973  13.0082  13.0082  13.0082  13.0249  13.0249  13.0249  13.0442
    13.0442  13.0442  13.1017  13.1017  13.4176  13.4176  13.4176  14.5644
    14.5777  14.5777  14.5777  14.5895  14.5895  14.5895  14.6442  14.6442
    14.7218  14.7218  14.7218  14.7776  14.7776  14.8282  15.0351  15.0351
    15.0351  15.6264  15.6264  15.6650  15.9347  15.9347  15.9347  16.0080
    16.0080  16.0080  16.0954  16.0955  16.0955  16.1707  16.1707  16.1707
    16.7458  16.7458  16.7563  16.7563  16.7563  16.7891  16.7891  16.7891
    16.8256  16.8256  16.8256  16.8316  16.8316  16.8316  16.9344  16.9344
    16.9344  16.9618  16.9618  16.9618  16.9697  16.9697  16.9711  16.9711
    17.7759  17.7759  17.7760  17.9023  17.9023  17.9024  17.9397  18.0005
    18.0005  18.0532  18.0532  18.0532  18.3222  18.3222  18.3222  18.5607
    18.5607  18.5607

          k = 0.0546 0.0546 0.1639 ( 12680 PWs)   bands (ev):

   -70.2098 -70.1616 -70.1502 -70.1502 -70.1423 -70.1423 -70.1409 -70.1398
   -70.1396 -70.1392 -70.1390 -70.1390 -70.1366 -70.1353 -70.1292 -70.0890
   -36.3983 -36.3983 -36.3976 -36.3955 -36.3922 -36.3922 -36.3002 -36.2936
   -36.2871 -36.2660 -36.2599 -36.2599 -36.2581 -36.2578 -36.2370 -36.2369
   -36.2140 -36.1957 -36.1913 -36.1876 -36.1828 -36.1671 -36.1671 -36.1583
   -36.1550 -36.1540 -36.1540 -36.1521 -36.1493 -36.1475 -36.1475 -36.1430
   -36.1430 -36.1392 -36.1392 -36.1188 -36.1162 -36.1162 -36.1120 -36.0339
   -36.0283 -36.0283 -36.0274 -36.0258 -36.0237 -36.0224 -36.0224 -36.0212
     9.6236  12.4636  13.0397  13.0398  13.0569  13.0569  13.0984  13.0984
    13.1128  13.1306  13.1543  13.1562  13.4541  13.4542  13.6492  14.4120
    14.4652  14.5565  14.5658  14.5749  14.5764  14.6192  14.6192  14.6547
    14.6547  14.6733  14.7050  14.7050  14.9599  14.9619  14.9889  14.9889
    15.3352  15.6070  15.6244  15.7175  15.7556  15.7556  15.8075  15.8940
    15.9065  15.9065  16.1161  16.1161  16.2319  16.2319  16.2915  16.3747
    16.4459  16.4459  16.5549  16.6848  16.6848  16.6916  16.7441  16.7684
    16.7879  16.7879  16.8380  16.8407  16.8587  16.8587  16.9368  16.9440
    16.9440  16.9661  16.9673  16.9686  16.9706  17.1436  17.1436  17.1659
    17.3039  17.4271  17.5143  17.7994  17.7994  17.8047  17.8162  17.8162
    17.8940  17.9941  18.1176  18.1176  18.3841  18.3841  18.4214  18.4214
    18.8969  18.8969

          k = 0.0546 0.0546 0.2731 ( 12650 PWs)   bands (ev):

   -70.2056 -70.1723 -70.1493 -70.1493 -70.1436 -70.1436 -70.1403 -70.1395
   -70.1394 -70.1388 -70.1387 -70.1386 -70.1372 -70.1357 -70.1194 -70.0922
   -36.3861 -36.3861 -36.3857 -36.3840 -36.3763 -36.3763 -36.3003 -36.2938
   -36.2898 -36.2883 -36.2883 -36.2849 -36.2769 -36.2736 -36.2669 -36.2669
   -36.2148 -36.2059 -36.2041 -36.1923 -36.1657 -36.1657 -36.1618 -36.1584
   -36.1580 -36.1565 -36.1565 -36.1459 -36.1459 -36.1431 -36.1431 -36.1272
   -36.1218 -36.1150 -36.1150 -36.0962 -36.0934 -36.0933 -36.0898 -36.0508
   -36.0386 -36.0386 -36.0378 -36.0365 -36.0315 -36.0285 -36.0285 -36.0278
     9.8725  11.8566  13.0808  13.0808  13.1275  13.1276  13.1838  13.1838
    13.2584  13.2588  13.2810  13.2962  13.4899  13.4899  13.7145  14.1171
    14.3240  14.3676  14.5089  14.5446  14.5532  14.5546  14.7121  14.7121
    14.7329  14.7329  14.7705  14.7705  14.9757  14.9757  15.1900  15.2012
    15.5149  15.5149  15.5749  15.5966  15.6221  15.6515  15.6515  15.7135
    15.7954  15.8633  16.0167  16.0167  16.2481  16.2481  16.2863  16.2863
    16.3343  16.3344  16.3636  16.5235  16.5724  16.5847  16.6153  16.7291
    16.7291  16.7420  16.8060  16.8060  16.8115  16.8600  16.8787  16.9409
    16.9575  16.9604  16.9633  16.9705  17.1488  17.1863  17.1863  17.2090
    17.3619  17.3798  17.3798  17.5997  17.7007  17.7934  17.7934  17.8470
    17.8470  17.9360  18.0820  18.0820  18.2888  18.2888  18.4991  18.4991
    18.9662  18.9662

          k = 0.0546 0.0546 0.3823 ( 12631 PWs)   bands (ev):

   -70.1995 -70.1824 -70.1481 -70.1481 -70.1452 -70.1451 -70.1396 -70.1392
   -70.1391 -70.1387 -70.1386 -70.1381 -70.1379 -70.1364 -70.1107 -70.0970
   -36.3684 -36.3678 -36.3678 -36.3672 -36.3544 -36.3544 -36.3211 -36.3196
   -36.3174 -36.3174 -36.2982 -36.2981 -36.2979 -36.2849 -36.2721 -36.2635
   -36.2364 -36.2274 -36.1933 -36.1852 -36.1711 -36.1666 -36.1639 -36.1639
   -36.1591 -36.1591 -36.1448 -36.1448 -36.1435 -36.1435 -36.1277 -36.0986
   -36.0958 -36.0916 -36.0916 -36.0757 -36.0727 -36.0719 -36.0718 -36.0698
   -36.0528 -36.0527 -36.0527 -36.0527 -36.0432 -36.0390 -36.0390 -36.0384
    10.2368  11.2542  13.1338  13.1339  13.1763  13.1764  13.2898  13.2898
    13.3941  13.4116  13.4742  13.4743  13.5160  13.5270  13.6605  13.8470
    14.0836  14.0927  14.4930  14.5078  14.5198  14.5270  14.8518  14.8518
    14.8780  14.8780  14.9315  14.9315  15.0667  15.0667  15.2884  15.2884
    15.3956  15.3956  15.4876  15.4959  15.5787  15.5787  15.5972  15.6234
    15.6418  15.6500  15.7695  15.7695  15.9004  16.0132  16.1878  16.2246
    16.2696  16.4291  16.4482  16.4482  16.4615  16.4615  16.6513  16.6513
    16.7281  16.7281  16.7859  16.8750  16.8843  16.8884  16.8926  16.9408
    16.9428  16.9463  16.9583  16.9728  17.0184  17.0638  17.3450  17.4189
    17.4189  17.4489  17.5434  17.6108  17.6108  17.7345  17.7345  17.8366
    17.9214  17.9214  17.9748  17.9748  18.1524  18.1524  18.6479  18.6480
    18.9226  18.9226

          k = 0.0546 0.0546-0.4916 ( 12666 PWs)   bands (ev):

   -70.1918 -70.1915 -70.1469 -70.1468 -70.1466 -70.1465 -70.1392 -70.1390
   -70.1388 -70.1388 -70.1387 -70.1386 -70.1376 -70.1369 -70.1033 -70.1030
   -36.3463 -36.3462 -36.3460 -36.3460 -36.3444 -36.3444 -36.3444 -36.3444
   -36.3280 -36.3280 -36.3280 -36.3280 -36.2933 -36.2931 -36.2560 -36.2557
   -36.2469 -36.2467 -36.1824 -36.1822 -36.1768 -36.1764 -36.1618 -36.1618
   -36.1615 -36.1615 -36.1442 -36.1442 -36.1439 -36.1439 -36.0988 -36.0986
   -36.0738 -36.0736 -36.0726 -36.0723 -36.0707 -36.0707 -36.0706 -36.0706
   -36.0582 -36.0579 -36.0536 -36.0536 -36.0536 -36.0535 -36.0528 -36.0526
    10.7038  10.7039  13.1750  13.1750  13.1751  13.1752  13.3971  13.3971
    13.3973  13.3973  13.5389  13.5390  13.6095  13.6096  13.7962  13.7963
    13.8004  13.8005  14.4993  14.4995  14.5071  14.5073  15.0268  15.0268
    15.0268  15.0268  15.0896  15.0896  15.0896  15.0896  15.2341  15.2341
    15.2341  15.2341  15.3741  15.3741  15.3741  15.3741  15.6129  15.6131
    15.6321  15.6324  15.8421  15.8424  15.8477  15.8480  16.0318  16.0319
    16.2321  16.2321  16.5564  16.5564  16.5565  16.5565  16.6128  16.6128
    16.6128  16.6128  16.9172  16.9174  16.9176  16.9179  16.9522  16.9523
    16.9574  16.9576  16.9830  16.9831  17.0658  17.0661  17.1681  17.1684
    17.6088  17.6088  17.6088  17.6088  17.7035  17.7037  17.8136  17.8136
    17.8137  17.8137  18.0246  18.0246  18.0246  18.0246  18.8018  18.8018
    18.8018  18.8018

          k = 0.0546 0.1639 0.1639 ( 12667 PWs)   bands (ev):

   -70.2077 -70.1609 -70.1608 -70.1497 -70.1453 -70.1419 -70.1419 -70.1395
   -70.1389 -70.1388 -70.1370 -70.1367 -70.1354 -70.1294 -70.1293 -70.0906
   -36.3974 -36.3926 -36.3926 -36.3869 -36.3869 -36.3791 -36.3046 -36.2909
   -36.2815 -36.2785 -36.2785 -36.2763 -36.2731 -36.2682 -36.2515 -36.2210
   -36.2106 -36.2105 -36.1908 -36.1908 -36.1877 -36.1706 -36.1625 -36.1625
   -36.1605 -36.1579 -36.1579 -36.1505 -36.1505 -36.1456 -36.1451 -36.1414
   -36.1308 -36.1241 -36.1198 -36.1198 -36.1030 -36.0942 -36.0941 -36.0476
   -36.0384 -36.0327 -36.0327 -36.0275 -36.0275 -36.0268 -36.0203 -36.0195
     9.7485  12.5312  12.5312  13.0037  13.1120  13.1289  13.1289  13.1840
    13.1840  13.1841  13.2050  13.2119  13.5001  13.6846  13.6846  14.3764
    14.4167  14.4167  14.4733  14.6045  14.6045  14.6240  14.6359  14.6359
    14.6365  14.6727  14.7319  14.7426  14.9279  14.9571  14.9709  15.2450
    15.2450  15.5580  15.6130  15.6388  15.6388  15.6876  15.7999  15.8036
    16.0450  16.0450  16.0903  16.0904  16.1097  16.1527  16.2724  16.3830
    16.3830  16.3899  16.3899  16.6288  16.6288  16.6838  16.7157  16.7319
    16.7455  16.7455  16.7529  16.8022  16.8022  16.8545  16.8545  16.9179
    16.9600  16.9664  16.9667  16.9758  17.0645  17.2369  17.3199  17.3392
    17.3392  17.3399  17.3399  17.4222  17.4222  17.6255  17.6804  17.6805
    17.8149  17.8590  18.0156  18.1801  18.1951  18.4806  19.0666  19.0666
    19.2014  19.2014

          k = 0.0546 0.1639 0.2731 ( 12655 PWs)   bands (ev):

   -70.2036 -70.1713 -70.1594 -70.1489 -70.1484 -70.1433 -70.1413 -70.1393
   -70.1385 -70.1384 -70.1376 -70.1359 -70.1345 -70.1298 -70.1199 -70.0937
   -36.3892 -36.3812 -36.3809 -36.3767 -36.3721 -36.3597 -36.3084 -36.3048
   -36.3015 -36.2945 -36.2926 -36.2924 -36.2825 -36.2747 -36.2626 -36.2413
   -36.2138 -36.2135 -36.1882 -36.1857 -36.1856 -36.1810 -36.1716 -36.1670
   -36.1660 -36.1612 -36.1564 -36.1491 -36.1471 -36.1374 -36.1360 -36.1214
   -36.1203 -36.1092 -36.1047 -36.0978 -36.0856 -36.0736 -36.0733 -36.0680
   -36.0523 -36.0411 -36.0411 -36.0377 -36.0345 -36.0326 -36.0223 -36.0222
     9.9946  11.9425  12.6478  12.9789  13.1715  13.1948  13.2694  13.2956
    13.3000  13.3023  13.3189  13.3479  13.5531  13.7073  13.7549  14.1383
    14.2733  14.3480  14.4789  14.5594  14.5787  14.6037  14.6378  14.6700
    14.6894  14.7051  14.7393  14.8800  14.8841  15.1025  15.1374  15.1843
    15.4186  15.4345  15.5143  15.5202  15.5582  15.6009  15.6131  15.7246
    15.8251  15.9140  15.9643  16.0482  16.1671  16.2300  16.2543  16.2885
    16.3086  16.3639  16.3750  16.4110  16.4114  16.5515  16.5942  16.6039
    16.6400  16.7465  16.7855  16.8047  16.8293  16.8522  16.8565  16.9471
    16.9568  16.9664  16.9856  16.9920  17.0722  17.1908  17.2094  17.2100
    17.3391  17.3716  17.3889  17.4134  17.4154  17.5257  17.5646  17.6271
    17.7401  17.9852  17.9903  18.0025  18.1785  18.6556  18.8521  19.3761
    19.4675  19.7601

          k = 0.0546 0.1639 0.3823 ( 12634 PWs)   bands (ev):

   -70.1976 -70.1811 -70.1572 -70.1516 -70.1477 -70.1447 -70.1404 -70.1390
   -70.1386 -70.1384 -70.1378 -70.1364 -70.1328 -70.1305 -70.1115 -70.0982
   -36.3745 -36.3645 -36.3640 -36.3620 -36.3519 -36.3348 -36.3311 -36.3231
   -36.3190 -36.3189 -36.3096 -36.3020 -36.3013 -36.2737 -36.2701 -36.2465
   -36.2350 -36.2075 -36.2021 -36.1844 -36.1807 -36.1766 -36.1734 -36.1704
   -36.1649 -36.1642 -36.1504 -36.1484 -36.1477 -36.1311 -36.1237 -36.1129
   -36.0949 -36.0923 -36.0883 -36.0855 -36.0776 -36.0697 -36.0684 -36.0556
   -36.0544 -36.0534 -36.0531 -36.0527 -36.0458 -36.0412 -36.0293 -36.0288
    10.3543  11.3544  12.7780  12.9465  13.2254  13.2572  13.3756  13.4247
    13.4374  13.4675  13.5387  13.5528  13.5744  13.6621  13.7052  13.8816
    14.0912  14.1116  14.5197  14.5487  14.5562  14.5682  14.6591  14.7715
    14.8096  14.8212  14.8681  14.9166  15.0584  15.1498  15.2896  15.3348
    15.3564  15.3599  15.3880  15.4128  15.4869  15.4944  15.5451  15.5527
    15.5596  15.5881  15.7130  15.8680  15.9789  16.0457  16.0505  16.1508
    16.3672  16.4476  16.4546  16.4610  16.4723  16.4742  16.5597  16.5659
    16.6717  16.7242  16.7685  16.8391  16.8497  16.8651  16.8745  16.9268
    16.9348  16.9674  16.9935  17.0055  17.0416  17.1179  17.1424  17.2151
    17.2592  17.3225  17.3805  17.4292  17.4316  17.5098  17.6932  17.7146
    17.7798  17.7882  17.9399  18.0975  18.1730  18.6275  18.8781  19.3222
    19.5879  19.8828

          k = 0.0546 0.1639-0.4916 ( 12642 PWs)   bands (ev):

   -70.1902 -70.1898 -70.1547 -70.1544 -70.1464 -70.1462 -70.1396 -70.1394
   -70.1389 -70.1385 -70.1374 -70.1369 -70.1317 -70.1313 -70.1044 -70.1040
   -36.3548 -36.3548 -36.3439 -36.3437 -36.3436 -36.3435 -36.3427 -36.3427
   -36.3278 -36.3278 -36.3078 -36.3077 -36.3056 -36.3056 -36.2542 -36.2539
   -36.2279 -36.2279 -36.1895 -36.1893 -36.1795 -36.1792 -36.1733 -36.1730
   -36.1682 -36.1680 -36.1483 -36.1480 -36.1271 -36.1268 -36.1203 -36.1201
   -36.0901 -36.0900 -36.0721 -36.0719 -36.0696 -36.0694 -36.0679 -36.0678
   -36.0603 -36.0600 -36.0533 -36.0532 -36.0408 -36.0407 -36.0394 -36.0393
    10.8143  10.8145  12.8833  12.8834  13.2644  13.2645  13.4819  13.4820
    13.5557  13.5558  13.5845  13.5845  13.6555  13.6555  13.8212  13.8213
    13.8368  13.8369  14.5243  14.5245  14.5438  14.5440  14.9225  14.9225
    14.9244  14.9244  14.9499  14.9500  14.9781  14.9781  15.3012  15.3012
    15.3173  15.3173  15.3873  15.3873  15.4801  15.4802  15.4829  15.4830
    15.5731  15.5733  15.6794  15.6796  15.6831  15.6833  16.1971  16.1972
    16.3115  16.3116  16.5001  16.5002  16.5800  16.5800  16.6061  16.6061
    16.6378  16.6379  16.8347  16.8349  16.9005  16.9007  16.9024  16.9027
    16.9337  16.9339  16.9729  16.9730  17.0483  17.0483  17.1084  17.1087
    17.2880  17.2881  17.3957  17.3957  17.5758  17.5759  17.6304  17.6304
    17.8339  17.8340  17.9618  17.9618  18.3960  18.3961  19.1125  19.1125
    19.7824  19.7824

          k = 0.0546 0.2731 0.2731 ( 12636 PWs)   bands (ev):

   -70.1997 -70.1692 -70.1692 -70.1533 -70.1480 -70.1426 -70.1426 -70.1390
   -70.1385 -70.1382 -70.1381 -70.1361 -70.1308 -70.1210 -70.1209 -70.0965
   -36.3856 -36.3710 -36.3710 -36.3642 -36.3642 -36.3372 -36.3165 -36.3161
   -36.3161 -36.3124 -36.3064 -36.3038 -36.2890 -36.2749 -36.2454 -36.2142
   -36.2122 -36.2121 -36.2097 -36.2097 -36.1823 -36.1774 -36.1770 -36.1706
   -36.1706 -36.1603 -36.1602 -36.1554 -36.1554 -36.1509 -36.1266 -36.1044
   -36.1008 -36.1008 -36.0941 -36.0913 -36.0907 -36.0742 -36.0696 -36.0555
   -36.0555 -36.0464 -36.0464 -36.0415 -36.0408 -36.0408 -36.0202 -36.0197
    10.2348  12.1017  12.1017  12.8630  13.3030  13.3453  13.3453  13.3862
    13.4164  13.4321  13.4321  13.4333  13.6437  13.7813  13.7813  14.2192
    14.2292  14.2292  14.2793  14.5983  14.6089  14.6501  14.6501  14.6625
    14.6862  14.6862  14.7484  14.7925  15.0379  15.0576  15.1147  15.3108
    15.3108  15.3885  15.3885  15.3928  15.4313  15.4535  15.5164  15.5736
    15.8472  15.8472  15.9819  15.9819  16.0345  16.0345  16.0624  16.2045
    16.2587  16.2587  16.3579  16.4347  16.5409  16.5409  16.5587  16.6061
    16.7666  16.7798  16.7798  16.7964  16.7964  16.8097  16.8097  16.8472
    16.8885  16.9266  16.9426  16.9767  17.0088  17.1249  17.1558  17.1558
    17.1793  17.1793  17.2327  17.3781  17.4364  17.4364  17.4471  17.7315
    17.7315  17.7781  18.0448  18.1998  18.2249  18.9159  19.4615  19.4615
    20.0927  20.0928

          k = 0.0546 0.2731 0.3823 ( 12649 PWs)   bands (ev):

   -70.1940 -70.1785 -70.1662 -70.1580 -70.1469 -70.1441 -70.1417 -70.1395
   -70.1387 -70.1381 -70.1376 -70.1365 -70.1275 -70.1226 -70.1131 -70.1008
   -36.3752 -36.3571 -36.3569 -36.3530 -36.3474 -36.3390 -36.3257 -36.3226
   -36.3224 -36.3224 -36.3213 -36.3098 -36.3076 -36.2632 -36.2455 -36.2299
   -36.2261 -36.2070 -36.2039 -36.1875 -36.1832 -36.1825 -36.1810 -36.1790
   -36.1781 -36.1749 -36.1633 -36.1551 -36.1535 -36.1351 -36.1189 -36.1183
   -36.1052 -36.0890 -36.0859 -36.0821 -36.0793 -36.0769 -36.0631 -36.0545
   -36.0541 -36.0526 -36.0520 -36.0460 -36.0407 -36.0400 -36.0224 -36.0223
    10.5845  11.5462  12.3079  12.7142  13.3985  13.3992  13.5019  13.5369
    13.5403  13.5853  13.5912  13.6533  13.6867  13.7404  13.7437  13.9948
    14.1067  14.1185  14.4294  14.5683  14.6038  14.6052  14.6285  14.6384
    14.7387  14.7679  14.7696  14.8388  15.0445  15.1374  15.1902  15.2418
    15.2425  15.3140  15.3511  15.3668  15.3728  15.3902  15.4557  15.5002
    15.5414  15.5883  15.6654  15.7156  15.7511  15.8072  16.2276  16.2779
    16.3218  16.4577  16.4833  16.4952  16.5019  16.5310  16.5370  16.5992
    16.7124  16.7297  16.7298  16.7526  16.8087  16.8248  16.8298  16.8380
    16.8972  16.9141  16.9375  16.9918  16.9989  17.0275  17.0455  17.0668
    17.1271  17.2124  17.2315  17.2321  17.2472  17.4058  17.4610  17.5571
    17.8714  17.9191  18.0356  18.1609  18.5186  19.1504  19.2268  19.8504
    20.0993  20.6952

          k = 0.0546 0.2731-0.4916 ( 12634 PWs)   bands (ev):

   -70.1870 -70.1867 -70.1626 -70.1622 -70.1457 -70.1454 -70.1407 -70.1405
   -70.1386 -70.1381 -70.1373 -70.1368 -70.1249 -70.1246 -70.1065 -70.1061
   -36.3592 -36.3592 -36.3402 -36.3400 -36.3400 -36.3399 -36.3398 -36.3396
   -36.3279 -36.3278 -36.3246 -36.3245 -36.2788 -36.2788 -36.2480 -36.2478
   -36.2051 -36.2050 -36.1965 -36.1962 -36.1955 -36.1953 -36.1781 -36.1779
   -36.1715 -36.1712 -36.1546 -36.1544 -36.1495 -36.1494 -36.1113 -36.1112
   -36.1111 -36.1110 -36.0681 -36.0679 -36.0658 -36.0656 -36.0655 -36.0654
   -36.0643 -36.0643 -36.0534 -36.0534 -36.0295 -36.0294 -36.0291 -36.0291
    11.0291  11.0293  12.5240  12.5241  13.4297  13.4298  13.6314  13.6314
    13.6377  13.6378  13.6552  13.6553  13.7810  13.7810  13.8613  13.8614
    13.8988  13.8989  14.5702  14.5704  14.5893  14.5894  14.7137  14.7138
    14.7518  14.7519  14.7894  14.7895  14.9711  14.9711  15.3265  15.3266
    15.3311  15.3312  15.3514  15.3515  15.4329  15.4332  15.4479  15.4481
    15.4822  15.4823  15.5053  15.5055  15.5104  15.5105  16.4035  16.4035
    16.4318  16.4318  16.4795  16.4796  16.5499  16.5500  16.6171  16.6172
    16.6266  16.6266  16.6281  16.6281  16.8622  16.8623  16.8727  16.8729
    16.8902  16.8904  16.9624  16.9627  17.0136  17.0137  17.0167  17.0167
    17.1114  17.1114  17.2497  17.2498  17.3215  17.3216  17.4414  17.4415
    17.9755  17.9755  18.0658  18.0658  18.8333  18.8334  19.5493  19.5493
    20.7535  20.7536

          k = 0.0546 0.3823 0.3823 ( 12619 PWs)   bands (ev):

   -70.1888 -70.1746 -70.1746 -70.1642 -70.1458 -70.1431 -70.1430 -70.1406
   -70.1384 -70.1377 -70.1377 -70.1367 -70.1228 -70.1155 -70.1155 -70.1045
   -36.3696 -36.3474 -36.3473 -36.3420 -36.3420 -36.3415 -36.3415 -36.3325
   -36.3297 -36.3284 -36.3273 -36.3172 -36.2806 -36.2522 -36.2222 -36.2222
   -36.2143 -36.2143 -36.2053 -36.2039 -36.2005 -36.1869 -36.1868 -36.1855
   -36.1748 -36.1626 -36.1626 -36.1582 -36.1581 -36.1580 -36.1493 -36.1106
   -36.1068 -36.0884 -36.0884 -36.0742 -36.0699 -36.0684 -36.0613 -36.0582
   -36.0572 -36.0571 -36.0532 -36.0532 -36.0292 -36.0292 -36.0202 -36.0199
    10.9172  11.8112  11.8113  12.4326  13.5497  13.5857  13.6329  13.6329
    13.6338  13.7365  13.7365  13.7498  13.7498  13.7648  13.8098  14.0601
    14.0887  14.1975  14.1975  14.5657  14.5880  14.5976  14.6611  14.6611
    14.6642  14.6642  14.6807  14.7502  14.9019  15.1263  15.1465  15.1465
    15.1893  15.2650  15.2887  15.3259  15.3937  15.3938  15.4105  15.4105
    15.4247  15.4247  15.4560  15.4954  15.6263  15.9868  15.9868  16.4243
    16.4827  16.4861  16.4861  16.5431  16.5618  16.5766  16.6105  16.6106
    16.6109  16.7086  16.7577  16.7577  16.7678  16.7678  16.7887  16.8422
    16.8423  16.8529  16.8545  16.8784  16.9424  16.9424  17.0007  17.0223
    17.0933  17.1220  17.1221  17.1989  17.2784  17.2784  17.3280  17.3397
    18.0210  18.0210  18.0841  18.1695  18.9018  19.6240  19.7003  19.7003
    20.4272  20.4272

          k = 0.0546 0.3823-0.4916 ( 12600 PWs)   bands (ev):

   -70.1825 -70.1821 -70.1700 -70.1696 -70.1446 -70.1443 -70.1420 -70.1417
   -70.1382 -70.1378 -70.1373 -70.1369 -70.1189 -70.1186 -70.1096 -70.1093
   -36.3580 -36.3579 -36.3395 -36.3395 -36.3373 -36.3372 -36.3368 -36.3366
   -36.3353 -36.3351 -36.3290 -36.3289 -36.2480 -36.2480 -36.2385 -36.2383
   -36.2123 -36.2120 -36.1979 -36.1978 -36.1883 -36.1883 -36.1821 -36.1821
   -36.1807 -36.1807 -36.1699 -36.1698 -36.1612 -36.1612 -36.1336 -36.1336
   -36.0968 -36.0965 -36.0737 -36.0734 -36.0629 -36.0627 -36.0622 -36.0621
   -36.0617 -36.0616 -36.0550 -36.0550 -36.0225 -36.0224 -36.0222 -36.0222
    11.3349  11.3351  12.1196  12.1197  13.6363  13.6364  13.6725  13.6725
    13.7003  13.7003  13.8263  13.8264  13.8808  13.8808  13.9629  13.9629
    13.9721  13.9721  14.4587  14.4588  14.5954  14.5955  14.6032  14.6033
    14.6126  14.6127  14.6714  14.6715  15.0065  15.0065  15.1898  15.1898
    15.2301  15.2303  15.2649  15.2651  15.2684  15.2686  15.2862  15.2863
    15.4581  15.4583  15.4787  15.4788  15.7083  15.7083  16.2541  16.2542
    16.5206  16.5208  16.5415  16.5415  16.6225  16.6225  16.6335  16.6335
    16.6630  16.6631  16.6947  16.6948  16.7876  16.7879  16.8038  16.8039
    16.8273  16.8275  16.8393  16.8395  16.8769  16.8770  17.0611  17.0612
    17.0908  17.0909  17.1620  17.1620  17.1634  17.1634  17.3051  17.3052
    18.0782  18.0782  18.1226  18.1226  19.2993  19.2994  20.0331  20.0332
    20.2647  20.2648

          k = 0.0546-0.4916-0.4916 ( 12588 PWs)   bands (ev):

   -70.1768 -70.1765 -70.1765 -70.1762 -70.1435 -70.1432 -70.1432 -70.1429
   -70.1379 -70.1375 -70.1375 -70.1371 -70.1140 -70.1136 -70.1136 -70.1133
   -36.3512 -36.3512 -36.3512 -36.3511 -36.3360 -36.3359 -36.3359 -36.3357
   -36.3316 -36.3315 -36.3315 -36.3314 -36.2267 -36.2264 -36.2264 -36.2262
   -36.2152 -36.2152 -36.2152 -36.2151 -36.1954 -36.1954 -36.1954 -36.1953
   -36.1665 -36.1665 -36.1665 -36.1664 -36.1570 -36.1570 -36.1570 -36.1569
   -36.0841 -36.0838 -36.0838 -36.0835 -36.0611 -36.0610 -36.0610 -36.0608
   -36.0583 -36.0582 -36.0582 -36.0580 -36.0199 -36.0199 -36.0199 -36.0198
    11.7093  11.7094  11.7094  11.7096  13.7007  13.7007  13.7007  13.7007
    13.8127  13.8127  13.8127  13.8128  13.9604  13.9605  13.9605  13.9606
    14.2049  14.2050  14.2050  14.2050  14.5611  14.5611  14.5611  14.5611
    14.6119  14.6119  14.6119  14.6119  15.0811  15.0811  15.0811  15.0811
    15.1893  15.1895  15.1895  15.1897  15.2336  15.2338  15.2338  15.2340
    15.4495  15.4496  15.4496  15.4497  15.9688  15.9689  15.9689  15.9690
    16.6163  16.6163  16.6163  16.6163  16.6289  16.6291  16.6291  16.6293
    16.7324  16.7325  16.7325  16.7326  16.7659  16.7660  16.7660  16.7660
    16.8181  16.8183  16.8183  16.8184  16.8615  16.8615  16.8615  16.8615
    17.1057  17.1058  17.1058  17.1058  17.2195  17.2195  17.2195  17.2195
    18.1278  18.1278  18.1278  18.1278  19.7789  19.7790  19.7790  19.7791
    20.5324  20.5325

          k = 0.1639 0.1639 0.1639 ( 12665 PWs)   bands (ev):

   -70.2057 -70.1602 -70.1601 -70.1601 -70.1448 -70.1448 -70.1448 -70.1378
   -70.1367 -70.1366 -70.1366 -70.1351 -70.1295 -70.1295 -70.1295 -70.0921
   -36.3916 -36.3916 -36.3916 -36.3749 -36.3749 -36.3749 -36.3001 -36.3001
   -36.2951 -36.2901 -36.2901 -36.2901 -36.2631 -36.2536 -36.2536 -36.2261
   -36.2261 -36.2261 -36.1953 -36.1953 -36.1953 -36.1658 -36.1658 -36.1658
   -36.1558 -36.1558 -36.1456 -36.1456 -36.1456 -36.1435 -36.1435 -36.1435
   -36.1214 -36.1214 -36.1214 -36.1137 -36.0833 -36.0833 -36.0833 -36.0622
   -36.0413 -36.0413 -36.0412 -36.0256 -36.0256 -36.0256 -36.0236 -36.0236
     9.8722  12.6027  12.6027  12.6027  13.0969  13.0969  13.0969  13.2611
    13.2611  13.2674  13.2674  13.2674  13.7325  13.7325  13.7325  14.3030
    14.4061  14.4061  14.4061  14.5558  14.5558  14.6222  14.6222  14.6222
    14.7149  14.7149  14.7149  14.8819  14.8823  14.8823  15.1496  15.1496
    15.1496  15.5483  15.5483  15.5829  15.5829  15.5829  15.8993  15.9288
    15.9288  15.9288  16.0554  16.0555  16.0555  16.1008  16.1008  16.1008
    16.4472  16.4472  16.4472  16.6591  16.6591  16.6591  16.7098  16.7098
    16.7420  16.7420  16.7421  16.8959  16.8959  16.8959  16.9205  16.9205
    16.9205  16.9532  16.9532  16.9532  16.9550  16.9550  16.9796  16.9796
    17.4088  17.4128  17.4128  17.4128  17.4410  17.4410  17.4410  17.8652
    17.8652  17.8652  17.9099  17.9099  18.7094  18.7094  18.7094  19.3241
    19.3241  19.3241

          k = 0.1639 0.1639 0.2731 ( 12657 PWs)   bands (ev):

   -70.2016 -70.1702 -70.1586 -70.1586 -70.1480 -70.1479 -70.1440 -70.1389
   -70.1363 -70.1352 -70.1345 -70.1344 -70.1299 -70.1299 -70.1205 -70.0950
   -36.3836 -36.3835 -36.3797 -36.3668 -36.3569 -36.3569 -36.3099 -36.3092
   -36.3091 -36.3074 -36.3023 -36.2910 -36.2853 -36.2507 -36.2506 -36.2471
   -36.2384 -36.2193 -36.1973 -36.1960 -36.1960 -36.1761 -36.1737 -36.1737
   -36.1679 -36.1612 -36.1482 -36.1378 -36.1378 -36.1252 -36.1250 -36.1250
   -36.1233 -36.1233 -36.0983 -36.0965 -36.0827 -36.0680 -36.0680 -36.0651
   -36.0528 -36.0528 -36.0467 -36.0365 -36.0318 -36.0275 -36.0275 -36.0240
    10.1158  12.0306  12.7270  12.7270  13.0762  13.0762  13.2766  13.3583
    13.3662  13.3778  13.3778  13.4261  13.7770  13.7770  13.8105  14.1444
    14.2310  14.4341  14.4403  14.4403  14.5234  14.5962  14.6683  14.6866
    14.6866  14.7329  14.8349  14.8349  14.9646  15.0644  15.0644  15.0726
    15.3140  15.4334  15.4334  15.4859  15.4978  15.5300  15.6870  15.6871
    15.7141  15.7141  15.9396  16.0289  16.0965  16.1287  16.2240  16.2240
    16.2595  16.2595  16.3095  16.4884  16.4884  16.6261  16.6669  16.6775
    16.6775  16.7181  16.7586  16.7878  16.8299  16.8299  16.8541  16.9253
    16.9395  16.9502  16.9705  17.0041  17.0360  17.0360  17.0652  17.0652
    17.1451  17.1820  17.5096  17.5096  17.5324  17.5381  17.5381  17.5806
    17.7175  17.9258  17.9259  17.9450  18.4211  18.4211  19.3325  19.5381
    19.5381  20.1948

          k = 0.1639 0.1639 0.3823 ( 12632 PWs)   bands (ev):

   -70.1958 -70.1798 -70.1565 -70.1565 -70.1510 -70.1510 -70.1429 -70.1403
   -70.1359 -70.1352 -70.1328 -70.1328 -70.1306 -70.1306 -70.1123 -70.0994
   -36.3698 -36.3698 -36.3625 -36.3552 -36.3338 -36.3338 -36.3308 -36.3308
   -36.3255 -36.3145 -36.3117 -36.3098 -36.2787 -36.2787 -36.2777 -36.2415
   -36.2293 -36.2220 -36.1932 -36.1932 -36.1895 -36.1893 -36.1812 -36.1812
   -36.1671 -36.1620 -36.1537 -36.1329 -36.1329 -36.1258 -36.1258 -36.1082
   -36.1041 -36.1041 -36.0973 -36.0806 -36.0774 -36.0674 -36.0674 -36.0548
   -36.0533 -36.0533 -36.0523 -36.0496 -36.0437 -36.0327 -36.0327 -36.0286
    10.4713  11.4556  12.8671  12.8671  13.0458  13.0458  13.5005  13.5040
    13.5073  13.5073  13.5287  13.6429  13.7447  13.7447  13.7668  13.9002
    14.1017  14.1502  14.5196  14.5650  14.5959  14.5959  14.6145  14.6182
    14.7917  14.7917  14.9624  14.9624  15.0166  15.0166  15.2059  15.2954
    15.3202  15.3202  15.3414  15.3414  15.4135  15.4430  15.4445  15.4893
    15.4893  15.5043  15.7536  15.7537  15.7594  15.8962  16.1786  16.2297
    16.3151  16.4448  16.4448  16.5084  16.5221  16.5221  16.5300  16.6159
    16.6159  16.7440  16.7440  16.8272  16.8439  16.8600  16.8653  16.9178
    16.9211  16.9315  16.9430  16.9446  17.0230  17.0504  17.1120  17.1120
    17.1499  17.1499  17.2886  17.4691  17.6746  17.6746  17.6813  17.6813
    17.7286  17.8988  17.8988  17.9210  18.1599  18.1599  19.7963  19.7963
    19.9885  20.2079

          k = 0.1639 0.1639-0.4916 ( 12640 PWs)   bands (ev):

   -70.1886 -70.1883 -70.1541 -70.1541 -70.1538 -70.1537 -70.1418 -70.1415
   -70.1357 -70.1353 -70.1318 -70.1317 -70.1314 -70.1314 -70.1054 -70.1050
   -36.3518 -36.3518 -36.3518 -36.3518 -36.3413 -36.3411 -36.3405 -36.3402
   -36.3126 -36.3125 -36.3072 -36.3072 -36.3072 -36.3071 -36.2612 -36.2609
   -36.2099 -36.2099 -36.2055 -36.2052 -36.1882 -36.1882 -36.1879 -36.1879
   -36.1592 -36.1589 -36.1370 -36.1369 -36.1290 -36.1290 -36.1287 -36.1287
   -36.0848 -36.0848 -36.0848 -36.0848 -36.0730 -36.0728 -36.0665 -36.0663
   -36.0592 -36.0589 -36.0413 -36.0413 -36.0412 -36.0412 -36.0374 -36.0374
    10.9249  10.9251  12.9802  12.9802  12.9803  12.9804  13.6395  13.6395
    13.6396  13.6396  13.6495  13.6496  13.6830  13.6830  13.8308  13.8309
    13.8865  13.8866  14.5361  14.5363  14.5871  14.5872  14.8527  14.8528
    14.8528  14.8528  14.9202  14.9203  14.9203  14.9203  15.2940  15.2940
    15.2940  15.2940  15.4226  15.4226  15.4226  15.4226  15.4271  15.4272
    15.4691  15.4693  15.5224  15.5227  15.5337  15.5338  16.3466  16.3466
    16.3683  16.3684  16.5630  16.5630  16.5631  16.5631  16.5759  16.5760
    16.6133  16.6133  16.6133  16.6133  16.8911  16.8913  16.8986  16.8989
    16.9130  16.9132  16.9380  16.9381  17.1364  17.1365  17.1534  17.1535
    17.1536  17.1536  17.1948  17.1951  17.8099  17.8099  17.8099  17.8099
    17.8457  17.8459  17.9074  17.9074  17.9074  17.9074  20.0435  20.0436
    20.0436  20.0436

          k = 0.1639 0.2731 0.2731 ( 12637 PWs)   bands (ev):

   -70.1979 -70.1682 -70.1682 -70.1572 -70.1527 -70.1470 -70.1469 -70.1405
   -70.1348 -70.1344 -70.1342 -70.1309 -70.1303 -70.1214 -70.1214 -70.0978
   -36.3798 -36.3726 -36.3726 -36.3515 -36.3515 -36.3360 -36.3186 -36.3185
   -36.3185 -36.3182 -36.3116 -36.2920 -36.2884 -36.2670 -36.2460 -36.2289
   -36.2227 -36.2227 -36.2194 -36.2194 -36.2030 -36.1859 -36.1859 -36.1859
   -36.1511 -36.1459 -36.1459 -36.1414 -36.1414 -36.1275 -36.1256 -36.1139
   -36.1085 -36.1054 -36.1009 -36.1009 -36.0843 -36.0673 -36.0600 -36.0545
   -36.0545 -36.0526 -36.0526 -36.0372 -36.0372 -36.0370 -36.0254 -36.0240
    10.3541  12.1942  12.1942  12.8673  12.9662  13.2638  13.2638  13.4466
    13.4755  13.4976  13.5337  13.5337  13.8604  13.8604  13.8742  14.2034
    14.2115  14.2115  14.3899  14.4092  14.5643  14.6537  14.6537  14.7299
    14.7550  14.7599  14.7599  14.8585  14.9502  14.9711  15.0369  15.1952
    15.1952  15.3630  15.3667  15.3701  15.3701  15.4125  15.4831  15.5564
    15.6068  15.6068  15.8485  15.8485  15.9299  15.9300  15.9947  16.1853
    16.2843  16.2843  16.3399  16.5698  16.6189  16.6341  16.6661  16.6661
    16.7394  16.7423  16.7424  16.7992  16.8130  16.8130  16.8607  16.8914
    16.9194  16.9285  16.9285  16.9458  16.9690  16.9690  16.9737  17.0318
    17.1093  17.1861  17.1862  17.5284  17.6196  17.6276  17.6277  17.6908
    17.6908  17.7180  17.9384  18.0016  18.1051  18.9612  18.9612  19.8114
    20.6103  20.6103

          k = 0.1639 0.2731 0.3823 ( 12642 PWs)   bands (ev):

   -70.1924 -70.1772 -70.1653 -70.1573 -70.1552 -70.1500 -70.1457 -70.1423
   -70.1345 -70.1341 -70.1329 -70.1308 -70.1277 -70.1229 -70.1138 -70.1019
   -36.3698 -36.3609 -36.3565 -36.3444 -36.3372 -36.3324 -36.3313 -36.3272
   -36.3230 -36.3187 -36.3134 -36.3106 -36.2880 -36.2769 -36.2522 -36.2413
   -36.2351 -36.2150 -36.2091 -36.2045 -36.2018 -36.1973 -36.1948 -36.1926
   -36.1671 -36.1504 -36.1455 -36.1361 -36.1323 -36.1284 -36.1241 -36.1186
   -36.1053 -36.0921 -36.0920 -36.0843 -36.0802 -36.0731 -36.0647 -36.0581
   -36.0518 -36.0518 -36.0478 -36.0413 -36.0403 -36.0402 -36.0271 -36.0259
    10.7005  11.6495  12.4064  12.8204  13.0297  13.2364  13.5271  13.5664
    13.6223  13.6266  13.6629  13.7436  13.8209  13.8292  13.8907  13.9968
    14.1367  14.1618  14.4034  14.4956  14.5577  14.6136  14.6570  14.6793
    14.7403  14.8154  14.8258  14.8825  15.0018  15.0030  15.0727  15.1576
    15.1720  15.2655  15.2723  15.3080  15.3167  15.3421  15.3587  15.3913
    15.4422  15.4823  15.5448  15.5901  15.6007  15.6455  16.0389  16.3593
    16.3627  16.4553  16.4738  16.5653  16.5658  16.5868  16.6243  16.6245
    16.6997  16.7280  16.7321  16.7574  16.7907  16.8188  16.8263  16.8895
    16.8900  16.9211  16.9461  16.9462  16.9520  16.9908  17.0155  17.0329
    17.0943  17.1090  17.3198  17.3802  17.3972  17.5590  17.6441  17.8156
    17.8207  17.8302  17.9421  17.9974  17.9977  18.6252  19.5388  20.1373
    20.7127  20.7460

          k = 0.1639 0.2731-0.4916 ( 12644 PWs)   bands (ev):

   -70.1855 -70.1852 -70.1617 -70.1614 -70.1529 -70.1526 -70.1442 -70.1439
   -70.1344 -70.1340 -70.1319 -70.1315 -70.1252 -70.1248 -70.1074 -70.1071
   -36.3551 -36.3551 -36.3465 -36.3465 -36.3365 -36.3362 -36.3360 -36.3358
   -36.3228 -36.3227 -36.3105 -36.3104 -36.2821 -36.2821 -36.2609 -36.2607
   -36.2187 -36.2185 -36.2074 -36.2072 -36.2015 -36.2014 -36.1884 -36.1884
   -36.1622 -36.1621 -36.1488 -36.1485 -36.1320 -36.1318 -36.1112 -36.1109
   -36.1032 -36.1031 -36.0776 -36.0775 -36.0707 -36.0704 -36.0643 -36.0642
   -36.0627 -36.0624 -36.0452 -36.0452 -36.0324 -36.0324 -36.0312 -36.0312
    11.1400  11.1401  12.6281  12.6282  13.1628  13.1629  13.7040  13.7040
    13.7390  13.7391  13.7957  13.7958  13.8025  13.8025  13.8411  13.8412
    13.9685  13.9686  14.5768  14.5770  14.6277  14.6278  14.6852  14.6852
    14.7054  14.7055  14.8281  14.8282  14.9357  14.9357  15.2620  15.2620
    15.2700  15.2703  15.2962  15.2962  15.3021  15.3022  15.3241  15.3242
    15.3689  15.3689  15.3972  15.3974  15.3980  15.3981  16.2841  16.2842
    16.4606  16.4606  16.5584  16.5584  16.5897  16.5898  16.6097  16.6097
    16.6138  16.6139  16.6622  16.6623  16.8562  16.8564  16.8755  16.8757
    16.8913  16.8915  16.9474  16.9476  16.9800  16.9802  17.0812  17.0813
    17.1410  17.1413  17.2050  17.2051  17.5661  17.5662  17.6100  17.6100
    17.9018  17.9019  17.9313  17.9314  18.3054  18.3054  20.1352  20.1353
    20.4600  20.4600

          k = 0.1639 0.3823 0.3823 ( 12640 PWs)   bands (ev):

   -70.1873 -70.1735 -70.1734 -70.1633 -70.1533 -70.1484 -70.1484 -70.1444
   -70.1337 -70.1329 -70.1329 -70.1313 -70.1231 -70.1161 -70.1161 -70.1055
   -36.3640 -36.3483 -36.3483 -36.3386 -36.3386 -36.3341 -36.3306 -36.3306
   -36.3280 -36.3278 -36.3202 -36.3008 -36.2835 -36.2676 -36.2359 -36.2354
   -36.2354 -36.2224 -36.2224 -36.2131 -36.2120 -36.2107 -36.2107 -36.1878
   -36.1608 -36.1452 -36.1450 -36.1449 -36.1395 -36.1394 -36.1315 -36.1059
   -36.1029 -36.0864 -36.0863 -36.0808 -36.0796 -36.0673 -36.0633 -36.0632
   -36.0571 -36.0511 -36.0511 -36.0509 -36.0319 -36.0319 -36.0253 -36.0243
    11.0313  11.9172  11.9172  12.5420  13.2287  13.4999  13.4999  13.6533
    13.7159  13.7961  13.8181  13.8181  13.8681  13.8681  14.0229  14.0540
    14.1580  14.2005  14.2006  14.4403  14.5966  14.6213  14.6798  14.6798
    14.6904  14.6904  14.7483  14.7852  14.8789  14.9314  15.1075  15.1117
    15.1117  15.1853  15.2402  15.2534  15.2534  15.2846  15.2966  15.2966
    15.3115  15.3192  15.3192  15.3917  15.4716  15.7684  15.7684  16.2697
    16.4995  16.4995  16.5553  16.5619  16.6058  16.6064  16.7024  16.7101
    16.7540  16.7540  16.7760  16.7861  16.7861  16.7938  16.7938  16.8471
    16.8544  16.9115  16.9115  16.9289  16.9591  16.9964  16.9964  17.0407
    17.0407  17.0751  17.1532  17.2113  17.4204  17.4205  17.4738  17.5516
    17.9190  17.9190  17.9742  18.0270  18.3580  19.1271  19.1271  20.1848
    20.5390  21.3018

          k = 0.1639 0.3823-0.4916 ( 12616 PWs)   bands (ev):

   -70.1811 -70.1807 -70.1689 -70.1686 -70.1512 -70.1508 -70.1467 -70.1463
   -70.1334 -70.1330 -70.1321 -70.1318 -70.1194 -70.1190 -70.1104 -70.1101
   -36.3528 -36.3528 -36.3401 -36.3400 -36.3350 -36.3350 -36.3337 -36.3334
   -36.3291 -36.3290 -36.3155 -36.3155 -36.2534 -36.2534 -36.2533 -36.2530
   -36.2258 -36.2257 -36.2251 -36.2248 -36.2150 -36.2149 -36.1915 -36.1915
   -36.1661 -36.1661 -36.1426 -36.1424 -36.1351 -36.1351 -36.1233 -36.1233
   -36.0952 -36.0949 -36.0709 -36.0708 -36.0702 -36.0699 -36.0648 -36.0646
   -36.0639 -36.0638 -36.0507 -36.0507 -36.0269 -36.0268 -36.0263 -36.0263
    11.4458  11.4460  12.2281  12.2283  13.4030  13.4031  13.7464  13.7464
    13.7821  13.7822  13.7986  13.7986  13.9911  13.9912  13.9938  13.9938
    14.0684  14.0684  14.4620  14.4621  14.5604  14.5605  14.6016  14.6017
    14.6270  14.6271  14.7336  14.7337  14.9795  14.9795  15.0679  15.0681
    15.1549  15.1551  15.1627  15.1627  15.1681  15.1683  15.2061  15.2062
    15.3487  15.3488  15.3514  15.3515  15.5220  15.5221  15.9966  15.9967
    16.5608  16.5608  16.6235  16.6235  16.6580  16.6581  16.6777  16.6779
    16.7631  16.7631  16.7900  16.7901  16.7978  16.7980  16.8328  16.8330
    16.8722  16.8724  16.8762  16.8763  16.9752  16.9753  16.9918  16.9920
    17.0387  17.0388  17.2564  17.2565  17.2883  17.2884  17.4378  17.4378
    17.9707  17.9707  17.9972  17.9973  18.7360  18.7361  19.6479  19.6480
    20.9479  20.9479

          k = 0.1639-0.4916-0.4916 ( 12600 PWs)   bands (ev):

   -70.1757 -70.1753 -70.1753 -70.1750 -70.1491 -70.1488 -70.1488 -70.1485
   -70.1328 -70.1324 -70.1324 -70.1321 -70.1146 -70.1143 -70.1143 -70.1139
   -36.3457 -36.3456 -36.3456 -36.3456 -36.3350 -36.3349 -36.3349 -36.3347
   -36.3219 -36.3217 -36.3217 -36.3216 -36.2408 -36.2406 -36.2406 -36.2404
   -36.2243 -36.2243 -36.2243 -36.2242 -36.2227 -36.2227 -36.2227 -36.2227
   -36.1443 -36.1443 -36.1443 -36.1443 -36.1382 -36.1382 -36.1382 -36.1381
   -36.0817 -36.0814 -36.0814 -36.0811 -36.0662 -36.0661 -36.0661 -36.0660
   -36.0575 -36.0573 -36.0573 -36.0572 -36.0250 -36.0250 -36.0250 -36.0249
    11.8198  11.8199  11.8199  11.8201  13.6434  13.6435  13.6435  13.6436
    13.7786  13.7786  13.7786  13.7787  14.1183  14.1184  14.1184  14.1184
    14.2219  14.2219  14.2219  14.2220  14.5114  14.5114  14.5114  14.5114
    14.6676  14.6676  14.6676  14.6676  15.0442  15.0444  15.0444  15.0446
    15.0550  15.0551  15.0551  15.0551  15.1516  15.1518  15.1518  15.1519
    15.3301  15.3302  15.3302  15.3303  15.7362  15.7363  15.7363  15.7364
    16.6262  16.6262  16.6262  16.6262  16.7267  16.7269  16.7269  16.7270
    16.8147  16.8149  16.8149  16.8151  16.8209  16.8211  16.8211  16.8213
    16.8377  16.8378  16.8378  16.8378  17.0060  17.0061  17.0061  17.0062
    17.0347  17.0348  17.0348  17.0348  17.3222  17.3223  17.3223  17.3223
    18.0086  18.0087  18.0087  18.0087  19.1845  19.1846  19.1846  19.1848
    21.4545  21.4546

          k = 0.2731 0.2731 0.2731 ( 12641 PWs)   bands (ev):

   -70.1942 -70.1662 -70.1662 -70.1662 -70.1515 -70.1514 -70.1514 -70.1430
   -70.1334 -70.1310 -70.1310 -70.1310 -70.1224 -70.1223 -70.1223 -70.1003
   -36.3684 -36.3684 -36.3683 -36.3339 -36.3339 -36.3339 -36.3248 -36.3247
   -36.3247 -36.3229 -36.3023 -36.3023 -36.2766 -36.2766 -36.2411 -36.2411
   -36.2411 -36.2277 -36.2277 -36.2277 -36.2094 -36.2007 -36.2007 -36.2007
   -36.1290 -36.1290 -36.1290 -36.1277 -36.1277 -36.1276 -36.1273 -36.1219
   -36.1219 -36.1018 -36.1018 -36.1018 -36.0758 -36.0648 -36.0648 -36.0648
   -36.0480 -36.0480 -36.0480 -36.0357 -36.0357 -36.0357 -36.0323 -36.0323
    10.5881  12.3667  12.3667  12.3668  13.1666  13.1666  13.1666  13.5582
    13.5582  13.6512  13.6512  13.6512  13.9807  13.9807  13.9807  14.2055
    14.2056  14.2056  14.2147  14.5439  14.5583  14.5583  14.6963  14.6963
    14.6963  14.8619  14.8619  14.8619  14.8702  14.8702  15.0780  15.0780
    15.0780  15.2792  15.2792  15.2792  15.3128  15.3128  15.3128  15.3763
    15.3763  15.6223  15.6223  15.6223  15.6779  15.6779  15.6780  16.3617
    16.3734  16.3734  16.3734  16.5596  16.6878  16.6878  16.7170  16.7170
    16.7170  16.7566  16.7566  16.7566  16.7916  16.7916  16.7916  16.8964
    16.8964  16.8964  16.9154  16.9154  17.0082  17.0082  17.0082  17.0303
    17.0303  17.3423  17.3423  17.3423  17.6618  17.6618  17.6618  17.7300
    17.7300  17.7300  17.7471  17.7471  18.5653  18.5653  18.5653  20.7440
    20.8913  20.8913

          k = 0.2731 0.2731 0.3823 ( 12636 PWs)   bands (ev):

   -70.1891 -70.1747 -70.1634 -70.1634 -70.1558 -70.1558 -70.1498 -70.1453
   -70.1323 -70.1312 -70.1280 -70.1280 -70.1237 -70.1237 -70.1152 -70.1041
   -36.3593 -36.3593 -36.3514 -36.3348 -36.3348 -36.3313 -36.3258 -36.3257
   -36.3141 -36.3125 -36.3125 -36.3050 -36.2889 -36.2641 -36.2641 -36.2588
   -36.2509 -36.2290 -36.2289 -36.2191 -36.2137 -36.2137 -36.2126 -36.1886
   -36.1541 -36.1477 -36.1301 -36.1269 -36.1187 -36.1187 -36.1092 -36.1092
   -36.1050 -36.1050 -36.0948 -36.0799 -36.0774 -36.0774 -36.0687 -36.0636
   -36.0514 -36.0449 -36.0433 -36.0433 -36.0392 -36.0365 -36.0365 -36.0313
    10.9273  11.8473  12.5921  12.5922  13.0260  13.0260  13.4510  13.6782
    13.7034  13.7777  13.7777  13.8575  13.9626  13.9911  13.9911  14.0093
    14.1780  14.2023  14.3505  14.3505  14.5763  14.6536  14.7040  14.7447
    14.7713  14.7733  14.7733  14.8936  14.8936  14.9763  14.9763  14.9969
    15.0944  15.0944  15.1792  15.1955  15.1955  15.2301  15.2340  15.2890
    15.3249  15.3455  15.3935  15.3935  15.4055  15.4055  15.7625  16.2581
    16.4426  16.4982  16.4982  16.5621  16.6147  16.7164  16.7164  16.7290
    16.7290  16.7601  16.7699  16.7699  16.8129  16.8257  16.8823  16.9021
    16.9120  16.9136  16.9136  16.9157  16.9851  16.9939  16.9976  16.9976
    17.0484  17.1249  17.4744  17.5035  17.6104  17.6104  17.6827  17.6827
    17.7564  17.7564  17.7612  17.8117  18.2259  18.2259  19.0750  20.1614
    21.2242  21.2242

          k = 0.2731 0.2731-0.4916 ( 12608 PWs)   bands (ev):

   -70.1826 -70.1822 -70.1601 -70.1600 -70.1597 -70.1597 -70.1478 -70.1475
   -70.1318 -70.1314 -70.1258 -70.1258 -70.1254 -70.1254 -70.1093 -70.1089
   -36.3473 -36.3473 -36.3473 -36.3473 -36.3304 -36.3301 -36.3286 -36.3284
   -36.3221 -36.3220 -36.2886 -36.2886 -36.2885 -36.2885 -36.2716 -36.2713
   -36.2391 -36.2389 -36.2239 -36.2239 -36.2237 -36.2237 -36.1830 -36.1829
   -36.1678 -36.1678 -36.1298 -36.1295 -36.1108 -36.1108 -36.1106 -36.1106
   -36.0923 -36.0923 -36.0922 -36.0922 -36.0712 -36.0709 -36.0649 -36.0647
   -36.0608 -36.0605 -36.0391 -36.0391 -36.0391 -36.0390 -36.0333 -36.0333
    11.3553  11.3554  12.8274  12.8274  12.8275  12.8276  13.7984  13.7984
    13.8308  13.8308  13.8529  13.8529  13.8989  13.8989  13.8990  13.8990
    14.0719  14.0719  14.6107  14.6108  14.6219  14.6219  14.6220  14.6220
    14.6653  14.6654  14.8735  14.8735  14.8735  14.8735  15.0376  15.0378
    15.1215  15.1216  15.2145  15.2145  15.2145  15.2145  15.2186  15.2186
    15.2187  15.2187  15.2384  15.2384  15.2599  15.2601  15.9829  15.9830
    16.5290  16.5290  16.6246  16.6246  16.6247  16.6247  16.7410  16.7410
    16.7411  16.7411  16.7768  16.7768  16.8463  16.8465  16.8504  16.8506
    16.9076  16.9077  16.9229  16.9231  16.9586  16.9586  16.9587  16.9587
    17.2407  17.2410  17.2702  17.2703  17.7294  17.7294  17.7294  17.7294
    17.8143  17.8144  17.9108  17.9109  17.9109  17.9109  19.6085  19.6086
    21.5223  21.5223

          k = 0.2731 0.3823 0.3823 ( 12623 PWs)   bands (ev):

   -70.1843 -70.1712 -70.1711 -70.1615 -70.1608 -70.1538 -70.1538 -70.1484
   -70.1307 -70.1286 -70.1286 -70.1249 -70.1238 -70.1174 -70.1173 -70.1075
   -36.3527 -36.3441 -36.3441 -36.3340 -36.3329 -36.3329 -36.3227 -36.3179
   -36.3153 -36.3153 -36.3084 -36.2890 -36.2862 -36.2799 -36.2650 -36.2516
   -36.2516 -36.2391 -36.2370 -36.2370 -36.2331 -36.2331 -36.2306 -36.1804
   -36.1678 -36.1278 -36.1278 -36.1183 -36.1183 -36.1172 -36.1063 -36.1038
   -36.0946 -36.0922 -36.0855 -36.0837 -36.0837 -36.0717 -36.0717 -36.0666
   -36.0511 -36.0502 -36.0502 -36.0458 -36.0372 -36.0372 -36.0351 -36.0333
    11.2537  12.1207  12.1208  12.7540  12.8390  13.3159  13.3160  13.7796
    13.8572  13.8730  13.9747  13.9747  13.9870  13.9870  13.9998  14.1748
    14.2025  14.2025  14.2693  14.3090  14.6240  14.6529  14.7154  14.7202
    14.7202  14.7430  14.7439  14.7439  14.8371  14.8812  14.9185  15.0297
    15.0298  15.0509  15.0509  15.0808  15.0981  15.1230  15.1231  15.1658
    15.1658  15.1935  15.2219  15.2399  15.2532  15.4994  15.4994  15.9574
    16.5484  16.5484  16.5796  16.6465  16.7180  16.7509  16.7586  16.7586
    16.7757  16.7892  16.8484  16.8499  16.8499  16.8564  16.8614  16.9018
    16.9018  16.9046  16.9101  16.9101  16.9628  16.9628  16.9723  17.0165
    17.1769  17.3015  17.3015  17.4040  17.5144  17.5144  17.5749  17.7624
    17.7624  17.7809  17.8012  17.8930  17.9444  18.6717  18.6717  19.6350
    21.6260  22.2489

          k = 0.2731 0.3823-0.4916 ( 12634 PWs)   bands (ev):

   -70.1784 -70.1780 -70.1669 -70.1665 -70.1577 -70.1573 -70.1514 -70.1511
   -70.1297 -70.1293 -70.1267 -70.1263 -70.1204 -70.1200 -70.1121 -70.1118
   -36.3432 -36.3432 -36.3373 -36.3372 -36.3268 -36.3267 -36.3260 -36.3257
   -36.3190 -36.3189 -36.2975 -36.2974 -36.2716 -36.2713 -36.2632 -36.2632
   -36.2519 -36.2518 -36.2441 -36.2439 -36.2406 -36.2405 -36.2086 -36.2086
   -36.1476 -36.1475 -36.1172 -36.1170 -36.1104 -36.1103 -36.1092 -36.1092
   -36.0921 -36.0919 -36.0821 -36.0820 -36.0680 -36.0679 -36.0677 -36.0674
   -36.0654 -36.0652 -36.0483 -36.0483 -36.0357 -36.0357 -36.0342 -36.0341
    11.6611  11.6613  12.4378  12.4380  13.1005  13.1007  13.6615  13.6615
    13.8854  13.8854  13.9391  13.9392  14.0355  14.0356  14.1155  14.1156
    14.1995  14.1995  14.4651  14.4652  14.5216  14.5217  14.6232  14.6233
    14.6670  14.6671  14.7994  14.7994  14.8800  14.8801  14.9304  14.9305
    14.9651  14.9652  15.0319  15.0321  15.0759  15.0760  15.1136  15.1137
    15.1618  15.1619  15.1958  15.1959  15.2717  15.2718  15.6926  15.6927
    16.6075  16.6076  16.6505  16.6505  16.6736  16.6737  16.8022  16.8024
    16.8138  16.8139  16.8662  16.8664  16.8697  16.8699  16.8764  16.8764
    16.9071  16.9072  16.9410  16.9411  16.9588  16.9589  17.0340  17.0340
    17.1860  17.1863  17.3130  17.3131  17.5302  17.5303  17.5893  17.5894
    17.7920  17.7920  17.7931  17.7931  18.2994  18.2995  19.1424  19.1425
    22.0151  22.0152

          k = 0.2731-0.4916-0.4916 ( 12664 PWs)   bands (ev):

   -70.1733 -70.1729 -70.1729 -70.1726 -70.1549 -70.1546 -70.1546 -70.1543
   -70.1282 -70.1278 -70.1278 -70.1275 -70.1160 -70.1156 -70.1156 -70.1153
   -36.3354 -36.3354 -36.3354 -36.3353 -36.3286 -36.3284 -36.3284 -36.3282
   -36.3082 -36.3081 -36.3081 -36.3079 -36.2610 -36.2608 -36.2608 -36.2606
   -36.2522 -36.2522 -36.2522 -36.2521 -36.2360 -36.2360 -36.2360 -36.2359
   -36.1278 -36.1278 -36.1278 -36.1277 -36.1118 -36.1118 -36.1118 -36.1117
   -36.0766 -36.0764 -36.0764 -36.0762 -36.0740 -36.0739 -36.0739 -36.0738
   -36.0590 -36.0589 -36.0589 -36.0588 -36.0343 -36.0343 -36.0343 -36.0343
    12.0338  12.0340  12.0340  12.0341  13.4043  13.4044  13.4044  13.4045
    13.9265  13.9265  13.9265  13.9266  14.2539  14.2540  14.2540  14.2540
    14.2946  14.2947  14.2947  14.2947  14.4596  14.4596  14.4596  14.4596
    14.7297  14.7297  14.7297  14.7297  14.8937  14.8938  14.8938  14.8940
    14.9790  14.9791  14.9791  14.9792  15.0075  15.0076  15.0076  15.0076
    15.1584  15.1585  15.1585  15.1586  15.4438  15.4439  15.4439  15.4439
    16.6604  16.6605  16.6605  16.6605  16.7381  16.7383  16.7383  16.7384
    16.8074  16.8076  16.8076  16.8078  16.9231  16.9233  16.9233  16.9234
    16.9554  16.9555  16.9555  16.9555  17.0327  17.0329  17.0329  17.0331
    17.3027  17.3027  17.3027  17.3028  17.3846  17.3848  17.3848  17.3849
    17.8059  17.8059  17.8059  17.8059  18.7104  18.7105  18.7105  18.7106
    22.5235  22.5236

          k = 0.3823 0.3823 0.3823 ( 12637 PWs)   bands (ev):

   -70.1799 -70.1679 -70.1678 -70.1678 -70.1590 -70.1590 -70.1590 -70.1523
   -70.1283 -70.1249 -70.1249 -70.1249 -70.1192 -70.1192 -70.1192 -70.1105
   -36.3369 -36.3369 -36.3369 -36.3284 -36.3284 -36.3284 -36.3148 -36.3037
   -36.3037 -36.2968 -36.2968 -36.2968 -36.2921 -36.2921 -36.2634 -36.2634
   -36.2634 -36.2557 -36.2557 -36.2557 -36.2519 -36.2519 -36.2519 -36.2041
   -36.1480 -36.1108 -36.1108 -36.1108 -36.1008 -36.1008 -36.1008 -36.0914
   -36.0914 -36.0833 -36.0833 -36.0832 -36.0823 -36.0823 -36.0823 -36.0694
   -36.0498 -36.0498 -36.0498 -36.0462 -36.0462 -36.0433 -36.0432 -36.0432
    11.5724  12.4033  12.4033  12.4033  13.0536  13.0536  13.0537  13.7687
    13.9446  13.9446  14.0899  14.0899  14.0899  14.1775  14.1775  14.1775
    14.2106  14.2106  14.2106  14.4029  14.6680  14.6680  14.6854  14.6854
    14.7317  14.7317  14.7317  14.7822  14.7822  14.7822  14.8712  14.8712
    14.8712  14.9707  14.9707  14.9708  14.9989  14.9989  14.9989  15.0302
    15.0302  15.0302  15.1301  15.1301  15.2404  15.2404  15.2404  15.6549
    16.6216  16.6216  16.6216  16.7143  16.7143  16.7538  16.7538  16.7538
    16.8525  16.8525  16.8573  16.8573  16.8573  16.8805  16.8805  16.8806
    16.9385  16.9385  16.9385  17.0416  17.0594  17.0594  17.0594  17.1495
    17.1495  17.5417  17.5417  17.5554  17.5554  17.5554  17.6088  17.6088
    17.6088  17.6254  17.6254  17.6254  18.2866  18.2866  18.2866  19.1523
    22.8447  22.8447

          k = 0.3823 0.3823-0.4916 ( 12646 PWs)   bands (ev):

   -70.1745 -70.1742 -70.1639 -70.1639 -70.1636 -70.1636 -70.1560 -70.1557
   -70.1266 -70.1262 -70.1219 -70.1219 -70.1215 -70.1215 -70.1146 -70.1143
   -36.3299 -36.3299 -36.3299 -36.3298 -36.3182 -36.3180 -36.3167 -36.3164
   -36.3058 -36.3057 -36.2855 -36.2852 -36.2762 -36.2762 -36.2762 -36.2762
   -36.2731 -36.2729 -36.2635 -36.2635 -36.2634 -36.2634 -36.2298 -36.2298
   -36.1288 -36.1287 -36.0967 -36.0965 -36.0954 -36.0954 -36.0954 -36.0954
   -36.0887 -36.0887 -36.0886 -36.0885 -36.0746 -36.0745 -36.0689 -36.0686
   -36.0632 -36.0629 -36.0480 -36.0479 -36.0479 -36.0479 -36.0437 -36.0436
    11.9663  11.9665  12.7313  12.7313  12.7314  12.7315  13.4119  13.4120
    14.0535  14.0536  14.1108  14.1108  14.1583  14.1584  14.1584  14.1584
    14.3345  14.3346  14.4602  14.4603  14.4603  14.4603  14.6694  14.6696
    14.7125  14.7126  14.7229  14.7231  14.7923  14.7923  14.8679  14.8679
    14.8679  14.8680  14.9721  14.9722  14.9723  14.9723  15.0213  15.0213
    15.0214  15.0214  15.0493  15.0494  15.0544  15.0546  15.3986  15.3987
    16.6692  16.6692  16.6994  16.6994  16.6995  16.6995  16.7937  16.7939
    16.8011  16.8013  16.8561  16.8561  16.8579  16.8579  16.8580  16.8580
    17.0333  17.0333  17.0334  17.0334  17.0678  17.0680  17.2921  17.2923
    17.3139  17.3140  17.3311  17.3313  17.5696  17.5696  17.5697  17.5697
    17.6157  17.6159  17.9376  17.9376  17.9377  17.9377  18.7074  18.7076
    23.1653  23.1653

          k = 0.3823-0.4916-0.4916 ( 12632 PWs)   bands (ev):

   -70.1698 -70.1694 -70.1694 -70.1691 -70.1604 -70.1600 -70.1600 -70.1597
   -70.1242 -70.1238 -70.1238 -70.1234 -70.1180 -70.1176 -70.1176 -70.1173
   -36.3201 -36.3201 -36.3201 -36.3201 -36.3169 -36.3167 -36.3167 -36.3165
   -36.2910 -36.2909 -36.2909 -36.2908 -36.2817 -36.2815 -36.2815 -36.2813
   -36.2779 -36.2779 -36.2779 -36.2778 -36.2531 -36.2531 -36.2531 -36.2530
   -36.1112 -36.1112 -36.1112 -36.1111 -36.0872 -36.0872 -36.0872 -36.0871
   -36.0839 -36.0838 -36.0838 -36.0837 -36.0712 -36.0710 -36.0710 -36.0708
   -36.0618 -36.0617 -36.0617 -36.0615 -36.0482 -36.0481 -36.0481 -36.0481
    12.3361  12.3363  12.3363  12.3364  13.0755  13.0757  13.0757  13.0758
    14.1290  14.1290  14.1290  14.1290  14.2982  14.2982  14.2982  14.2982
    14.4051  14.4052  14.4052  14.4052  14.4431  14.4431  14.4431  14.4431
    14.7991  14.7991  14.7991  14.7991  14.8102  14.8103  14.8103  14.8104
    14.8304  14.8306  14.8306  14.8307  14.9442  14.9442  14.9442  14.9442
    14.9926  14.9928  14.9928  14.9929  15.1518  15.1519  15.1519  15.1520
    16.7134  16.7135  16.7135  16.7135  16.7578  16.7579  16.7579  16.7581
    16.7951  16.7953  16.7953  16.7955  16.8488  16.8489  16.8489  16.8490
    17.1216  17.1217  17.1217  17.1217  17.2086  17.2088  17.2088  17.2089
    17.3894  17.3895  17.3895  17.3897  17.5671  17.5671  17.5671  17.5671
    17.6150  17.6151  17.6151  17.6152  18.3110  18.3111  18.3111  18.3112
    23.6862  23.6862

          k =-0.4916-0.4916-0.4916 ( 12712 PWs)   bands (ev):

   -70.1657 -70.1653 -70.1653 -70.1653 -70.1650 -70.1650 -70.1650 -70.1647
   -70.1210 -70.1206 -70.1206 -70.1206 -70.1202 -70.1202 -70.1202 -70.1199
   -36.3011 -36.3011 -36.3011 -36.3010 -36.3010 -36.3010 -36.3009 -36.3009
   -36.3007 -36.3007 -36.3006 -36.3006 -36.3006 -36.3006 -36.3006 -36.3006
   -36.2723 -36.2722 -36.2722 -36.2722 -36.2722 -36.2722 -36.2722 -36.2721
   -36.0963 -36.0963 -36.0963 -36.0963 -36.0962 -36.0962 -36.0962 -36.0961
   -36.0665 -36.0665 -36.0665 -36.0664 -36.0664 -36.0664 -36.0663 -36.0663
   -36.0661 -36.0661 -36.0660 -36.0660 -36.0660 -36.0660 -36.0660 -36.0660
    12.6987  12.6988  12.6988  12.6988  12.6989  12.6989  12.6989  12.6991
    14.3500  14.3500  14.3500  14.3500  14.3500  14.3500  14.3501  14.3501
    14.3501  14.3501  14.3501  14.3501  14.3501  14.3501  14.3501  14.3501
    14.8719  14.8719  14.8719  14.8719  14.8719  14.8720  14.8720  14.8720
    14.8722  14.8722  14.8722  14.8722  14.8722  14.8722  14.8722  14.8722
    14.8966  14.8968  14.8968  14.8968  14.8969  14.8969  14.8969  14.8970
    16.7778  16.7778  16.7778  16.7778  16.7778  16.7780  16.7780  16.7780
    16.7780  16.7780  16.7780  16.7781  16.7781  16.7781  16.7781  16.7781
    17.3301  17.3301  17.3301  17.3302  17.3302  17.3302  17.3302  17.3302
    17.3304  17.3304  17.3305  17.3305  17.3305  17.3305  17.3305  17.3305
    17.9513  17.9514  17.9514  17.9514  17.9515  17.9515  17.9515  17.9516
    24.8097  24.8098

 ------ SPIN DOWN ----------


          k = 0.0546 0.0546 0.0546 ( 12704 PWs)   bands (ev):

   -67.6288 -67.5622 -67.5621 -67.5621 -67.5517 -67.5516 -67.5516 -67.5505
   -67.5505 -67.5505 -67.5502 -67.5502 -67.5502 -67.5459 -67.5454 -67.4933
   -33.9072 -33.9072 -33.9072 -33.9052 -33.9052 -33.9052 -33.7874 -33.7874
   -33.7826 -33.7269 -33.7240 -33.7240 -33.7240 -33.7080 -33.7080 -33.6983
   -33.6983 -33.6983 -33.6708 -33.6708 -33.6527 -33.6432 -33.6432 -33.6432
   -33.6343 -33.6343 -33.6343 -33.6257 -33.6257 -33.6257 -33.6233 -33.6233
   -33.6233 -33.6162 -33.6162 -33.6162 -33.6081 -33.6081 -33.6081 -33.4856
   -33.4844 -33.4844 -33.4844 -33.4821 -33.4821 -33.4821 -33.4810 -33.4810
     9.6285  13.4604  13.4604  13.4604  14.1030  14.1030  14.1030  14.2329
    14.2329  14.2329  14.2750  14.2750  14.2750  14.9508  14.9508  15.9030
    15.9723  15.9723  16.0581  16.0581  16.0668  16.1864  16.1864  16.1864
    16.1985  16.1985  16.1985  16.9159  16.9159  16.9159  17.2718  17.2718
    17.2718  17.4266  17.4266  17.4701  17.6708  17.6708  17.6708  17.8146
    17.8146  17.8146  17.8420  17.8420  17.8420  17.9429  17.9429  17.9430
    18.2367  18.2368  18.2368  18.2687  18.2687  18.2687  18.6752  18.6752
    18.6752  18.9049  18.9049  18.9049  19.3602  19.3602  19.3602  19.3832
    19.3832  19.3833  19.5517  19.5517  19.8070  19.8070  19.8070  19.8489
    19.8489  19.8498  19.8498  19.9310  19.9310  19.9311  19.9944  20.0710
    20.0710  20.3112  20.3112  20.3112  20.4091  20.4091  20.4091  20.4518
    20.4518  20.4519

          k = 0.0546 0.0546 0.1639 ( 12680 PWs)   bands (ev):

   -67.6264 -67.5741 -67.5616 -67.5616 -67.5529 -67.5528 -67.5511 -67.5501
   -67.5501 -67.5500 -67.5497 -67.5497 -67.5464 -67.5458 -67.5388 -67.4953
   -33.9012 -33.9012 -33.9004 -33.8982 -33.8945 -33.8945 -33.7902 -33.7828
   -33.7756 -33.7543 -33.7478 -33.7477 -33.7458 -33.7452 -33.7225 -33.7225
   -33.6965 -33.6762 -33.6699 -33.6681 -33.6607 -33.6431 -33.6431 -33.6348
   -33.6294 -33.6282 -33.6282 -33.6265 -33.6248 -33.6213 -33.6213 -33.6166
   -33.6166 -33.6128 -33.6128 -33.5900 -33.5875 -33.5875 -33.5826 -33.4967
   -33.4909 -33.4909 -33.4898 -33.4880 -33.4853 -33.4843 -33.4842 -33.4826
     9.7555  12.7647  13.5313  13.5313  14.1611  14.1611  14.1967  14.1967
    14.3260  14.3265  14.3266  14.3664  14.6269  14.9930  15.0139  15.8143
    15.8803  15.9320  15.9934  16.1633  16.1667  16.1742  16.1947  16.2330
    16.2330  16.2692  16.2693  16.5399  16.8179  16.8179  17.0946  17.0946
    17.4018  17.4202  17.4627  17.4803  17.4803  17.5270  17.5417  17.6409
    17.6410  17.8967  17.9185  17.9185  17.9715  17.9715  17.9932  18.0023
    18.0510  18.0510  18.0548  18.0954  18.0954  18.1499  18.4506  18.8809
    18.8809  19.1059  19.1059  19.1329  19.2863  19.2863  19.3500  19.3500
    19.3855  19.4055  19.4794  19.5803  19.8100  19.8117  19.8143  19.8227
    19.8453  19.8478  19.8658  19.8851  19.8851  19.9315  20.0648  20.1370
    20.1461  20.1461  20.3106  20.3106  20.3279  20.3279  20.4900  20.4900
    20.6056  20.6056

          k = 0.0546 0.0546 0.2731 ( 12650 PWs)   bands (ev):

   -67.6219 -67.5857 -67.5606 -67.5606 -67.5544 -67.5544 -67.5505 -67.5498
   -67.5498 -67.5495 -67.5493 -67.5493 -67.5469 -67.5462 -67.5283 -67.4988
   -33.8876 -33.8876 -33.8872 -33.8853 -33.8768 -33.8768 -33.7905 -33.7851
   -33.7806 -33.7791 -33.7791 -33.7732 -33.7644 -33.7627 -33.7555 -33.7555
   -33.6957 -33.6861 -33.6853 -33.6723 -33.6416 -33.6416 -33.6372 -33.6352
   -33.6336 -33.6311 -33.6311 -33.6196 -33.6195 -33.6168 -33.6167 -33.6003
   -33.5943 -33.5863 -33.5863 -33.5651 -33.5624 -33.5623 -33.5581 -33.5156
   -33.5021 -33.5021 -33.5014 -33.4999 -33.4939 -33.4910 -33.4910 -33.4898
    10.0066  12.0726  13.6591  13.6591  14.1525  14.1525  14.2579  14.2579
    14.3805  14.3805  14.5043  14.5416  14.9813  15.0666  15.1387  15.6401
    15.6548  15.9311  15.9524  16.1207  16.1294  16.1794  16.3363  16.3363
    16.3559  16.3858  16.3960  16.3960  16.7198  16.7198  16.9404  16.9404
    17.2186  17.2187  17.3621  17.3621  17.3829  17.4100  17.4509  17.4532
    17.5058  17.5058  17.5609  17.5610  17.6118  17.6305  17.6396  18.2094
    18.2381  18.3087  18.3256  18.3257  18.3432  18.3432  18.4097  19.1596
    19.1596  19.1659  19.1659  19.2567  19.2567  19.3369  19.3520  19.3757
    19.3757  19.4333  19.4498  19.5652  19.6340  19.6847  19.7469  19.7514
    19.8153  19.8358  19.8401  19.8435  19.9877  19.9877  19.9983  20.0089
    20.1847  20.1847  20.2291  20.2291  20.3066  20.3066  20.6032  20.6032
    20.6491  20.6492

          k = 0.0546 0.0546 0.3823 ( 12631 PWs)   bands (ev):

   -67.6152 -67.5967 -67.5593 -67.5593 -67.5561 -67.5560 -67.5497 -67.5495
   -67.5495 -67.5492 -67.5492 -67.5486 -67.5477 -67.5470 -67.5187 -67.5039
   -33.8679 -33.8673 -33.8673 -33.8667 -33.8525 -33.8525 -33.8154 -33.8137
   -33.8113 -33.8113 -33.7901 -33.7901 -33.7883 -33.7748 -33.7591 -33.7497
   -33.7196 -33.7098 -33.6731 -33.6642 -33.6478 -33.6430 -33.6395 -33.6395
   -33.6341 -33.6341 -33.6183 -33.6183 -33.6171 -33.6171 -33.6015 -33.5687
   -33.5655 -33.5605 -33.5605 -33.5425 -33.5400 -33.5387 -33.5387 -33.5361
   -33.5179 -33.5178 -33.5177 -33.5177 -33.5068 -33.5025 -33.5025 -33.5016
    10.3758  11.4259  13.8162  13.8163  14.0806  14.0807  14.3561  14.3561
    14.4184  14.4184  14.7535  14.7854  15.1464  15.1582  15.3229  15.3637
    15.3739  15.8501  15.9601  15.9686  16.0658  16.0725  16.4915  16.4915
    16.5734  16.5735  16.6030  16.6315  16.7046  16.7046  16.8597  16.8597
    16.9752  16.9752  17.0798  17.0799  17.1249  17.1249  17.2032  17.2032
    17.2515  17.2709  17.3722  17.3999  17.4016  17.4190  17.7268  18.0434
    18.5503  18.5708  18.5708  18.6012  18.6310  18.6310  18.7109  19.0026
[...]
   -33.5123 -33.5122 -33.5122 -33.4989 -33.4989 -33.4989 -33.4948 -33.4948
    10.7327  12.6476  12.6476  12.6476  13.9068  13.9068  13.9069  15.0236
    15.0236  15.0236  15.2715  15.2830  15.2830  15.2830  15.3906  15.3906
    15.6221  16.0463  16.0463  16.1085  16.1085  16.1085  16.2521  16.2521
    16.3066  16.3066  16.3066  16.4808  16.4808  16.4808  16.8513  16.8513
    16.8513  16.8618  16.8618  16.8619  16.8748  16.8748  16.8748  16.9210
    16.9210  16.9210  17.1310  17.1310  17.3406  17.3406  17.3406  18.2167
    18.3155  18.7302  18.7302  18.7302  18.8266  18.8266  18.8266  19.0731
    19.0731  19.0731  19.1306  19.1306  19.1307  19.3706  19.3706  19.3706
    19.4480  19.4480  19.6428  19.6428  19.7158  19.7158  19.7417  19.7417
    19.7417  19.7527  19.7528  19.7528  19.7596  19.7596  19.9083  19.9083
    19.9084  19.9571  19.9571  19.9571  20.3641  20.3641  20.3641  22.2291
    22.3380  22.3380

          k = 0.2731 0.2731 0.3823 ( 12636 PWs)   bands (ev):

   -67.6039 -67.5883 -67.5760 -67.5760 -67.5677 -67.5677 -67.5611 -67.5562
   -67.5421 -67.5409 -67.5375 -67.5375 -67.5328 -67.5327 -67.5236 -67.5116
   -33.8574 -33.8574 -33.8487 -33.8300 -33.8300 -33.8268 -33.8206 -33.8197
   -33.8063 -33.8060 -33.8060 -33.7973 -33.7781 -33.7524 -33.7523 -33.7458
   -33.7361 -33.7119 -33.7119 -33.7013 -33.6953 -33.6950 -33.6950 -33.6669
   -33.6303 -33.6219 -33.6027 -33.5997 -33.5900 -33.5900 -33.5795 -33.5795
   -33.5750 -33.5750 -33.5644 -33.5473 -33.5446 -33.5446 -33.5351 -33.5294
   -33.5163 -33.5087 -33.5070 -33.5070 -33.5025 -33.4997 -33.4997 -33.4938
    11.0810  12.0579  12.9164  12.9164  13.5802  13.5803  14.1960  14.9272
    15.1956  15.1956  15.2329  15.3605  15.3606  15.4889  15.4910  15.5278
    15.6004  15.8983  16.0985  16.1359  16.1359  16.1618  16.1767  16.2391
    16.3356  16.3922  16.4015  16.4015  16.5135  16.5136  16.6082  16.6946
    16.6946  16.7091  16.7102  16.7102  16.7776  16.7776  16.8136  16.8136
    16.9100  16.9406  17.0226  17.0760  17.0972  17.0972  17.4624  17.9687
    18.4280  18.8247  18.8247  18.8939  18.9374  18.9779  18.9779  18.9970
    18.9970  19.0008  19.2234  19.3031  19.3031  19.3257  19.4123  19.4123
    19.4437  19.4806  19.5207  19.5437  19.6280  19.6627  19.7253  19.7253
    19.7291  19.7409  19.7724  19.8053  19.8053  19.8108  19.8257  19.8470
    19.8806  19.8806  19.9379  19.9379  20.0844  20.0844  20.7975  21.7388
    22.6235  22.6235

          k = 0.2731 0.2731-0.4916 ( 12608 PWs)   bands (ev):

   -67.5967 -67.5966 -67.5722 -67.5721 -67.5721 -67.5721 -67.5588 -67.5587
   -67.5414 -67.5413 -67.5349 -67.5348 -67.5348 -67.5348 -67.5170 -67.5169
   -33.8440 -33.8440 -33.8439 -33.8439 -33.8253 -33.8252 -33.8236 -33.8235
   -33.8153 -33.8153 -33.7795 -33.7795 -33.7794 -33.7794 -33.7588 -33.7587
   -33.7237 -33.7236 -33.7062 -33.7062 -33.7061 -33.7061 -33.6624 -33.6623
   -33.6441 -33.6441 -33.6025 -33.6025 -33.5813 -33.5813 -33.5812 -33.5812
   -33.5609 -33.5609 -33.5608 -33.5608 -33.5382 -33.5380 -33.5307 -33.5306
   -33.5261 -33.5259 -33.5025 -33.5025 -33.5024 -33.5024 -33.4960 -33.4960
    11.5280  11.5283  13.2381  13.2381  13.2383  13.2383  14.5479  14.5482
    15.3258  15.3258  15.3259  15.3259  15.4512  15.4514  15.5443  15.5444
    15.7003  15.7005  16.1661  16.1663  16.2136  16.2138  16.2898  16.2898
    16.2899  16.2899  16.3609  16.3610  16.5333  16.5334  16.5334  16.5335
    16.5497  16.5498  16.7599  16.7600  16.7601  16.7601  16.8761  16.8761
    16.8761  16.8761  16.9458  16.9458  17.0118  17.0120  17.6727  17.6727
    18.6560  18.6560  18.8979  18.8980  18.8980  18.8980  19.1668  19.1668
    19.1668  19.1668  19.1730  19.1731  19.1957  19.1958  19.3776  19.3777
    19.5329  19.5330  19.6539  19.6539  19.6552  19.6552  19.6552  19.6553
    19.7148  19.7148  19.7372  19.7373  19.8641  19.8642  19.8794  19.8794
    19.8794  19.8794  19.8935  19.8935  19.8936  19.8936  21.2621  21.2622
    22.8516  22.8516

          k = 0.2731 0.3823 0.3823 ( 12623 PWs)   bands (ev):

   -67.5987 -67.5844 -67.5844 -67.5739 -67.5731 -67.5655 -67.5654 -67.5596
   -67.5403 -67.5381 -67.5381 -67.5341 -67.5328 -67.5259 -67.5259 -67.5152
   -33.8499 -33.8406 -33.8406 -33.8291 -33.8277 -33.8277 -33.8171 -33.8106
   -33.8090 -33.8090 -33.8009 -33.7801 -33.7752 -33.7698 -33.7526 -33.7369
   -33.7369 -33.7233 -33.7223 -33.7223 -33.7168 -33.7168 -33.7137 -33.6595
   -33.6440 -33.6000 -33.6000 -33.5897 -33.5897 -33.5890 -33.5765 -33.5735
   -33.5634 -33.5608 -33.5539 -33.5514 -33.5514 -33.5383 -33.5382 -33.5326
   -33.5156 -33.5149 -33.5149 -33.5098 -33.5003 -33.5003 -33.4981 -33.4960
    11.4189  12.3579  12.3579  13.1485  13.1917  13.8697  13.8697  14.5922
    15.3969  15.4009  15.4009  15.5031  15.5780  15.5780  15.5981  15.6431
    15.6758  15.9687  15.9687  16.0905  16.1687  16.1716  16.1996  16.3269
    16.3269  16.3440  16.3440  16.3802  16.3887  16.4791  16.5482  16.5482
    16.5810  16.5930  16.5930  16.6590  16.7450  16.7463  16.7463  16.7548
    16.8465  16.8465  16.8852  16.9133  16.9874  17.1705  17.1706  17.6237
    18.6642  18.9463  18.9719  18.9719  18.9761  19.1292  19.1328  19.1328
    19.1547  19.1547  19.1773  19.1773  19.3229  19.3512  19.3854  19.3855
    19.3876  19.4569  19.5270  19.5774  19.6291  19.6478  19.6784  19.7082
    19.7238  19.7238  19.7271  19.7271  19.7493  19.7682  19.7820  19.7820
    19.8218  19.8461  19.8461  19.9323  19.9384  20.4654  20.4654  21.3002
    22.9854  23.4648

          k = 0.2731 0.3823-0.4916 ( 12634 PWs)   bands (ev):

   -67.5921 -67.5920 -67.5796 -67.5795 -67.5695 -67.5694 -67.5628 -67.5626
   -67.5391 -67.5390 -67.5359 -67.5358 -67.5290 -67.5289 -67.5201 -67.5200
   -33.8392 -33.8392 -33.8329 -33.8328 -33.8206 -33.8206 -33.8203 -33.8202
   -33.8130 -33.8129 -33.7893 -33.7892 -33.7590 -33.7588 -33.7514 -33.7513
   -33.7378 -33.7378 -33.7286 -33.7285 -33.7251 -33.7250 -33.6908 -33.6907
   -33.6217 -33.6217 -33.5887 -33.5887 -33.5810 -33.5810 -33.5795 -33.5794
   -33.5606 -33.5605 -33.5496 -33.5495 -33.5341 -33.5341 -33.5340 -33.5340
   -33.5312 -33.5311 -33.5127 -33.5126 -33.4988 -33.4987 -33.4970 -33.4969
    11.8504  11.8506  12.7300  12.7302  13.5212  13.5214  14.2199  14.2201
    15.5211  15.5212  15.5374  15.5375  15.6005  15.6007  15.6442  15.6443
    15.8011  15.8012  16.1555  16.1557  16.1729  16.1731  16.1974  16.1974
    16.2466  16.2468  16.3442  16.3443  16.4459  16.4461  16.4763  16.4764
    16.5684  16.5686  16.5947  16.5948  16.7026  16.7027  16.7820  16.7821
    16.8136  16.8136  16.9129  16.9130  16.9257  16.9258  17.3434  17.3434
    18.9158  18.9158  18.9528  18.9528  19.0800  19.0800  19.1729  19.1730
    19.2591  19.2592  19.2659  19.2660  19.2686  19.2687  19.3226  19.3227
    19.4654  19.4654  19.4826  19.4827  19.6090  19.6091  19.6756  19.6756
    19.6864  19.6865  19.7157  19.7158  19.7218  19.7219  19.7502  19.7502
    19.8519  19.8520  19.9005  19.9005  20.1573  20.1573  20.8768  20.8768
    23.3117  23.3118

          k = 0.2731-0.4916-0.4916 ( 12664 PWs)   bands (ev):

   -67.5864 -67.5863 -67.5863 -67.5862 -67.5665 -67.5663 -67.5663 -67.5662
   -67.5374 -67.5372 -67.5372 -67.5372 -67.5242 -67.5240 -67.5240 -67.5240
   -33.8304 -33.8304 -33.8304 -33.8303 -33.8231 -33.8230 -33.8230 -33.8229
   -33.8010 -33.8010 -33.8010 -33.8009 -33.7473 -33.7472 -33.7472 -33.7471
   -33.7381 -33.7381 -33.7381 -33.7380 -33.7212 -33.7211 -33.7211 -33.7210
   -33.6000 -33.5999 -33.5999 -33.5998 -33.5828 -33.5827 -33.5827 -33.5827
   -33.5436 -33.5434 -33.5434 -33.5433 -33.5407 -33.5406 -33.5406 -33.5405
   -33.5245 -33.5244 -33.5244 -33.5243 -33.4972 -33.4972 -33.4972 -33.4971
    12.2580  12.2582  12.2582  12.2584  13.8612  13.8614  13.8614  13.8616
    15.6419  15.6420  15.6420  15.6421  15.6586  15.6587  15.6587  15.6588
    15.9785  15.9787  15.9787  15.9788  16.1102  16.1103  16.1103  16.1104
    16.3491  16.3492  16.3492  16.3492  16.4157  16.4158  16.4158  16.4159
    16.5580  16.5580  16.5580  16.5580  16.6876  16.6876  16.6876  16.6877
    16.8373  16.8375  16.8375  16.8376  17.0813  17.0813  17.0813  17.0813
    19.0584  19.0585  19.0585  19.0586  19.1901  19.1901  19.1901  19.1901
    19.2276  19.2276  19.2276  19.2277  19.3087  19.3088  19.3088  19.3089
    19.3819  19.3820  19.3820  19.3821  19.6053  19.6054  19.6054  19.6054
    19.6793  19.6793  19.6793  19.6793  19.7206  19.7207  19.7207  19.7208
    19.8862  19.8862  19.8862  19.8863  20.5076  20.5076  20.5076  20.5077
    23.7681  23.7681

          k = 0.3823 0.3823 0.3823 ( 12637 PWs)   bands (ev):

   -67.5938 -67.5808 -67.5807 -67.5807 -67.5712 -67.5711 -67.5711 -67.5638
   -67.5377 -67.5341 -67.5340 -67.5340 -67.5279 -67.5279 -67.5279 -67.5185
   -33.8324 -33.8324 -33.8323 -33.8227 -33.8227 -33.8227 -33.8083 -33.7948
   -33.7948 -33.7885 -33.7885 -33.7885 -33.7827 -33.7827 -33.7502 -33.7502
   -33.7502 -33.7429 -33.7429 -33.7429 -33.7376 -33.7376 -33.7376 -33.6857
   -33.6222 -33.5812 -33.5812 -33.5811 -33.5704 -33.5704 -33.5704 -33.5604
   -33.5604 -33.5510 -33.5510 -33.5510 -33.5499 -33.5499 -33.5498 -33.5356
   -33.5144 -33.5144 -33.5144 -33.5102 -33.5102 -33.5070 -33.5070 -33.5070
    11.7491  12.6584  12.6584  12.6584  13.4460  13.4460  13.4460  14.2084
    15.6079  15.6079  15.6079  15.7350  15.7350  15.7496  15.7496  15.7496
    15.8494  15.9680  15.9680  15.9680  16.2267  16.2267  16.2407  16.2407
    16.3440  16.3440  16.3440  16.4043  16.4043  16.4043  16.4831  16.4831
    16.4831  16.5451  16.5451  16.5451  16.6661  16.6661  16.6661  16.6698
    16.6698  16.6699  16.8417  16.8417  16.8755  16.8755  16.8755  17.2688
    18.9212  19.1226  19.1226  19.1226  19.1574  19.1574  19.1574  19.2465
    19.2465  19.2465  19.4076  19.4076  19.4077  19.4526  19.4526  19.4653
    19.4653  19.4654  19.5065  19.5065  19.5701  19.5701  19.6140  19.6140
    19.6647  19.6647  19.6647  19.7015  19.7015  19.7015  19.7376  19.7376
    19.7376  19.7511  19.7511  19.7512  20.1221  20.1221  20.1221  20.8914
    24.0330  24.0330

          k = 0.3823 0.3823-0.4916 ( 12646 PWs)   bands (ev):

   -67.5879 -67.5878 -67.5764 -67.5763 -67.5763 -67.5763 -67.5678 -67.5677
   -67.5357 -67.5356 -67.5307 -67.5306 -67.5305 -67.5305 -67.5228 -67.5227
   -33.8245 -33.8245 -33.8244 -33.8244 -33.8110 -33.8110 -33.8099 -33.8097
   -33.7984 -33.7983 -33.7745 -33.7744 -33.7657 -33.7657 -33.7656 -33.7656
   -33.7612 -33.7612 -33.7504 -33.7504 -33.7503 -33.7503 -33.7143 -33.7142
   -33.6010 -33.6009 -33.5660 -33.5659 -33.5643 -33.5642 -33.5642 -33.5642
   -33.5571 -33.5571 -33.5570 -33.5570 -33.5413 -33.5412 -33.5354 -33.5353
   -33.5288 -33.5286 -33.5123 -33.5123 -33.5123 -33.5122 -33.5075 -33.5075
    12.1687  12.1689  13.0303  13.0303  13.0305  13.0305  13.8104  13.8106
    15.7530  15.7530  15.7531  15.7531  15.8203  15.8204  15.8228  15.8230
    15.8462  15.8463  16.1196  16.1196  16.1198  16.1198  16.2526  16.2527
    16.2878  16.2880  16.3212  16.3214  16.3639  16.3640  16.5169  16.5169
    16.5170  16.5170  16.5930  16.5931  16.5932  16.5932  16.6350  16.6351
    16.6351  16.6351  16.7293  16.7294  16.7583  16.7585  16.9948  16.9948
    19.1681  19.1681  19.1681  19.1681  19.1945  19.1945  19.3268  19.3269
    19.3484  19.3485  19.3530  19.3530  19.3531  19.3531  19.3571  19.3572
    19.5088  19.5088  19.5684  19.5684  19.6037  19.6037  19.6434  19.6435
    19.6435  19.6435  19.6436  19.6436  19.6841  19.6842  19.7178  19.7178
    19.7178  19.7178  19.8095  19.8096  19.8096  19.8096  20.5009  20.5010
    24.3163  24.3163

          k = 0.3823-0.4916-0.4916 ( 12632 PWs)   bands (ev):

   -67.5827 -67.5825 -67.5825 -67.5824 -67.5724 -67.5722 -67.5722 -67.5722
   -67.5329 -67.5328 -67.5328 -67.5327 -67.5263 -67.5262 -67.5262 -67.5261
   -33.8134 -33.8134 -33.8134 -33.8133 -33.8100 -33.8099 -33.8099 -33.8098
   -33.7820 -33.7820 -33.7820 -33.7818 -33.7705 -33.7704 -33.7704 -33.7702
   -33.7666 -33.7665 -33.7665 -33.7665 -33.7401 -33.7400 -33.7400 -33.7399
   -33.5816 -33.5816 -33.5816 -33.5815 -33.5556 -33.5556 -33.5556 -33.5555
   -33.5515 -33.5514 -33.5514 -33.5513 -33.5377 -33.5375 -33.5375 -33.5374
   -33.5276 -33.5275 -33.5275 -33.5274 -33.5125 -33.5125 -33.5125 -33.5124
    12.5694  12.5696  12.5696  12.5698  13.4004  13.4006  13.4006  13.4008
    15.8455  15.8456  15.8456  15.8457  15.9521  15.9523  15.9523  15.9524
    16.0105  16.0107  16.0107  16.0108  16.0788  16.0789  16.0789  16.0790
    16.3986  16.3986  16.3986  16.3986  16.4324  16.4324  16.4324  16.4325
    16.4350  16.4351  16.4351  16.4352  16.6101  16.6101  16.6101  16.6101
    16.6631  16.6633  16.6633  16.6634  16.7237  16.7237  16.7237  16.7237
    19.2891  19.2892  19.2892  19.2893  19.3200  19.3200  19.3200  19.3201
    19.4046  19.4047  19.4047  19.4047  19.4535  19.4536  19.4536  19.4536
    19.4914  19.4914  19.4914  19.4915  19.5676  19.5677  19.5677  19.5677
    19.5961  19.5961  19.5961  19.5962  19.6285  19.6286  19.6286  19.6287
    19.6657  19.6657  19.6657  19.6658  20.1463  20.1464  20.1464  20.1464
    24.8099  24.8100

          k =-0.4916-0.4916-0.4916 ( 12712 PWs)   bands (ev):

   -67.5781 -67.5779 -67.5779 -67.5779 -67.5778 -67.5778 -67.5778 -67.5778
   -67.5294 -67.5292 -67.5292 -67.5292 -67.5291 -67.5291 -67.5291 -67.5290
   -33.7922 -33.7922 -33.7922 -33.7921 -33.7921 -33.7920 -33.7920 -33.7920
   -33.7920 -33.7920 -33.7920 -33.7919 -33.7919 -33.7919 -33.7919 -33.7919
   -33.7612 -33.7612 -33.7612 -33.7612 -33.7611 -33.7611 -33.7611 -33.7610
   -33.5652 -33.5652 -33.5652 -33.5652 -33.5651 -33.5651 -33.5651 -33.5650
   -33.5326 -33.5326 -33.5326 -33.5326 -33.5326 -33.5325 -33.5325 -33.5325
   -33.5324 -33.5324 -33.5324 -33.5324 -33.5324 -33.5324 -33.5323 -33.5323
    12.9585  12.9587  12.9587  12.9587  12.9589  12.9589  12.9589  12.9591
    16.0450  16.0450  16.0451  16.0451  16.0451  16.0451  16.0451  16.0451
    16.0452  16.0452  16.0452  16.0453  16.0453  16.0453  16.0454  16.0454
    16.4090  16.4090  16.4090  16.4090  16.4090  16.4090  16.4090  16.4090
    16.5214  16.5214  16.5214  16.5216  16.5216  16.5216  16.5216  16.5216
    16.5217  16.5217  16.5218  16.5218  16.5218  16.5219  16.5219  16.5219
    19.4690  19.4690  19.4690  19.4691  19.4691  19.4691  19.4691  19.4691
    19.4691  19.4691  19.4692  19.4692  19.4692  19.4692  19.4692  19.4692
    19.5162  19.5162  19.5163  19.5163  19.5163  19.5164  19.5164  19.5164
    19.5164  19.5164  19.5164  19.5164  19.5164  19.5164  19.5165  19.5165
    19.8118  19.8118  19.8118  19.8118  19.8119  19.8119  19.8119  19.8119
    25.8514  25.8514

     the Fermi energy is    17.7889 ev

!    total energy              =   -5268.18547725 Ry
     Harris-Foulkes estimate   =   -5268.18547568 Ry
     estimated scf accuracy    <       0.00000094 Ry

     total all-electron energy =    -40728.930006 Ry

     The total energy is the sum of the following terms:

     one-electron contribution =   -1782.73315755 Ry
     hartree contribution      =    1049.63331378 Ry
     xc contribution           =    -443.77411339 Ry
     ewald contribution        =   -2766.79914033 Ry
     one-center paw contrib.   =   -1324.65576072 Ry
     smearing contrib. (-TS)   =       0.14338096 Ry

     total magnetization       =    34.12 Bohr mag/cell
     absolute magnetization    =    36.14 Bohr mag/cell

     convergence has been achieved in  18 iterations

     negative rho (up, down):  0.000E+00 2.888E-03

     Forces acting on atoms (cartesian axes, Ry/au):

     atom    1 type  1   force =     0.00000000    0.00000000    0.00000000
     atom    2 type  2   force =     0.00006457    0.00006457    0.00006457
     atom    3 type  1   force =     0.00000000    0.00000000    0.00000000
     atom    4 type  2   force =     0.00006457    0.00006457   -0.00006457
     atom    5 type  1   force =     0.00000000    0.00000000   -0.00000000
     atom    6 type  2   force =     0.00006457   -0.00006457    0.00006457
     atom    7 type  1   force =     0.00000000    0.00000000    0.00000000
     atom    8 type  2   force =     0.00006457   -0.00006457   -0.00006457
     atom    9 type  1   force =     0.00000000   -0.00000000   -0.00000000
     atom   10 type  2   force =    -0.00006457    0.00006457    0.00006457
     atom   11 type  1   force =     0.00000000    0.00000000    0.00000000
     atom   12 type  2   force =    -0.00006457    0.00006457   -0.00006457
     atom   13 type  1   force =     0.00000000    0.00000000    0.00000000
     atom   14 type  2   force =    -0.00006457   -0.00006457    0.00006457
     atom   15 type  1   force =     0.00000000    0.00000000    0.00000000
     atom   16 type  2   force =    -0.00006457   -0.00006457   -0.00006457

     Total force =     0.000316     Total SCF correction =     0.001552
     SCF correction compared to forces is large: reduce conv_thr to get better values


     Computing stress (Cartesian axis) and pressure


     negative rho (up, down):  0.000E+00 2.888E-03
          total   stress  (Ry/bohr**3)                   (kbar)     P= -106.61
  -0.00072470   0.00000000   0.00000000       -106.61      0.00      0.00
   0.00000000  -0.00072470   0.00000000          0.00   -106.61      0.00
   0.00000000   0.00000000  -0.00072470          0.00      0.00   -106.61


     Writing output data file glTxUoaQfxXtJrjG.save/
 
     init_run     :      7.45s CPU      7.75s WALL (       1 calls)
     electrons    :    459.90s CPU    470.54s WALL (       1 calls)
     forces       :      2.42s CPU      2.58s WALL (       1 calls)
     stress       :     10.34s CPU     10.41s WALL (       1 calls)

     Called by init_run:
     wfcinit      :      6.81s CPU      7.05s WALL (       1 calls)
     potinit      :      0.28s CPU      0.31s WALL (       1 calls)
     hinit0       :      0.13s CPU      0.14s WALL (       1 calls)

     Called by electrons:
     c_bands      :    408.59s CPU    417.00s WALL (      19 calls)
     sum_band     :     45.25s CPU     47.00s WALL (      19 calls)
     v_of_rho     :      0.45s CPU      0.49s WALL (      19 calls)
     newd         :      1.00s CPU      1.23s WALL (      19 calls)
     PAW_pot      :      4.70s CPU      4.89s WALL (      19 calls)
     mix_rho      :      0.13s CPU      0.14s WALL (      19 calls)

     Called by c_bands:
     init_us_2    :      3.08s CPU      3.12s WALL (    2870 calls)
     cegterg      :    392.19s CPU    400.48s WALL (    1330 calls)

     Called by sum_band:
     sum_band:bec :      0.48s CPU      0.49s WALL (    1330 calls)
     addusdens    :      2.10s CPU      2.32s WALL (      19 calls)

     Called by *egterg:
     h_psi        :    177.11s CPU    182.46s WALL (    4450 calls)
     s_psi        :     12.97s CPU     13.03s WALL (    4450 calls)
     g_psi        :      0.63s CPU      0.64s WALL (    3050 calls)
     cdiaghg      :    158.96s CPU    159.38s WALL (    4310 calls)

     Called by h_psi:
     h_psi:pot    :    175.91s CPU    181.24s WALL (    4450 calls)
     h_psi:calbec :     14.65s CPU     16.18s WALL (    4450 calls)
     vloc_psi     :    147.69s CPU    151.42s WALL (    4450 calls)
     add_vuspsi   :     13.54s CPU     13.61s WALL (    4450 calls)

     General routines
     calbec       :     22.67s CPU     25.02s WALL (    6130 calls)
     fft          :      0.36s CPU      0.40s WALL (     517 calls)
     ffts         :      0.04s CPU      0.04s WALL (      76 calls)
     fftw         :    169.13s CPU    173.36s WALL ( 1132470 calls)
     interpolate  :      0.05s CPU      0.05s WALL (      38 calls)
 
     Parallel routines
     fft_scatt_xy :     13.94s CPU     14.30s WALL ( 1133063 calls)
     fft_scatt_yz :     97.49s CPU     99.99s WALL ( 1133063 calls)
 
     PWSCF        :  8m 3.62s CPU     8m23.36s WALL

 
   This run was terminated on:   1:39: 8  14Jun2020            

=------------------------------------------------------------------------------=
   JOB DONE.
=------------------------------------------------------------------------------=
