--------------------------------------------------------------------------
WARNING: No preset parameters were found for the device that Open MPI
detected:

  Local host:            bear-pg0206u36b
  Device name:           mlx5_0
  Device vendor ID:      0x02c9
  Device vendor part ID: 4123

Default device parameters will be used, which may result in lower
performance.  You can edit any of the files specified by the
btl_openib_device_param_files MCA parameter to set values for your
device.

NOTE: You can turn off this warning by setting the MCA parameter
      btl_openib_warn_no_device_params_found to 0.
--------------------------------------------------------------------------
--------------------------------------------------------------------------
WARNING: There was an error initializing an OpenFabrics device.

  Local host:   bear-pg0206u36b
  Local device: mlx5_0
--------------------------------------------------------------------------

     Program PWSCF v.6.3 starts on 13Jun2020 at 22:23:26 

     This program is part of the open-source Quantum ESPRESSO suite
     for quantum simulation of materials; please cite
         "P. Giannozzi et al., J. Phys.:Condens. Matter 21 395502 (2009);
         "P. Giannozzi et al., J. Phys.:Condens. Matter 29 465901 (2017);
          URL http://www.quantum-espresso.org", 
     in publications or presentations arising from this work. More details at
     http://www.quantum-espresso.org/quote

     Parallel version (MPI & OpenMP), running on      20 processor cores
     Number of MPI processes:                20
     Threads/MPI process:                     1

     MPI processes distributed on     1 nodes
     R & G space division:  proc/nbgrp/npool/nimage =      20
     Reading input from wd/eos/eos_004.in
Warning: card &IONS ignored
Warning: card ION_DYNAMICS = 'BFGS', ignored
Warning: card / ignored
Warning: card &CELL ignored
Warning: card CELL_DYNAMICS = 'BFGS', ignored
Warning: card CELL_FACTOR = 2.0, ignored
Warning: card PRESS = 0.0, ignored
Warning: card / ignored

     Current dimensions of program PWSCF are:
     Max number of different atomic species (ntypx) = 10
     Max number of k-points (npk) =  40000
     Max angular momentum in pseudopotentials (lmaxx) =  3
               file Fe.pbe-spn-kjpaw_psl.1.0.0.UPF: wavefunction(s)  3P 3D renormalized
               file Fe.pbe-spn-kjpaw_psl.1.0.0.UPF: wavefunction(s)  3P 3D renormalized

     Subspace diagonalization in iterative solution of the eigenvalue problem:
     a serial algorithm will be used

     Found symmetry operation: I + (  0.0000  0.0000 -0.5000)
     This is a supercell, fractional translations are disabled
 
     Parallelization info
     --------------------
     sticks:   dense  smooth     PW     G-vecs:    dense   smooth      PW
     Min         188     123     34                 8656     4629     696
     Max         189     125     35                 8659     4630     699
     Sum        3761    2477    697               173157    92589   13949
 


     bravais-lattice index     =            0
     lattice parameter (alat)  =      10.5935  a.u.
     unit-cell volume          =    1148.5370 (a.u.)^3
     number of atoms/cell      =           16
     number of atomic types    =            2
     number of electrons       =       256.00
     number of Kohn-Sham states=          154
     kinetic-energy cutoff     =      71.0000  Ry
     charge density cutoff     =     430.0000  Ry
     convergence threshold     =      1.0E-06
     mixing beta               =       0.1000
     number of iterations used =           10  plain     mixing
     Exchange-correlation      = SLA PW PBX PBC ( 1  4  3  4 0 0)

     celldm(1)=  10.593520  celldm(2)=   0.000000  celldm(3)=   0.000000
     celldm(4)=   0.000000  celldm(5)=   0.000000  celldm(6)=   0.000000

     crystal axes: (cart. coord. in units of alat)
               a(1) = (   0.988571   0.000000   0.000000 )  
               a(2) = (   0.000000   0.988571   0.000000 )  
               a(3) = (   0.000000   0.000000   0.988571 )  

     reciprocal axes: (cart. coord. in units 2 pi/alat)
               b(1) = (  1.011561  0.000000  0.000000 )  
               b(2) = (  0.000000  1.011561  0.000000 )  
               b(3) = (  0.000000  0.000000  1.011561 )  


     PseudoPot. # 1 for Fe read from file:
     /rds/homes/b/bxp912/pp/Fe.pbe-spn-kjpaw_psl.1.0.0.UPF
     MD5 check sum: 42f43b795421b414b0dc916aa790dbcb
     Pseudo is Projector augmented-wave + core cor, Zval = 16.0
     Generated using "atomic" code by A. Dal Corso v.6.3
     Shape of augmentation charge: PSQ
     Using radial grid of 1191 points,  6 beta functions with: 
                l(1) =   0
                l(2) =   0
                l(3) =   1
                l(4) =   1
                l(5) =   2
                l(6) =   2
     Q(r) pseudized with 0 coefficients 


     PseudoPot. # 2 for Fe read from file:
     /rds/homes/b/bxp912/pp/Fe.pbe-spn-kjpaw_psl.1.0.0.UPF
     MD5 check sum: 42f43b795421b414b0dc916aa790dbcb
     Pseudo is Projector augmented-wave + core cor, Zval = 16.0
     Generated using "atomic" code by A. Dal Corso v.6.3
     Shape of augmentation charge: PSQ
     Using radial grid of 1191 points,  6 beta functions with: 
                l(1) =   0
                l(2) =   0
                l(3) =   1
                l(4) =   1
                l(5) =   2
                l(6) =   2
     Q(r) pseudized with 0 coefficients 


     atomic species   valence    mass     pseudopotential
        Fe1           16.00    55.84500     Fe( 1.00)
        Fe2           16.00    55.84500     Fe( 1.00)

     Starting magnetic structure 
     atomic species   magnetization
        Fe1          0.100
        Fe2          0.100

     48 Sym. Ops., with inversion, found



   Cartesian axes

     site n.     atom                  positions (alat units)
         1           Fe1 tau(   1) = (   0.0000000   0.0000000   0.0000000  )
         2           Fe2 tau(   2) = (   0.2471433   0.2471433   0.2471433  )
         3           Fe1 tau(   3) = (   0.0000000   0.0000000   0.4942857  )
         4           Fe2 tau(   4) = (   0.2471433   0.2471433   0.7414281  )
         5           Fe1 tau(   5) = (   0.0000000   0.4942857   0.0000000  )
         6           Fe2 tau(   6) = (   0.2471433   0.7414281   0.2471433  )
         7           Fe1 tau(   7) = (   0.0000000   0.4942857   0.4942857  )
         8           Fe2 tau(   8) = (   0.2471433   0.7414281   0.7414281  )
         9           Fe1 tau(   9) = (   0.4942857   0.0000000   0.0000000  )
        10           Fe2 tau(  10) = (   0.7414281   0.2471433   0.2471433  )
        11           Fe1 tau(  11) = (   0.4942857   0.0000000   0.4942857  )
        12           Fe2 tau(  12) = (   0.7414281   0.2471433   0.7414281  )
        13           Fe1 tau(  13) = (   0.4942857   0.4942857   0.0000000  )
        14           Fe2 tau(  14) = (   0.7414281   0.7414281   0.2471433  )
        15           Fe1 tau(  15) = (   0.4942857   0.4942857   0.4942857  )
        16           Fe2 tau(  16) = (   0.7414281   0.7414281   0.7414281  )

     number of k points=    35  Marzari-Vanderbilt smearing, width (Ry)=  0.0400
                       cart. coord. in units 2pi/alat
        k(    1) = (   0.0561978   0.0561978   0.0561978), wk =   0.0109739
        k(    2) = (   0.0561978   0.0561978   0.1685934), wk =   0.0329218
        k(    3) = (   0.0561978   0.0561978   0.2809891), wk =   0.0329218
        k(    4) = (   0.0561978   0.0561978   0.3933847), wk =   0.0329218
        k(    5) = (   0.0561978   0.0561978  -0.5057803), wk =   0.0164609
        k(    6) = (   0.0561978   0.1685934   0.1685934), wk =   0.0329218
        k(    7) = (   0.0561978   0.1685934   0.2809891), wk =   0.0658436
        k(    8) = (   0.0561978   0.1685934   0.3933847), wk =   0.0658436
        k(    9) = (   0.0561978   0.1685934  -0.5057803), wk =   0.0329218
        k(   10) = (   0.0561978   0.2809891   0.2809891), wk =   0.0329218
        k(   11) = (   0.0561978   0.2809891   0.3933847), wk =   0.0658436
        k(   12) = (   0.0561978   0.2809891  -0.5057803), wk =   0.0329218
        k(   13) = (   0.0561978   0.3933847   0.3933847), wk =   0.0329218
        k(   14) = (   0.0561978   0.3933847  -0.5057803), wk =   0.0329218
        k(   15) = (   0.0561978  -0.5057803  -0.5057803), wk =   0.0082305
        k(   16) = (   0.1685934   0.1685934   0.1685934), wk =   0.0109739
        k(   17) = (   0.1685934   0.1685934   0.2809891), wk =   0.0329218
        k(   18) = (   0.1685934   0.1685934   0.3933847), wk =   0.0329218
        k(   19) = (   0.1685934   0.1685934  -0.5057803), wk =   0.0164609
        k(   20) = (   0.1685934   0.2809891   0.2809891), wk =   0.0329218
        k(   21) = (   0.1685934   0.2809891   0.3933847), wk =   0.0658436
        k(   22) = (   0.1685934   0.2809891  -0.5057803), wk =   0.0329218
        k(   23) = (   0.1685934   0.3933847   0.3933847), wk =   0.0329218
        k(   24) = (   0.1685934   0.3933847  -0.5057803), wk =   0.0329218
        k(   25) = (   0.1685934  -0.5057803  -0.5057803), wk =   0.0082305
        k(   26) = (   0.2809891   0.2809891   0.2809891), wk =   0.0109739
        k(   27) = (   0.2809891   0.2809891   0.3933847), wk =   0.0329218
        k(   28) = (   0.2809891   0.2809891  -0.5057803), wk =   0.0164609
        k(   29) = (   0.2809891   0.3933847   0.3933847), wk =   0.0329218
        k(   30) = (   0.2809891   0.3933847  -0.5057803), wk =   0.0329218
        k(   31) = (   0.2809891  -0.5057803  -0.5057803), wk =   0.0082305
        k(   32) = (   0.3933847   0.3933847   0.3933847), wk =   0.0109739
        k(   33) = (   0.3933847   0.3933847  -0.5057803), wk =   0.0164609
        k(   34) = (   0.3933847  -0.5057803  -0.5057803), wk =   0.0082305
        k(   35) = (  -0.5057803  -0.5057803  -0.5057803), wk =   0.0013717

     Dense  grid:   173157 G-vectors     FFT dimensions: (  72,  72,  72)

     Smooth grid:    92589 G-vectors     FFT dimensions: (  60,  60,  60)

     Estimated max dynamical RAM per process >     149.07 MB

     Estimated total dynamical RAM >       2.91 GB
     Generating pointlists ...
     new r_m :   0.1766 (alat units)  1.8706 (a.u.) for type    1
     new r_m :   0.1766 (alat units)  1.8706 (a.u.) for type    2

     Check: negative/imaginary core charge=   -0.000006    0.000000

     Initial potential from superposition of free atoms

     starting charge  255.99300, renormalised to  256.00000
     Starting wfcs are  160 randomized atomic wfcs
     Checking if some PAW data can be deallocated... 

     total cpu time spent up to now is        8.8 secs

     Self-consistent Calculation

     iteration #  1     ecut=    71.00 Ry     beta= 0.10
     Davidson diagonalization with overlap
     ethr =  1.00E-02,  avg # of iterations =  3.3

     Threshold (ethr) on eigenvalues was too large:
     Diagonalizing with lowered threshold

     Davidson diagonalization with overlap
     ethr =  2.14E-04,  avg # of iterations =  3.4

     total cpu time spent up to now is       66.5 secs

     total energy              =   -5267.97000485 Ry
     Harris-Foulkes estimate   =   -5268.02761654 Ry
     estimated scf accuracy    <       0.63006226 Ry

     total magnetization       =    27.39 Bohr mag/cell
     absolute magnetization    =    27.48 Bohr mag/cell

     iteration #  2     ecut=    71.00 Ry     beta= 0.10
     Davidson diagonalization with overlap
     ethr =  2.46E-04,  avg # of iterations =  1.0

     total cpu time spent up to now is       84.3 secs

     total energy              =   -5267.94283747 Ry
     Harris-Foulkes estimate   =   -5267.98220314 Ry
     estimated scf accuracy    <       0.35839119 Ry

     total magnetization       =    28.02 Bohr mag/cell
     absolute magnetization    =    28.14 Bohr mag/cell

     iteration #  3     ecut=    71.00 Ry     beta= 0.10
     Davidson diagonalization with overlap
     ethr =  1.40E-04,  avg # of iterations =  3.1

     total cpu time spent up to now is      114.1 secs

     total energy              =   -5268.00882593 Ry
     Harris-Foulkes estimate   =   -5268.01265366 Ry
     estimated scf accuracy    <       0.32220251 Ry

     total magnetization       =    29.35 Bohr mag/cell
     absolute magnetization    =    29.64 Bohr mag/cell

     iteration #  4     ecut=    71.00 Ry     beta= 0.10
     Davidson diagonalization with overlap
     ethr =  1.26E-04,  avg # of iterations =  1.0

     total cpu time spent up to now is      131.9 secs

     total energy              =   -5268.02451925 Ry
     Harris-Foulkes estimate   =   -5268.01669934 Ry
     estimated scf accuracy    <       0.10661198 Ry

     total magnetization       =    29.55 Bohr mag/cell
     absolute magnetization    =    29.85 Bohr mag/cell

     iteration #  5     ecut=    71.00 Ry     beta= 0.10
     Davidson diagonalization with overlap
     ethr =  4.16E-05,  avg # of iterations =  1.5

     total cpu time spent up to now is      151.5 secs

     total energy              =   -5268.10079466 Ry
     Harris-Foulkes estimate   =   -5268.02886056 Ry
     estimated scf accuracy    <       0.09418194 Ry

     total magnetization       =    29.60 Bohr mag/cell
     absolute magnetization    =    29.95 Bohr mag/cell

     iteration #  6     ecut=    71.00 Ry     beta= 0.10
     Davidson diagonalization with overlap
     ethr =  3.68E-05,  avg # of iterations =  3.2

     negative rho (up, down):  0.000E+00 2.912E-03

     total cpu time spent up to now is      182.0 secs

     total energy              =   -5268.12149059 Ry
     Harris-Foulkes estimate   =   -5268.13042378 Ry
     estimated scf accuracy    <       0.18465815 Ry

     total magnetization       =    30.28 Bohr mag/cell
     absolute magnetization    =    30.92 Bohr mag/cell

     iteration #  7     ecut=    71.00 Ry     beta= 0.10
     Davidson diagonalization with overlap
     ethr =  3.68E-05,  avg # of iterations =  2.9

     negative rho (up, down):  0.000E+00 1.686E-03

     total cpu time spent up to now is      211.1 secs

     total energy              =   -5268.15673702 Ry
     Harris-Foulkes estimate   =   -5268.16247819 Ry
     estimated scf accuracy    <       0.01162073 Ry

     total magnetization       =    31.69 Bohr mag/cell
     absolute magnetization    =    33.05 Bohr mag/cell

     iteration #  8     ecut=    71.00 Ry     beta= 0.10
     Davidson diagonalization with overlap
     ethr =  4.54E-06,  avg # of iterations =  2.4

     negative rho (up, down):  0.000E+00 1.784E-03

     total cpu time spent up to now is      235.7 secs

     total energy              =   -5268.16013139 Ry
     Harris-Foulkes estimate   =   -5268.15829231 Ry
     estimated scf accuracy    <       0.00817483 Ry

     total magnetization       =    31.63 Bohr mag/cell
     absolute magnetization    =    32.84 Bohr mag/cell

     iteration #  9     ecut=    71.00 Ry     beta= 0.10
     Davidson diagonalization with overlap
     ethr =  3.19E-06,  avg # of iterations =  1.4

     negative rho (up, down):  0.000E+00 2.173E-03

     total cpu time spent up to now is      255.0 secs

     total energy              =   -5268.16314461 Ry
     Harris-Foulkes estimate   =   -5268.16039693 Ry
     estimated scf accuracy    <       0.00516646 Ry

     total magnetization       =    31.75 Bohr mag/cell
     absolute magnetization    =    33.02 Bohr mag/cell

     iteration # 10     ecut=    71.00 Ry     beta= 0.10
     Davidson diagonalization with overlap
     ethr =  2.02E-06,  avg # of iterations =  3.2

     negative rho (up, down):  0.000E+00 1.986E-03

     total cpu time spent up to now is      283.0 secs

     total energy              =   -5268.16446390 Ry
     Harris-Foulkes estimate   =   -5268.16436111 Ry
     estimated scf accuracy    <       0.00092236 Ry

     total magnetization       =    32.05 Bohr mag/cell
     absolute magnetization    =    33.53 Bohr mag/cell

     iteration # 11     ecut=    71.00 Ry     beta= 0.10
     Davidson diagonalization with overlap
     ethr =  3.60E-07,  avg # of iterations =  1.4

     negative rho (up, down):  0.000E+00 2.032E-03

     total cpu time spent up to now is      302.3 secs

     total energy              =   -5268.16486589 Ry
     Harris-Foulkes estimate   =   -5268.16449843 Ry
     estimated scf accuracy    <       0.00074808 Ry

     total magnetization       =    32.07 Bohr mag/cell
     absolute magnetization    =    33.54 Bohr mag/cell

     iteration # 12     ecut=    71.00 Ry     beta= 0.10
     Davidson diagonalization with overlap
     ethr =  2.92E-07,  avg # of iterations =  3.0

     negative rho (up, down):  0.000E+00 2.176E-03

     total cpu time spent up to now is      330.4 secs

     total energy              =   -5268.16508329 Ry
     Harris-Foulkes estimate   =   -5268.16508528 Ry
     estimated scf accuracy    <       0.00029176 Ry

     total magnetization       =    32.23 Bohr mag/cell
     absolute magnetization    =    33.77 Bohr mag/cell

     iteration # 13     ecut=    71.00 Ry     beta= 0.10
     Davidson diagonalization with overlap
     ethr =  1.14E-07,  avg # of iterations =  3.1

     negative rho (up, down):  0.000E+00 2.235E-03

     total cpu time spent up to now is      357.2 secs

     total energy              =   -5268.16512301 Ry
     Harris-Foulkes estimate   =   -5268.16513210 Ry
     estimated scf accuracy    <       0.00008550 Ry

     total magnetization       =    32.29 Bohr mag/cell
     absolute magnetization    =    33.88 Bohr mag/cell

     iteration # 14     ecut=    71.00 Ry     beta= 0.10
     Davidson diagonalization with overlap
     ethr =  3.34E-08,  avg # of iterations =  2.6

     negative rho (up, down):  0.000E+00 2.223E-03

     total cpu time spent up to now is      383.6 secs

     total energy              =   -5268.16513935 Ry
     Harris-Foulkes estimate   =   -5268.16514296 Ry
     estimated scf accuracy    <       0.00009733 Ry

     total magnetization       =    32.31 Bohr mag/cell
     absolute magnetization    =    33.91 Bohr mag/cell

     iteration # 15     ecut=    71.00 Ry     beta= 0.10
     Davidson diagonalization with overlap
     ethr =  3.34E-08,  avg # of iterations =  2.1

     negative rho (up, down):  0.000E+00 2.244E-03

     total cpu time spent up to now is      405.8 secs

     total energy              =   -5268.16516033 Ry
     Harris-Foulkes estimate   =   -5268.16514857 Ry
     estimated scf accuracy    <       0.00002461 Ry

     total magnetization       =    32.32 Bohr mag/cell
     absolute magnetization    =    33.92 Bohr mag/cell

     iteration # 16     ecut=    71.00 Ry     beta= 0.10
     Davidson diagonalization with overlap
     ethr =  9.61E-09,  avg # of iterations =  2.3

     negative rho (up, down):  0.000E+00 2.249E-03

     total cpu time spent up to now is      428.4 secs

     total energy              =   -5268.16516827 Ry
     Harris-Foulkes estimate   =   -5268.16516305 Ry
     estimated scf accuracy    <       0.00001021 Ry

     total magnetization       =    32.32 Bohr mag/cell
     absolute magnetization    =    33.92 Bohr mag/cell

     iteration # 17     ecut=    71.00 Ry     beta= 0.10
     Davidson diagonalization with overlap
     ethr =  3.99E-09,  avg # of iterations =  3.0

     negative rho (up, down):  0.000E+00 2.250E-03

     total cpu time spent up to now is      454.7 secs

     total energy              =   -5268.16517033 Ry
     Harris-Foulkes estimate   =   -5268.16517015 Ry
     estimated scf accuracy    <       0.00000281 Ry

     total magnetization       =    32.33 Bohr mag/cell
     absolute magnetization    =    33.92 Bohr mag/cell

     iteration # 18     ecut=    71.00 Ry     beta= 0.10
     Davidson diagonalization with overlap
     ethr =  1.10E-09,  avg # of iterations =  2.6

     negative rho (up, down):  0.000E+00 2.266E-03
 
     Magnetic moment per site:
     atom:    1    charge:   14.3386    magn:    2.0562    constr:    0.0000
     atom:    2    charge:   14.3384    magn:    2.0581    constr:    0.0000
     atom:    3    charge:   14.3385    magn:    2.0569    constr:    0.0000
     atom:    4    charge:   14.3384    magn:    2.0581    constr:    0.0000
     atom:    5    charge:   14.3385    magn:    2.0569    constr:    0.0000
     atom:    6    charge:   14.3384    magn:    2.0581    constr:    0.0000
     atom:    7    charge:   14.3385    magn:    2.0573    constr:    0.0000
     atom:    8    charge:   14.3384    magn:    2.0581    constr:    0.0000
     atom:    9    charge:   14.3385    magn:    2.0569    constr:    0.0000
     atom:   10    charge:   14.3384    magn:    2.0581    constr:    0.0000
     atom:   11    charge:   14.3385    magn:    2.0573    constr:    0.0000
     atom:   12    charge:   14.3384    magn:    2.0581    constr:    0.0000
     atom:   13    charge:   14.3385    magn:    2.0573    constr:    0.0000
     atom:   14    charge:   14.3384    magn:    2.0581    constr:    0.0000
     atom:   15    charge:   14.3384    magn:    2.0576    constr:    0.0000
     atom:   16    charge:   14.3384    magn:    2.0581    constr:    0.0000

     total cpu time spent up to now is      479.9 secs

     End of self-consistent calculation

 ------ SPIN UP ------------


          k = 0.0562 0.0562 0.0562 ( 11597 PWs)   bands (ev):

   -68.3030 -68.2152 -68.2152 -68.2151 -68.2010 -68.2010 -68.2010 -68.1996
   -68.1996 -68.1996 -68.1992 -68.1992 -68.1989 -68.1936 -68.1923 -68.1250
   -34.5521 -34.5521 -34.5521 -34.5494 -34.5494 -34.5494 -34.4046 -34.4046
   -34.3984 -34.3338 -34.3304 -34.3304 -34.3303 -34.3117 -34.3117 -34.2985
   -34.2985 -34.2985 -34.2667 -34.2667 -34.2438 -34.2309 -34.2308 -34.2308
   -34.2204 -34.2204 -34.2204 -34.2093 -34.2093 -34.2093 -34.2062 -34.2062
   -34.2062 -34.1984 -34.1983 -34.1983 -34.1886 -34.1886 -34.1886 -34.0404
   -34.0397 -34.0397 -34.0397 -34.0366 -34.0366 -34.0366 -34.0344 -34.0344
    10.9644  14.5394  14.5394  14.5394  14.5585  14.5585  14.5585  14.5721
    14.5721  14.6422  14.6422  14.6422  15.0490  15.0490  15.0490  16.2407
    16.2495  16.2495  16.2495  16.2628  16.2628  16.2628  16.3299  16.3299
    16.4060  16.4060  16.4060  16.4815  16.4815  16.5404  16.7645  16.7645
    16.7645  17.4512  17.4512  17.4953  17.7909  17.7909  17.7909  17.8747
    17.8747  17.8747  17.9725  17.9725  17.9725  18.0578  18.0578  18.0578
    18.7292  18.7293  18.7293  18.7476  18.7476  18.7880  18.7880  18.7880
    18.8396  18.8396  18.8396  18.8468  18.8469  18.8469  18.9631  18.9631
    18.9631  18.9721  18.9721  18.9721  19.0137  19.0137  19.0151  19.0151
    19.9173  19.9173  19.9173  19.9225  19.9226  19.9226  20.0804  20.1373
    20.1373  20.1373  20.1506  20.1506  20.5154  20.5155  20.5155  20.6885
    20.6885  20.6885

          k = 0.0562 0.0562 0.1686 ( 11576 PWs)   bands (ev):

   -68.3001 -68.2309 -68.2145 -68.2145 -68.2026 -68.2026 -68.2005 -68.1994
   -68.1993 -68.1986 -68.1984 -68.1983 -68.1939 -68.1926 -68.1846 -68.1272
   -34.5448 -34.5448 -34.5438 -34.5414 -34.5367 -34.5367 -34.4072 -34.3985
   -34.3892 -34.3667 -34.3587 -34.3587 -34.3568 -34.3562 -34.3281 -34.3280
   -34.2968 -34.2720 -34.2629 -34.2624 -34.2519 -34.2306 -34.2306 -34.2222
   -34.2141 -34.2124 -34.2124 -34.2107 -34.2096 -34.2037 -34.2037 -34.1989
   -34.1989 -34.1948 -34.1948 -34.1671 -34.1641 -34.1641 -34.1579 -34.0551
   -34.0478 -34.0477 -34.0465 -34.0442 -34.0401 -34.0393 -34.0393 -34.0370
    11.0994  14.0881  14.5612  14.5612  14.6195  14.6195  14.6314  14.6360
    14.6363  14.6542  14.6898  14.6898  15.0851  15.0851  15.2681  16.0529
    16.1294  16.2304  16.2357  16.2479  16.2547  16.2965  16.2965  16.3365
    16.3366  16.3643  16.3880  16.3880  16.6894  16.6901  16.7121  16.7121
    17.1088  17.4282  17.4474  17.5537  17.5873  17.5873  17.6477  17.7466
    17.7577  17.7577  17.9997  17.9997  18.1300  18.1300  18.1946  18.2890
    18.3805  18.3805  18.5006  18.6638  18.6638  18.6838  18.7253  18.7733
    18.7942  18.7942  18.8538  18.8561  18.8762  18.8762  18.9436  18.9436
    18.9747  19.0088  19.0112  19.0115  19.0149  19.1708  19.1708  19.1955
    19.2808  19.5349  19.5524  19.8536  19.8536  19.9249  19.9448  19.9448
    20.0281  20.1434  20.2590  20.2591  20.5641  20.5642  20.5786  20.5787
    20.9994  20.9994

          k = 0.0562 0.0562 0.2810 ( 11595 PWs)   bands (ev):

   -68.2941 -68.2463 -68.2132 -68.2132 -68.2047 -68.2046 -68.1996 -68.1990
   -68.1990 -68.1979 -68.1979 -68.1978 -68.1948 -68.1934 -68.1707 -68.1318
   -34.5283 -34.5283 -34.5277 -34.5259 -34.5151 -34.5151 -34.4078 -34.4044
   -34.3992 -34.3968 -34.3967 -34.3866 -34.3774 -34.3761 -34.3680 -34.3680
   -34.2939 -34.2838 -34.2826 -34.2678 -34.2289 -34.2289 -34.2240 -34.2229
   -34.2196 -34.2159 -34.2159 -34.2020 -34.2019 -34.1992 -34.1992 -34.1801
   -34.1732 -34.1629 -34.1629 -34.1372 -34.1341 -34.1341 -34.1287 -34.0773
   -34.0614 -34.0614 -34.0603 -34.0585 -34.0511 -34.0478 -34.0478 -34.0460
    11.3654  13.4603  14.6165  14.6165  14.7181  14.7181  14.7487  14.7535
    14.7535  14.7550  14.8227  14.8379  15.1131  15.1131  15.3133  15.7181
    15.9744  16.0259  16.1748  16.2119  16.2217  16.2282  16.4019  16.4019
    16.4240  16.4240  16.4680  16.4680  16.7001  16.7001  16.9471  16.9585
    17.3136  17.3136  17.3838  17.4151  17.4434  17.4678  17.4679  17.5419
    17.6416  17.7154  17.8880  17.8880  18.1514  18.1514  18.1972  18.1972
    18.2510  18.2510  18.2837  18.4577  18.5023  18.5586  18.5619  18.6704
    18.7230  18.7231  18.8123  18.8123  18.8245  18.8791  18.8955  18.9796
    18.9960  18.9988  19.0065  19.0141  19.1856  19.2213  19.2214  19.2868
    19.4192  19.4411  19.4411  19.6887  19.8047  19.8770  19.8770  19.9899
    19.9900  20.0770  20.2367  20.2367  20.4295  20.4295  20.6950  20.6950
    21.1022  21.1022

          k = 0.0562 0.0562 0.3934 ( 11572 PWs)   bands (ev):

   -68.2852 -68.2608 -68.2114 -68.2114 -68.2070 -68.2069 -68.1986 -68.1985
   -68.1984 -68.1979 -68.1978 -68.1968 -68.1959 -68.1944 -68.1582 -68.1385
   -34.5043 -34.5036 -34.5036 -34.5033 -34.4859 -34.4859 -34.4412 -34.4390
   -34.4356 -34.4356 -34.4100 -34.4100 -34.4057 -34.3917 -34.3697 -34.3583
   -34.3226 -34.3111 -34.2688 -34.2578 -34.2376 -34.2317 -34.2262 -34.2262
   -34.2194 -34.2194 -34.2004 -34.2004 -34.1994 -34.1994 -34.1816 -34.1419
   -34.1380 -34.1317 -34.1317 -34.1099 -34.1071 -34.1057 -34.1056 -34.1022
   -34.0804 -34.0803 -34.0803 -34.0802 -34.0664 -34.0619 -34.0619 -34.0603
    11.7536  12.8301  14.6903  14.6903  14.7843  14.7843  14.8434  14.8434
    14.9133  14.9210  15.0775  15.0775  15.0829  15.0938  15.2337  15.4122
    15.7102  15.7217  16.1553  16.1725  16.1843  16.1923  16.5605  16.5605
    16.5955  16.5955  16.6506  16.6506  16.8085  16.8085  17.0572  17.0572
    17.1775  17.1776  17.2791  17.2878  17.3921  17.3921  17.4144  17.4440
    17.4613  17.4714  17.6091  17.6091  17.7602  17.8918  18.0846  18.1005
    18.1459  18.3765  18.3863  18.3863  18.4018  18.4019  18.6295  18.6295
    18.7181  18.7181  18.7562  18.8681  18.8987  18.9116  18.9167  18.9750
    18.9768  18.9861  19.0004  19.0161  19.0609  19.1197  19.3959  19.4892
    19.4892  19.5147  19.6266  19.7059  19.7059  19.8392  19.8392  19.9630
    20.0597  20.0597  20.1200  20.1200  20.2863  20.2863  20.8428  20.8428
    21.0907  21.0907

          k = 0.0562 0.0562-0.5058 ( 11588 PWs)   bands (ev):

   -68.2742 -68.2740 -68.2094 -68.2093 -68.2092 -68.2091 -68.1982 -68.1982
   -68.1980 -68.1979 -68.1973 -68.1972 -68.1958 -68.1954 -68.1475 -68.1473
   -34.4748 -34.4747 -34.4745 -34.4744 -34.4720 -34.4720 -34.4720 -34.4720
   -34.4502 -34.4502 -34.4502 -34.4502 -34.4007 -34.4006 -34.3483 -34.3481
   -34.3365 -34.3364 -34.2530 -34.2529 -34.2453 -34.2450 -34.2230 -34.2230
   -34.2228 -34.2228 -34.1998 -34.1998 -34.1997 -34.1996 -34.1431 -34.1429
   -34.1086 -34.1084 -34.1067 -34.1066 -34.1038 -34.1038 -34.1038 -34.1038
   -34.0863 -34.0862 -34.0814 -34.0814 -34.0814 -34.0813 -34.0794 -34.0793
    12.2494  12.2494  14.7572  14.7572  14.7573  14.7573  14.9747  14.9747
    14.9748  14.9748  15.0850  15.0850  15.1440  15.1441  15.3934  15.3935
    15.3968  15.3969  16.1616  16.1618  16.1706  16.1707  16.7592  16.7592
    16.7592  16.7593  16.8330  16.8330  16.8330  16.8330  16.9998  16.9998
    16.9998  16.9999  17.1621  17.1621  17.1622  17.1622  17.4307  17.4308
    17.4520  17.4521  17.6737  17.6738  17.6794  17.6795  17.9086  17.9087
    18.1468  18.1469  18.5157  18.5157  18.5157  18.5158  18.5804  18.5804
    18.5804  18.5804  18.9461  18.9462  18.9469  18.9471  18.9930  18.9931
    18.9950  18.9951  19.0259  19.0260  19.0760  19.0761  19.1928  19.1929
    19.7064  19.7064  19.7064  19.7065  19.8103  19.8104  19.9375  19.9376
    19.9376  19.9376  20.1577  20.1577  20.1578  20.1578  20.9890  20.9890
    20.9891  20.9891

          k = 0.0562 0.1686 0.1686 ( 11572 PWs)   bands (ev):

   -68.2970 -68.2298 -68.2298 -68.2138 -68.2069 -68.2021 -68.2021 -68.1991
   -68.1980 -68.1979 -68.1948 -68.1945 -68.1929 -68.1849 -68.1848 -68.1294
   -34.5431 -34.5370 -34.5370 -34.5298 -34.5297 -34.5190 -34.4130 -34.3947
   -34.3878 -34.3835 -34.3835 -34.3763 -34.3750 -34.3698 -34.3473 -34.3065
   -34.2925 -34.2925 -34.2622 -34.2621 -34.2620 -34.2358 -34.2259 -34.2258
   -34.2210 -34.2183 -34.2182 -34.2083 -34.2083 -34.2043 -34.2026 -34.1957
   -34.1849 -34.1746 -34.1682 -34.1682 -34.1464 -34.1348 -34.1348 -34.0736
   -34.0612 -34.0533 -34.0532 -34.0462 -34.0462 -34.0446 -34.0364 -34.0349
    11.2329  14.1556  14.1556  14.5327  14.6596  14.6596  14.6896  14.6996
    14.7113  14.7144  14.7144  14.7456  15.1330  15.3047  15.3047  16.0293
    16.0596  16.0596  16.1382  16.2799  16.2799  16.3069  16.3155  16.3155
    16.3165  16.3510  16.4301  16.4362  16.6425  16.6894  16.7011  17.0056
    17.0057  17.3719  17.4339  17.4556  17.4556  17.5105  17.6372  17.6513
    17.9214  17.9215  17.9661  17.9661  17.9934  18.0431  18.1766  18.3032
    18.3032  18.3084  18.3084  18.5853  18.5853  18.6744  18.7092  18.7179
    18.7180  18.7207  18.7547  18.8106  18.8106  18.8701  18.8701  18.9523
    19.0008  19.0079  19.0095  19.0194  19.0854  19.2811  19.2864  19.3696
    19.3696  19.3943  19.3944  19.5275  19.5275  19.7185  19.7647  19.7647
    19.9365  20.0049  20.1688  20.3359  20.3679  20.6792  21.2469  21.2469
    21.4514  21.4514

          k = 0.0562 0.1686 0.2810 ( 11600 PWs)   bands (ev):

   -68.2911 -68.2448 -68.2276 -68.2125 -68.2116 -68.2041 -68.2012 -68.1988
   -68.1976 -68.1972 -68.1956 -68.1935 -68.1918 -68.1854 -68.1714 -68.1339
   -34.5320 -34.5216 -34.5216 -34.5160 -34.5095 -34.4933 -34.4190 -34.4184
   -34.4149 -34.4049 -34.4027 -34.4018 -34.3837 -34.3784 -34.3574 -34.3337
   -34.2964 -34.2926 -34.2590 -34.2586 -34.2566 -34.2530 -34.2374 -34.2298
   -34.2294 -34.2230 -34.2169 -34.2067 -34.2046 -34.1929 -34.1888 -34.1710
   -34.1703 -34.1564 -34.1489 -34.1390 -34.1232 -34.1075 -34.1074 -34.1004
   -34.0797 -34.0651 -34.0644 -34.0601 -34.0548 -34.0532 -34.0393 -34.0384
    11.4956  13.5484  14.2688  14.5223  14.7164  14.8000  14.8127  14.8221
    14.8245  14.8343  14.8486  14.8960  15.1822  15.3210  15.3564  15.7440
    15.9159  16.0016  16.1360  16.2331  16.2506  16.2790  16.3233  16.3510
    16.3763  16.3943  16.4324  16.5920  16.5945  16.8524  16.8883  16.9381
    17.2054  17.2231  17.3209  17.3210  17.3652  17.4193  17.4249  17.5556
    17.6644  17.7766  17.8262  17.9291  18.0546  18.1205  18.1632  18.2009
    18.2136  18.2844  18.2904  18.3160  18.3374  18.4977  18.5397  18.5809
    18.6188  18.7426  18.7936  18.8102  18.8420  18.8640  18.8728  18.9837
    18.9935  19.0000  19.0089  19.0292  19.1110  19.2345  19.2580  19.2655
    19.4002  19.4386  19.4465  19.4775  19.5153  19.6065  19.6516  19.7198
    19.8463  20.1296  20.1340  20.1534  20.3532  20.8619  21.0364  21.6312
    21.6674  21.9650

          k = 0.0562 0.1686 0.3934 ( 11600 PWs)   bands (ev):

   -68.2826 -68.2589 -68.2244 -68.2162 -68.2108 -68.2064 -68.1999 -68.1983
   -68.1976 -68.1970 -68.1964 -68.1943 -68.1895 -68.1863 -68.1594 -68.1404
   -34.5125 -34.4994 -34.4985 -34.4962 -34.4824 -34.4597 -34.4538 -34.4437
   -34.4382 -34.4374 -34.4213 -34.4141 -34.4137 -34.3774 -34.3671 -34.3363
   -34.3207 -34.2855 -34.2805 -34.2532 -34.2516 -34.2452 -34.2384 -34.2358
   -34.2286 -34.2277 -34.2117 -34.2059 -34.2053 -34.1825 -34.1731 -34.1603
   -34.1369 -34.1337 -34.1280 -34.1231 -34.1124 -34.1029 -34.1006 -34.0835
   -34.0824 -34.0811 -34.0804 -34.0801 -34.0700 -34.0649 -34.0484 -34.0479
    11.8783  12.9346  14.3875  14.5109  14.7907  14.8721  14.9380  14.9562
    14.9795  14.9910  15.1122  15.1467  15.1645  15.2578  15.2815  15.4541
    15.7174  15.7437  16.1859  16.2170  16.2283  16.2389  16.3476  16.4723
    16.5125  16.5261  16.5792  16.6352  16.7943  16.8998  17.0622  17.1146
    17.1365  17.1397  17.1689  17.1982  17.2884  17.2936  17.3508  17.3550
    17.3697  17.4027  17.5440  17.7202  17.8317  17.9080  17.9252  18.0510
    18.2888  18.3842  18.3946  18.4027  18.4154  18.4269  18.4991  18.5297
    18.6526  18.7131  18.7635  18.8179  18.8688  18.8830  18.8944  18.9581
    18.9660  19.0096  19.0353  19.0502  19.0937  19.1360  19.1940  19.2626
    19.3152  19.3927  19.4364  19.5077  19.5203  19.5981  19.7981  19.8256
    19.8982  19.9024  20.0813  20.2615  20.3296  20.8073  21.0930  21.5378
    21.8442  22.1019

          k = 0.0562 0.1686-0.5058 ( 11600 PWs)   bands (ev):

   -68.2718 -68.2716 -68.2206 -68.2204 -68.2088 -68.2086 -68.1985 -68.1984
   -68.1980 -68.1977 -68.1954 -68.1952 -68.1878 -68.1876 -68.1490 -68.1488
   -34.4857 -34.4857 -34.4717 -34.4715 -34.4712 -34.4710 -34.4698 -34.4698
   -34.4501 -34.4500 -34.4203 -34.4203 -34.4198 -34.4197 -34.3460 -34.3458
   -34.3121 -34.3120 -34.2627 -34.2625 -34.2465 -34.2463 -34.2408 -34.2406
   -34.2324 -34.2322 -34.2057 -34.2055 -34.1772 -34.1771 -34.1715 -34.1714
   -34.1300 -34.1299 -34.1061 -34.1059 -34.1025 -34.1024 -34.1002 -34.1002
   -34.0894 -34.0892 -34.0808 -34.0808 -34.0636 -34.0636 -34.0623 -34.0623
    12.3659  12.3659  14.4720  14.4720  14.8548  14.8549  15.0683  15.0684
    15.1302  15.1303  15.1321  15.1321  15.2007  15.2008  15.4240  15.4241
    15.4372  15.4373  16.1901  16.1902  16.2126  16.2127  16.6436  16.6436
    16.6436  16.6437  16.6795  16.6796  16.7044  16.7044  17.0696  17.0697
    17.0933  17.0933  17.1759  17.1759  17.2792  17.2792  17.2859  17.2860
    17.3840  17.3841  17.4950  17.4952  17.4994  17.4996  18.0963  18.0963
    18.2391  18.2391  18.4495  18.4495  18.5419  18.5420  18.5726  18.5726
    18.6090  18.6090  18.8125  18.8126  18.9262  18.9263  18.9271  18.9273
    18.9676  18.9677  19.0148  19.0149  19.0954  19.0955  19.1253  19.1254
    19.3580  19.3581  19.4758  19.4758  19.6642  19.6642  19.7340  19.7340
    19.9594  19.9595  20.1063  20.1063  20.5648  20.5648  21.3323  21.3323
    22.0289  22.0290

          k = 0.0562 0.2810 0.2810 ( 11584 PWs)   bands (ev):

   -68.2855 -68.2417 -68.2417 -68.2186 -68.2113 -68.2031 -68.2031 -68.1983
   -68.1970 -68.1970 -68.1968 -68.1938 -68.1864 -68.1729 -68.1728 -68.1379
   -34.5263 -34.5083 -34.5083 -34.4989 -34.4989 -34.4630 -34.4331 -34.4331
   -34.4299 -34.4295 -34.4206 -34.4177 -34.3976 -34.3733 -34.3348 -34.2974
   -34.2948 -34.2947 -34.2872 -34.2872 -34.2544 -34.2448 -34.2436 -34.2360
   -34.2360 -34.2234 -34.2234 -34.2157 -34.2157 -34.2104 -34.1764 -34.1496
   -34.1430 -34.1429 -34.1359 -34.1323 -34.1297 -34.1083 -34.1023 -34.0834
   -34.0833 -34.0719 -34.0719 -34.0642 -34.0640 -34.0640 -34.0362 -34.0352
    11.7512  13.7092  13.7092  14.4206  14.8957  14.9075  14.9075  14.9356
    14.9531  14.9640  14.9927  14.9927  15.2781  15.3780  15.3780  15.8543
    15.8543  15.8561  15.9260  16.2767  16.2809  16.3316  16.3316  16.3506
    16.3726  16.3726  16.4437  16.4896  16.7710  16.8055  16.8646  17.0827
    17.0827  17.1725  17.1725  17.1796  17.2257  17.2457  17.3158  17.3865
    17.6908  17.6908  17.8405  17.8405  17.9019  17.9019  17.9446  18.0915
    18.1724  18.1724  18.2826  18.3671  18.4831  18.4831  18.5225  18.5836
    18.7713  18.7769  18.7770  18.7811  18.7811  18.8163  18.8163  18.8467
    18.9170  18.9585  18.9744  19.0197  19.0537  19.1442  19.2238  19.2238
    19.2332  19.2332  19.2942  19.4529  19.5131  19.5143  19.5143  19.8422
    19.8423  19.8933  20.2021  20.3791  20.3892  21.1404  21.6985  21.6985
    22.3516  22.3516

          k = 0.0562 0.2810 0.3934 ( 11597 PWs)   bands (ev):

   -68.2774 -68.2550 -68.2372 -68.2254 -68.2096 -68.2053 -68.2018 -68.1985
   -68.1978 -68.1970 -68.1962 -68.1945 -68.1819 -68.1750 -68.1616 -68.1439
   -34.5124 -34.4894 -34.4889 -34.4840 -34.4762 -34.4639 -34.4472 -34.4422
   -34.4411 -34.4408 -34.4383 -34.4257 -34.4227 -34.3577 -34.3393 -34.3139
   -34.3097 -34.2873 -34.2792 -34.2571 -34.2540 -34.2530 -34.2522 -34.2484
   -34.2479 -34.2420 -34.2273 -34.2153 -34.2138 -34.1901 -34.1697 -34.1655
   -34.1486 -34.1287 -34.1243 -34.1180 -34.1155 -34.1115 -34.0937 -34.0828
   -34.0819 -34.0799 -34.0782 -34.0711 -34.0635 -34.0628 -34.0391 -34.0387
    12.1221  13.1332  13.9129  14.2909  14.9810  15.0239  15.0284  15.0992
    15.1162  15.1336  15.1713  15.2373  15.3121  15.3138  15.3282  15.5904
    15.7350  15.7537  16.0874  16.2414  16.2809  16.2825  16.3073  16.3182
    16.4324  16.4657  16.4658  16.5466  16.7853  16.8862  16.9537  17.0029
    17.0077  17.0885  17.1309  17.1511  17.1568  17.1735  17.2490  17.3013
    17.3483  17.4021  17.4839  17.5403  17.5799  17.6520  18.1318  18.1785
    18.2491  18.4029  18.4293  18.4359  18.4530  18.4808  18.5027  18.5533
    18.6960  18.6989  18.7201  18.7451  18.8165  18.8208  18.8331  18.8405
    18.9221  18.9392  18.9702  19.0361  19.0438  19.0504  19.0932  19.1158
    19.1795  19.2450  19.2931  19.2965  19.3152  19.4869  19.5463  19.6428
    20.0024  20.0573  20.1915  20.3345  20.7057  21.3786  21.4715  22.1170
    22.3907  23.0148

          k = 0.0562 0.2810-0.5058 ( 11620 PWs)   bands (ev):

   -68.2672 -68.2670 -68.2319 -68.2317 -68.2077 -68.2075 -68.2002 -68.2001
   -68.1975 -68.1973 -68.1954 -68.1952 -68.1781 -68.1779 -68.1520 -68.1518
   -34.4910 -34.4910 -34.4663 -34.4663 -34.4662 -34.4662 -34.4660 -34.4659
   -34.4502 -34.4502 -34.4423 -34.4423 -34.3840 -34.3840 -34.3378 -34.3376
   -34.2826 -34.2826 -34.2711 -34.2709 -34.2690 -34.2688 -34.2466 -34.2465
   -34.2390 -34.2388 -34.2153 -34.2152 -34.2104 -34.2103 -34.1581 -34.1581
   -34.1564 -34.1562 -34.1005 -34.1003 -34.0974 -34.0972 -34.0964 -34.0963
   -34.0952 -34.0952 -34.0810 -34.0810 -34.0486 -34.0485 -34.0481 -34.0481
    12.5914  12.5914  14.1183  14.1183  15.0350  15.0351  15.1797  15.1797
    15.2267  15.2267  15.2403  15.2403  15.3493  15.3493  15.4738  15.4739
    15.5079  15.5080  16.2421  16.2422  16.2642  16.2643  16.4112  16.4113
    16.4493  16.4494  16.4899  16.4900  16.6972  16.6972  17.1039  17.1040
    17.1087  17.1087  17.1344  17.1344  17.2244  17.2245  17.2390  17.2391
    17.2748  17.2748  17.3061  17.3062  17.3166  17.3167  18.3326  18.3326
    18.3774  18.3774  18.4229  18.4230  18.4879  18.4879  18.5863  18.5863
    18.5970  18.5970  18.5991  18.5991  18.8795  18.8796  18.8896  18.8897
    18.9168  18.9169  18.9599  18.9601  19.0581  19.0582  19.0627  19.0628
    19.1641  19.1641  19.3184  19.3185  19.3751  19.3751  19.5267  19.5268
    20.1221  20.1222  20.2255  20.2256  21.0433  21.0433  21.8098  21.8098
    23.0976  23.0976

          k = 0.0562 0.3934 0.3934 ( 11632 PWs)   bands (ev):

   -68.2698 -68.2494 -68.2494 -68.2343 -68.2079 -68.2039 -68.2038 -68.2003
   -68.1973 -68.1964 -68.1963 -68.1949 -68.1752 -68.1650 -68.1650 -68.1494
   -34.5042 -34.4762 -34.4762 -34.4684 -34.4684 -34.4667 -34.4667 -34.4528
   -34.4527 -34.4505 -34.4495 -34.4355 -34.3864 -34.3437 -34.3035 -34.3035
   -34.2975 -34.2974 -34.2851 -34.2814 -34.2746 -34.2590 -34.2590 -34.2574
   -34.2444 -34.2267 -34.2267 -34.2208 -34.2208 -34.2207 -34.2101 -34.1576
   -34.1503 -34.1262 -34.1262 -34.1089 -34.1031 -34.1005 -34.0906 -34.0873
   -34.0860 -34.0860 -34.0808 -34.0808 -34.0482 -34.0482 -34.0360 -34.0353
    12.4729  13.4042  13.4043  14.0210  15.1241  15.1810  15.1971  15.2363
    15.2363  15.3064  15.3064  15.3316  15.3506  15.3507  15.4433  15.6957
    15.7185  15.8244  15.8244  16.2341  16.2633  16.2754  16.3441  16.3441
    16.3484  16.3484  16.3643  16.4516  16.6187  16.8833  16.8977  16.8977
    16.9498  17.0345  17.0612  17.1012  17.1803  17.1803  17.2015  17.2015
    17.2149  17.2149  17.2448  17.2954  17.4485  17.8473  17.8473  18.3552
    18.4273  18.4400  18.4401  18.4798  18.5220  18.5488  18.5643  18.5644
    18.5744  18.6988  18.7538  18.7538  18.7632  18.7632  18.7976  18.8304
    18.8305  18.8699  18.8743  18.8945  18.9770  18.9770  19.0036  19.0694
    19.1451  19.1783  19.1784  19.2642  19.3472  19.3472  19.3825  19.4161
    20.1743  20.1744  20.2467  20.3447  21.1225  21.8993  21.9770  21.9770
    22.7432  22.7432

          k = 0.0562 0.3934-0.5058 ( 11614 PWs)   bands (ev):

   -68.2605 -68.2603 -68.2425 -68.2423 -68.2061 -68.2059 -68.2022 -68.2020
   -68.1968 -68.1966 -68.1957 -68.1955 -68.1696 -68.1694 -68.1565 -68.1563
   -34.4883 -34.4883 -34.4626 -34.4626 -34.4623 -34.4623 -34.4621 -34.4620
   -34.4601 -34.4600 -34.4514 -34.4513 -34.3428 -34.3428 -34.3254 -34.3252
   -34.2904 -34.2902 -34.2747 -34.2746 -34.2610 -34.2610 -34.2535 -34.2535
   -34.2513 -34.2513 -34.2369 -34.2368 -34.2250 -34.2249 -34.1883 -34.1883
   -34.1372 -34.1370 -34.1067 -34.1066 -34.0935 -34.0934 -34.0932 -34.0931
   -34.0917 -34.0916 -34.0831 -34.0831 -34.0390 -34.0390 -34.0387 -34.0387
    12.9104  12.9104  13.7140  13.7140  15.2262  15.2262  15.2587  15.2588
    15.2672  15.2672  15.4478  15.4478  15.5054  15.5055  15.5679  15.5679
    15.5840  15.5840  16.1213  16.1214  16.2714  16.2714  16.2794  16.2794
    16.2902  16.2903  16.3554  16.3555  16.7380  16.7380  16.9480  16.9480
    16.9994  16.9995  17.0367  17.0368  17.0387  17.0387  17.0579  17.0580
    17.2528  17.2529  17.2791  17.2791  17.5310  17.5310  18.1511  18.1511
    18.4661  18.4662  18.5065  18.5065  18.5934  18.5934  18.5990  18.5991
    18.6412  18.6413  18.6745  18.6745  18.7630  18.7631  18.8091  18.8092
    18.8330  18.8331  18.8574  18.8576  18.9018  18.9019  19.1121  19.1122
    19.1127  19.1127  19.2216  19.2216  19.2237  19.2237  19.3782  19.3782
    20.2400  20.2400  20.2909  20.2909  21.5515  21.5515  22.3342  22.3342
    22.5873  22.5873

          k = 0.0562-0.5058-0.5058 ( 11596 PWs)   bands (ev):

   -68.2522 -68.2521 -68.2521 -68.2518 -68.2042 -68.2041 -68.2041 -68.2039
   -68.1963 -68.1962 -68.1962 -68.1959 -68.1624 -68.1623 -68.1623 -68.1620
   -34.4784 -34.4784 -34.4783 -34.4783 -34.4607 -34.4607 -34.4607 -34.4606
   -34.4547 -34.4546 -34.4546 -34.4545 -34.3094 -34.3092 -34.3092 -34.3090
   -34.2983 -34.2983 -34.2982 -34.2982 -34.2715 -34.2714 -34.2714 -34.2714
   -34.2326 -34.2326 -34.2325 -34.2325 -34.2194 -34.2193 -34.2193 -34.2193
   -34.1205 -34.1204 -34.1204 -34.1201 -34.0912 -34.0911 -34.0911 -34.0911
   -34.0875 -34.0874 -34.0874 -34.0874 -34.0354 -34.0354 -34.0354 -34.0354
    13.2969  13.2969  13.2969  13.2969  15.2614  15.2614  15.2614  15.2615
    15.4441  15.4441  15.4441  15.4441  15.5908  15.5908  15.5908  15.5908
    15.8328  15.8329  15.8329  15.8330  16.2316  16.2317  16.2317  16.2317
    16.2885  16.2885  16.2885  16.2885  16.8236  16.8236  16.8237  16.8237
    16.9524  16.9524  16.9524  16.9526  16.9990  16.9990  16.9990  16.9991
    17.2440  17.2441  17.2441  17.2442  17.8270  17.8270  17.8271  17.8271
    18.5860  18.5860  18.5860  18.5862  18.5938  18.5938  18.5939  18.5939
    18.7237  18.7238  18.7238  18.7238  18.7584  18.7585  18.7585  18.7585
    18.8330  18.8331  18.8331  18.8333  18.8520  18.8520  18.8521  18.8521
    19.1619  19.1619  19.1619  19.1620  19.2841  19.2841  19.2842  19.2842
    20.2969  20.2970  20.2970  20.2970  22.0697  22.0697  22.0697  22.0698
    22.8686  22.8686

          k = 0.1686 0.1686 0.1686 ( 11596 PWs)   bands (ev):

   -68.2941 -68.2287 -68.2287 -68.2286 -68.2064 -68.2064 -68.2063 -68.1958
   -68.1946 -68.1946 -68.1945 -68.1925 -68.1851 -68.1851 -68.1850 -68.1316
   -34.5351 -34.5351 -34.5351 -34.5135 -34.5135 -34.5134 -34.4073 -34.4073
   -34.4064 -34.3989 -34.3989 -34.3988 -34.3575 -34.3506 -34.3506 -34.3132
   -34.3131 -34.3131 -34.2688 -34.2687 -34.2687 -34.2287 -34.2287 -34.2287
   -34.2185 -34.2185 -34.2036 -34.2036 -34.2036 -34.1994 -34.1994 -34.1994
   -34.1704 -34.1703 -34.1703 -34.1627 -34.1201 -34.1201 -34.1200 -34.0925
   -34.0648 -34.0648 -34.0648 -34.0439 -34.0438 -34.0438 -34.0406 -34.0406
    11.3650  14.2284  14.2284  14.2284  14.6351  14.6352  14.6352  14.7547
    14.7547  14.8038  14.8038  14.8038  15.3570  15.3571  15.3571  15.9462
    16.0476  16.0476  16.0476  16.2287  16.2287  16.2998  16.2999  16.2999
    16.4049  16.4049  16.4049  16.6002  16.6002  16.6126  16.8965  16.8965
    16.8965  17.3599  17.3599  17.3929  17.3929  17.3930  17.7608  17.7831
    17.7831  17.7831  17.9298  17.9298  17.9298  17.9872  17.9873  17.9873
    18.3735  18.3735  18.3735  18.6058  18.6058  18.6058  18.7044  18.7044
    18.7391  18.7391  18.7391  18.8921  18.8922  18.8922  18.9439  18.9439
    18.9439  18.9553  18.9554  18.9554  18.9956  18.9956  19.0210  19.0210
    19.4689  19.4800  19.4800  19.4801  19.5442  19.5443  19.5443  19.9858
    19.9859  19.9859  20.0461  20.0461  20.8884  20.8884  20.8884  21.5810
    21.5810  21.5810

          k = 0.1686 0.1686 0.2810 ( 11596 PWs)   bands (ev):

   -68.2884 -68.2432 -68.2265 -68.2264 -68.2109 -68.2108 -68.2051 -68.1976
   -68.1942 -68.1924 -68.1918 -68.1917 -68.1856 -68.1856 -68.1721 -68.1358
   -34.5244 -34.5244 -34.5193 -34.5024 -34.4893 -34.4893 -34.4264 -34.4242
   -34.4242 -34.4174 -34.4146 -34.3955 -34.3929 -34.3458 -34.3458 -34.3368
   -34.3296 -34.3004 -34.2746 -34.2698 -34.2698 -34.2430 -34.2395 -34.2395
   -34.2329 -34.2263 -34.2060 -34.1917 -34.1917 -34.1778 -34.1759 -34.1759
   -34.1728 -34.1728 -34.1399 -34.1395 -34.1206 -34.1000 -34.0999 -34.0959
   -34.0803 -34.0803 -34.0721 -34.0582 -34.0517 -34.0458 -34.0458 -34.0408
    11.6248  13.6393  14.3516  14.3516  14.6288  14.6288  14.8327  14.8637
    14.8763  14.9257  14.9257  14.9800  15.3996  15.3997  15.4188  15.7507
    15.8670  16.0907  16.0907  16.0997  16.1903  16.2707  16.3522  16.3732
    16.3732  16.4315  16.5408  16.5409  16.7044  16.8000  16.8001  16.8148
    17.0848  17.2235  17.2236  17.2882  17.2973  17.3376  17.5121  17.5121
    17.5392  17.5392  17.7949  17.9068  17.9735  18.0232  18.1127  18.1127
    18.1712  18.1713  18.1958  18.4241  18.4241  18.6067  18.6227  18.6615
    18.6615  18.6882  18.7621  18.7919  18.8370  18.8371  18.8682  18.9611
    18.9753  18.9898  19.0070  19.0468  19.0713  19.0713  19.0951  19.0952
    19.1669  19.2537  19.6089  19.6089  19.6180  19.6251  19.6251  19.6707
    19.8239  20.0615  20.0615  20.0868  20.5881  20.5881  21.5607  21.8056
    21.8056  22.4195

          k = 0.1686 0.1686 0.3934 ( 11609 PWs)   bands (ev):

   -68.2800 -68.2570 -68.2234 -68.2234 -68.2154 -68.2153 -68.2036 -68.1995
   -68.1937 -68.1926 -68.1895 -68.1894 -68.1865 -68.1864 -68.1605 -68.1421
   -34.5060 -34.5060 -34.4965 -34.4870 -34.4584 -34.4584 -34.4535 -34.4534
   -34.4471 -34.4322 -34.4241 -34.4237 -34.3837 -34.3837 -34.3779 -34.3297
   -34.3135 -34.3075 -34.2660 -34.2660 -34.2627 -34.2614 -34.2497 -34.2497
   -34.2338 -34.2265 -34.2145 -34.1852 -34.1852 -34.1760 -34.1760 -34.1550
   -34.1483 -34.1483 -34.1399 -34.1175 -34.1122 -34.0995 -34.0995 -34.0835
   -34.0807 -34.0806 -34.0796 -34.0754 -34.0675 -34.0529 -34.0529 -34.0473
    12.0026  13.0405  14.4829  14.4829  14.6192  14.6192  15.0235  15.0368
    15.0714  15.0714  15.1098  15.2203  15.3503  15.3503  15.3522  15.4744
    15.7267  15.7915  16.1851  16.2352  16.2750  16.2750  16.2951  16.2955
    16.4926  16.4926  16.6864  16.6864  16.7476  16.7476  16.9720  17.0652
    17.0972  17.0972  17.1213  17.1213  17.1996  17.2375  17.2379  17.2836
    17.2836  17.3068  17.5883  17.5903  17.5903  17.7383  18.0762  18.1428
    18.2213  18.3860  18.3860  18.4680  18.4680  18.4689  18.4742  18.5864
    18.5864  18.7357  18.7357  18.8412  18.8424  18.8561  18.8843  18.9115
    18.9484  18.9683  18.9728  18.9837  19.0719  19.0966  19.1628  19.1628
    19.2049  19.2049  19.3533  19.5383  19.7776  19.7776  19.7887  19.7888
    19.8396  20.0344  20.0344  20.0593  20.3066  20.3066  22.0721  22.0721
    22.2716  22.4652

          k = 0.1686 0.1686-0.5058 ( 11616 PWs)   bands (ev):

   -68.2695 -68.2693 -68.2198 -68.2197 -68.2196 -68.2195 -68.2017 -68.2015
   -68.1932 -68.1929 -68.1878 -68.1878 -68.1876 -68.1875 -68.1505 -68.1503
   -34.4816 -34.4816 -34.4816 -34.4815 -34.4680 -34.4679 -34.4671 -34.4669
   -34.4266 -34.4265 -34.4224 -34.4224 -34.4224 -34.4224 -34.3560 -34.3558
   -34.2885 -34.2884 -34.2847 -34.2845 -34.2589 -34.2589 -34.2587 -34.2587
   -34.2221 -34.2219 -34.1933 -34.1932 -34.1802 -34.1802 -34.1801 -34.1801
   -34.1225 -34.1225 -34.1224 -34.1224 -34.1070 -34.1068 -34.0987 -34.0986
   -34.0879 -34.0877 -34.0649 -34.0649 -34.0648 -34.0648 -34.0588 -34.0587
    12.4827  12.4827  14.5771  14.5771  14.5771  14.5772  15.2084  15.2085
    15.2236  15.2236  15.2236  15.2236  15.2290  15.2291  15.4416  15.4417
    15.4899  15.4900  16.2034  16.2035  16.2616  16.2617  16.5681  16.5681
    16.5682  16.5682  16.6382  16.6382  16.6382  16.6383  17.0631  17.0631
    17.0631  17.0631  17.2171  17.2171  17.2171  17.2171  17.2190  17.2191
    17.2648  17.2649  17.3239  17.3240  17.3330  17.3331  18.2667  18.2667
    18.3056  18.3056  18.5175  18.5176  18.5208  18.5208  18.5208  18.5208
    18.5821  18.5821  18.5821  18.5821  18.9158  18.9159  18.9201  18.9203
    18.9436  18.9438  18.9762  18.9763  19.1894  19.1894  19.2123  19.2123
    19.2124  19.2124  19.2241  19.2243  19.9349  19.9349  19.9349  19.9349
    19.9730  19.9731  20.0300  20.0300  20.0300  20.0300  22.3182  22.3182
    22.3183  22.3183

          k = 0.1686 0.2810 0.2810 ( 11604 PWs)   bands (ev):

   -68.2829 -68.2402 -68.2402 -68.2244 -68.2177 -68.2095 -68.2094 -68.2000
   -68.1917 -68.1916 -68.1914 -68.1865 -68.1860 -68.1735 -68.1734 -68.1397
   -34.5187 -34.5096 -34.5096 -34.4821 -34.4821 -34.4612 -34.4375 -34.4364
   -34.4364 -34.4362 -34.4238 -34.4017 -34.3921 -34.3680 -34.3401 -34.3129
   -34.3085 -34.3085 -34.3011 -34.3010 -34.2792 -34.2567 -34.2566 -34.2559
   -34.2125 -34.2040 -34.2039 -34.1971 -34.1971 -34.1781 -34.1768 -34.1622
   -34.1536 -34.1511 -34.1431 -34.1431 -34.1223 -34.0994 -34.0894 -34.0824
   -34.0824 -34.0797 -34.0796 -34.0592 -34.0592 -34.0582 -34.0433 -34.0411
    11.8782  13.8062  13.8062  14.4956  14.5334  14.8341  14.8341  14.9647
    15.0002  15.0544  15.0990  15.0990  15.4680  15.4680  15.5077  15.8327
    15.8327  15.8365  16.0529  16.0542  16.2369  16.3357  16.3357  16.4224
    16.4560  16.4560  16.4563  16.5909  16.6693  16.6953  16.7753  16.9497
    16.9498  17.1444  17.1495  17.1524  17.1524  17.2034  17.2831  17.3606
    17.4201  17.4201  17.6917  17.6917  17.7814  17.7814  17.8567  18.0845
    18.2036  18.2036  18.2656  18.5180  18.5909  18.6163  18.6244  18.6244
    18.7358  18.7358  18.7399  18.8017  18.8203  18.8203  18.8421  18.9205
    18.9344  18.9344  18.9514  18.9846  19.0073  19.0073  19.0076  19.0755
    19.1590  19.2501  19.2501  19.6179  19.7116  19.7280  19.7280  19.7973
    19.7974  19.8271  20.0789  20.1504  20.2478  21.1747  21.1747  22.0982
    22.9410  22.9410

          k = 0.1686 0.2810 0.3934 ( 11615 PWs)   bands (ev):

   -68.2750 -68.2532 -68.2359 -68.2243 -68.2215 -68.2138 -68.2075 -68.2026
   -68.1914 -68.1912 -68.1894 -68.1868 -68.1821 -68.1755 -68.1626 -68.1456
   -34.5052 -34.4938 -34.4882 -34.4722 -34.4614 -34.4561 -34.4541 -34.4492
   -34.4415 -34.4335 -34.4303 -34.4269 -34.3960 -34.3770 -34.3479 -34.3301
   -34.3250 -34.2950 -34.2870 -34.2819 -34.2788 -34.2713 -34.2687 -34.2682
   -34.2323 -34.2111 -34.2033 -34.1902 -34.1874 -34.1805 -34.1749 -34.1663
   -34.1487 -34.1329 -34.1320 -34.1220 -34.1159 -34.1073 -34.0956 -34.0874
   -34.0786 -34.0785 -34.0728 -34.0643 -34.0631 -34.0630 -34.0454 -34.0434
    12.2454  13.2420  14.0179  14.4062  14.6555  14.8268  15.1014  15.1220
    15.1737  15.1907  15.2446  15.3320  15.4049  15.4241  15.5149  15.5923
    15.7649  15.8120  16.0579  16.1583  16.2283  16.2905  16.3438  16.3651
    16.4340  16.5198  16.5322  16.5938  16.7360  16.7491  16.8116  16.9115
    16.9243  17.0318  17.0433  17.0833  17.0928  17.1222  17.1390  17.1733
    17.2350  17.2782  17.3551  17.4029  17.4103  17.4698  17.9076  18.2856
    18.2933  18.4023  18.4218  18.5060  18.5358  18.5494  18.5816  18.5844
    18.6820  18.7200  18.7244  18.7337  18.8000  18.8237  18.8382  18.8773
    18.9154  18.9533  18.9730  18.9845  18.9905  19.0327  19.0565  19.0797
    19.1430  19.1649  19.3767  19.4553  19.4567  19.6541  19.7490  19.9390
    19.9438  19.9458  20.0833  20.1316  20.1469  20.8166  21.8038  22.4420
    23.0193  23.1076

          k = 0.1686 0.2810-0.5058 ( 11618 PWs)   bands (ev):

   -68.2650 -68.2648 -68.2306 -68.2304 -68.2179 -68.2178 -68.2053 -68.2051
   -68.1913 -68.1911 -68.1880 -68.1878 -68.1785 -68.1783 -68.1534 -68.1532
   -34.4855 -34.4855 -34.4743 -34.4742 -34.4611 -34.4611 -34.4610 -34.4609
   -34.4402 -34.4401 -34.4265 -34.4265 -34.3883 -34.3883 -34.3559 -34.3558
   -34.3025 -34.3024 -34.2847 -34.2846 -34.2777 -34.2776 -34.2604 -34.2603
   -34.2269 -34.2269 -34.2086 -34.2085 -34.1849 -34.1848 -34.1564 -34.1562
   -34.1473 -34.1472 -34.1125 -34.1125 -34.1038 -34.1037 -34.0957 -34.0956
   -34.0923 -34.0921 -34.0697 -34.0697 -34.0526 -34.0526 -34.0507 -34.0507
    12.7089  12.7089  14.2308  14.2308  14.7746  14.7747  15.2612  15.2613
    15.3205  15.3205  15.3740  15.3741  15.3979  15.3979  15.4646  15.4647
    15.5809  15.5810  16.2491  16.2492  16.3079  16.3080  16.3789  16.3789
    16.3998  16.3998  16.5333  16.5334  16.6563  16.6563  17.0280  17.0280
    17.0462  17.0463  17.0690  17.0690  17.0805  17.0806  17.0993  17.0994
    17.1469  17.1469  17.1826  17.1827  17.1889  17.1890  18.1857  18.1857
    18.4127  18.4127  18.5080  18.5080  18.5476  18.5476  18.5819  18.5819
    18.5856  18.5856  18.6335  18.6336  18.8746  18.8747  18.8997  18.8998
    18.9079  18.9080  18.9858  18.9859  19.0207  19.0208  19.1349  19.1350
    19.1639  19.1641  19.2638  19.2638  19.6488  19.6488  19.7116  19.7116
    20.0373  20.0374  20.0721  20.0722  20.4690  20.4690  22.4505  22.4505
    22.7739  22.7739

          k = 0.1686 0.3934 0.3934 ( 11621 PWs)   bands (ev):

   -68.2677 -68.2477 -68.2477 -68.2330 -68.2188 -68.2115 -68.2115 -68.2057
   -68.1904 -68.1895 -68.1894 -68.1873 -68.1756 -68.1659 -68.1659 -68.1507
   -34.4965 -34.4768 -34.4768 -34.4624 -34.4624 -34.4576 -34.4536 -34.4536
   -34.4501 -34.4461 -34.4395 -34.4133 -34.3901 -34.3648 -34.3258 -34.3222
   -34.3222 -34.3081 -34.3080 -34.2935 -34.2911 -34.2909 -34.2909 -34.2594
   -34.2254 -34.2043 -34.2029 -34.2028 -34.1956 -34.1955 -34.1852 -34.1495
   -34.1468 -34.1238 -34.1237 -34.1165 -34.1161 -34.0998 -34.0936 -34.0936
   -34.0852 -34.0777 -34.0777 -34.0774 -34.0521 -34.0520 -34.0429 -34.0417
    12.5942  13.5171  13.5171  14.1396  14.8621  15.1131  15.1132  15.2011
    15.2891  15.3670  15.3979  15.3979  15.4729  15.4729  15.6626  15.7065
    15.7905  15.8280  15.8280  16.0929  16.2721  16.3036  16.3652  16.3652
    16.3790  16.3790  16.4496  16.4828  16.5923  16.6677  16.8556  16.8571
    16.8572  16.9455  17.0054  17.0206  17.0206  17.0532  17.0764  17.0764
    17.0818  17.0946  17.0946  17.1767  17.2732  17.6007  17.6008  18.1695
    18.4566  18.4566  18.5143  18.5181  18.5667  18.5810  18.6843  18.6934
    18.7522  18.7523  18.7632  18.7632  18.7827  18.7902  18.7902  18.8639
    18.8762  18.9367  18.9368  18.9489  18.9987  19.0403  19.0404  19.0601
    19.0601  19.1289  19.2068  19.2450  19.5010  19.5010  19.5609  19.6321
    20.0573  20.0573  20.1203  20.1812  20.5285  21.3662  21.3662  22.5116
    22.8724  23.6586

          k = 0.1686 0.3934-0.5058 ( 11618 PWs)   bands (ev):

   -68.2585 -68.2583 -68.2410 -68.2408 -68.2154 -68.2153 -68.2089 -68.2087
   -68.1899 -68.1897 -68.1883 -68.1881 -68.1703 -68.1701 -68.1576 -68.1574
   -34.4815 -34.4815 -34.4657 -34.4656 -34.4574 -34.4573 -34.4566 -34.4566
   -34.4518 -34.4517 -34.4332 -34.4331 -34.3498 -34.3498 -34.3459 -34.3457
   -34.3121 -34.3120 -34.3085 -34.3084 -34.2967 -34.2967 -34.2663 -34.2663
   -34.2311 -34.2311 -34.2002 -34.2001 -34.1899 -34.1898 -34.1738 -34.1738
   -34.1352 -34.1351 -34.1034 -34.1034 -34.1024 -34.1023 -34.0962 -34.0961
   -34.0952 -34.0951 -34.0772 -34.0772 -34.0450 -34.0450 -34.0442 -34.0442
    13.0285  13.0286  13.8309  13.8309  15.0326  15.0326  15.3096  15.3097
    15.3591  15.3591  15.4361  15.4362  15.5924  15.5925  15.6163  15.6164
    15.6944  15.6944  16.1251  16.1252  16.2334  16.2335  16.2794  16.2794
    16.3055  16.3056  16.4254  16.4255  16.7068  16.7068  16.8198  16.8199
    16.9141  16.9142  16.9164  16.9164  16.9240  16.9240  16.9653  16.9653
    17.1275  17.1276  17.1337  17.1338  17.3212  17.3212  17.8595  17.8595
    18.5296  18.5296  18.6016  18.6016  18.6389  18.6390  18.6441  18.6442
    18.7492  18.7492  18.7717  18.7717  18.8049  18.8050  18.8489  18.8490
    18.8856  18.8857  18.8963  18.8964  18.9955  18.9957  19.0167  19.0168
    19.0883  19.0884  19.3201  19.3201  19.3352  19.3352  19.5210  19.5210
    20.1163  20.1163  20.1470  20.1470  20.9429  20.9430  21.9332  21.9332
    23.3011  23.3011

          k = 0.1686-0.5058-0.5058 ( 11648 PWs)   bands (ev):

   -68.2505 -68.2504 -68.2504 -68.2501 -68.2124 -68.2123 -68.2123 -68.2120
   -68.1890 -68.1889 -68.1889 -68.1886 -68.1634 -68.1633 -68.1633 -68.1630
   -34.4715 -34.4715 -34.4714 -34.4714 -34.4591 -34.4590 -34.4590 -34.4589
   -34.4421 -34.4420 -34.4420 -34.4419 -34.3295 -34.3294 -34.3294 -34.3292
   -34.3098 -34.3098 -34.3098 -34.3098 -34.3083 -34.3083 -34.3082 -34.3082
   -34.2023 -34.2023 -34.2022 -34.2022 -34.1949 -34.1948 -34.1948 -34.1948
   -34.1171 -34.1170 -34.1170 -34.1168 -34.0975 -34.0974 -34.0974 -34.0974
   -34.0866 -34.0865 -34.0865 -34.0865 -34.0422 -34.0422 -34.0422 -34.0422
    13.4152  13.4152  13.4152  13.4152  15.2849  15.2849  15.2849  15.2849
    15.3490  15.3490  15.3490  15.3490  15.7567  15.7567  15.7567  15.7567
    15.8518  15.8518  15.8518  15.8519  16.1763  16.1763  16.1763  16.1764
    16.3505  16.3505  16.3505  16.3505  16.7900  16.7900  16.7900  16.7902
    16.7935  16.7935  16.7936  16.7936  16.9044  16.9045  16.9045  16.9045
    17.1075  17.1075  17.1075  17.1076  17.5641  17.5642  17.5642  17.5642
    18.6062  18.6062  18.6062  18.6063  18.7203  18.7204  18.7204  18.7205
    18.8037  18.8038  18.8038  18.8039  18.8291  18.8292  18.8292  18.8293
    18.8369  18.8369  18.8369  18.8370  19.0482  19.0482  19.0483  19.0483
    19.0512  19.0512  19.0512  19.0513  19.3932  19.3932  19.3933  19.3933
    20.1597  20.1597  20.1598  20.1598  21.4328  21.4328  21.4328  21.4329
    23.8402  23.8402

          k = 0.2810 0.2810 0.2810 ( 11596 PWs)   bands (ev):

   -68.2777 -68.2373 -68.2373 -68.2372 -68.2159 -68.2159 -68.2158 -68.2035
   -68.1898 -68.1867 -68.1867 -68.1866 -68.1748 -68.1748 -68.1747 -68.1434
   -34.5034 -34.5034 -34.5034 -34.4583 -34.4583 -34.4583 -34.4446 -34.4446
   -34.4446 -34.4431 -34.4114 -34.4114 -34.3809 -34.3809 -34.3328 -34.3327
   -34.3327 -34.3124 -34.3124 -34.3124 -34.2870 -34.2764 -34.2764 -34.2764
   -34.1810 -34.1807 -34.1807 -34.1807 -34.1794 -34.1794 -34.1794 -34.1731
   -34.1731 -34.1448 -34.1447 -34.1447 -34.1103 -34.0959 -34.0959 -34.0959
   -34.0732 -34.0732 -34.0732 -34.0573 -34.0572 -34.0572 -34.0525 -34.0525
    12.1268  13.9855  13.9855  13.9855  14.7517  14.7517  14.7517  15.0931
    15.0931  15.2259  15.2259  15.2259  15.6062  15.6062  15.6062  15.8232
    15.8232  15.8232  15.8487  16.2291  16.2291  16.2655  16.3842  16.3842
    16.3842  16.5719  16.5719  16.5719  16.5870  16.5870  16.8157  16.8157
    16.8157  17.0498  17.0498  17.0499  17.0882  17.0882  17.0882  17.1606
    17.1606  17.4356  17.4356  17.4356  17.5038  17.5038  17.5039  18.2846
    18.3079  18.3079  18.3079  18.4990  18.6789  18.6789  18.7029  18.7029
    18.7029  18.7285  18.7285  18.7285  18.7974  18.7974  18.7974  18.9262
    18.9263  18.9263  18.9476  18.9476  19.0463  19.0463  19.0463  19.0692
    19.0692  19.4042  19.4042  19.4042  19.7659  19.7659  19.7659  19.8438
    19.8438  19.8438  19.8584  19.8584  20.7517  20.7517  20.7517  23.1117
    23.2417  23.2417

          k = 0.2810 0.2810 0.3934 ( 11633 PWs)   bands (ev):

   -68.2702 -68.2496 -68.2333 -68.2332 -68.2223 -68.2222 -68.2134 -68.2070
   -68.1885 -68.1870 -68.1826 -68.1825 -68.1766 -68.1766 -68.1646 -68.1488
   -34.4911 -34.4911 -34.4812 -34.4581 -34.4581 -34.4549 -34.4473 -34.4450
   -34.4294 -34.4294 -34.4276 -34.4188 -34.3937 -34.3637 -34.3637 -34.3565
   -34.3431 -34.3146 -34.3146 -34.3024 -34.2947 -34.2942 -34.2942 -34.2601
   -34.2164 -34.2059 -34.1829 -34.1798 -34.1672 -34.1672 -34.1549 -34.1549
   -34.1492 -34.1492 -34.1367 -34.1157 -34.1127 -34.1127 -34.1016 -34.0945
   -34.0781 -34.0691 -34.0671 -34.0670 -34.0614 -34.0583 -34.0582 -34.0507
    12.4857  13.4494  14.2149  14.2149  14.6295  14.6295  15.0613  15.2279
    15.2614  15.3646  15.3646  15.4556  15.5705  15.6015  15.6068  15.6069
    15.8362  15.8519  15.9973  15.9973  16.2485  16.3358  16.3978  16.4396
    16.4714  16.4714  16.4866  16.6114  16.6114  16.7006  16.7007  16.7307
    16.8388  16.8388  16.9318  16.9555  16.9556  16.9942  16.9981  17.0610
    17.1007  17.1323  17.1858  17.1858  17.1892  17.1892  17.5949  18.1561
    18.3909  18.4536  18.4536  18.5123  18.5934  18.6972  18.6972  18.7240
    18.7240  18.7473  18.7474  18.7642  18.8237  18.8274  18.9071  18.9329
    18.9368  18.9443  18.9452  18.9452  18.9874  19.0240  19.0405  19.0405
    19.0739  19.1728  19.5584  19.5791  19.6983  19.6984  19.7905  19.7905
    19.8738  19.8739  19.8776  19.9333  20.3815  20.3815  21.3103  22.4897
    23.5905  23.5905

          k = 0.2810 0.2810-0.5058 ( 11634 PWs)   bands (ev):

   -68.2607 -68.2605 -68.2282 -68.2282 -68.2281 -68.2280 -68.2105 -68.2103
   -68.1877 -68.1875 -68.1793 -68.1793 -68.1792 -68.1791 -68.1560 -68.1558
   -34.4750 -34.4750 -34.4750 -34.4749 -34.4527 -34.4526 -34.4510 -34.4509
   -34.4392 -34.4392 -34.3969 -34.3969 -34.3968 -34.3968 -34.3706 -34.3704
   -34.3298 -34.3297 -34.3077 -34.3077 -34.3076 -34.3076 -34.2548 -34.2548
   -34.2334 -34.2333 -34.1831 -34.1830 -34.1568 -34.1568 -34.1567 -34.1566
   -34.1326 -34.1326 -34.1326 -34.1325 -34.1046 -34.1045 -34.0963 -34.0962
   -34.0904 -34.0902 -34.0616 -34.0616 -34.0616 -34.0616 -34.0537 -34.0537
    12.9362  12.9362  14.4457  14.4457  14.4457  14.4457  15.4000  15.4000
    15.4364  15.4365  15.4394  15.4395  15.4997  15.4997  15.4997  15.4997
    15.6939  15.6940  16.2872  16.2873  16.3072  16.3072  16.3072  16.3073
    16.3509  16.3510  16.5850  16.5850  16.5850  16.5850  16.7867  16.7868
    16.8715  16.8715  16.9726  16.9726  16.9727  16.9727  16.9848  16.9848
    16.9849  16.9849  17.0030  17.0030  17.0249  17.0250  17.8438  17.8439
    18.4926  18.4927  18.6013  18.6013  18.6013  18.6014  18.7197  18.7197
    18.7198  18.7198  18.7565  18.7565  18.8636  18.8637  18.8693  18.8694
    18.9394  18.9395  18.9401  18.9402  18.9966  18.9967  18.9967  18.9967
    19.2784  19.2786  19.3327  19.3328  19.8436  19.8436  19.8436  19.8436
    19.9371  19.9371  20.0328  20.0328  20.0328  20.0328  21.8922  21.8923
    23.8899  23.8899

          k = 0.2810 0.3934 0.3934 ( 11600 PWs)   bands (ev):

   -68.2632 -68.2444 -68.2444 -68.2304 -68.2294 -68.2193 -68.2192 -68.2114
   -68.1863 -68.1834 -68.1833 -68.1782 -68.1766 -68.1676 -68.1675 -68.1536
   -34.4820 -34.4710 -34.4710 -34.4570 -34.4548 -34.4548 -34.4431 -34.4331
   -34.4329 -34.4329 -34.4230 -34.3973 -34.3902 -34.3847 -34.3649 -34.3447
   -34.3447 -34.3285 -34.3274 -34.3274 -34.3209 -34.3209 -34.3170 -34.2510
   -34.2329 -34.1794 -34.1794 -34.1672 -34.1672 -34.1665 -34.1513 -34.1473
   -34.1355 -34.1324 -34.1238 -34.1208 -34.1208 -34.1047 -34.1046 -34.0990
   -34.0774 -34.0765 -34.0765 -34.0703 -34.0589 -34.0589 -34.0560 -34.0535
    12.8303  13.7332  13.7332  14.3693  14.4732  14.9442  14.9442  15.3450
    15.4357  15.4653  15.5739  15.5739  15.5989  15.5990  15.6812  15.8192
    15.8313  15.8313  15.9118  15.9445  16.3023  16.3405  16.4111  16.4111
    16.4153  16.4414  16.4414  16.4436  16.5442  16.5922  16.6418  16.7669
    16.7669  16.7868  16.7868  16.8258  16.8408  16.8801  16.8801  16.9200
    16.9200  16.9513  16.9814  17.0097  17.0186  17.2967  17.2967  17.8149
    18.5142  18.5142  18.5493  18.6307  18.7127  18.7534  18.7600  18.7600
    18.7602  18.7705  18.8502  18.8503  18.8534  18.8672  18.8788  18.9303
    18.9303  18.9353  18.9417  18.9417  18.9648  18.9648  19.0127  19.0449
    19.2283  19.3496  19.3497  19.4661  19.6025  19.6025  19.6702  19.8791
    19.8792  19.8981  19.9238  20.0132  20.0706  20.8737  20.8737  21.9255
    24.0192  24.6439

          k = 0.2810 0.3934-0.5058 ( 11604 PWs)   bands (ev):

   -68.2546 -68.2544 -68.2380 -68.2378 -68.2247 -68.2245 -68.2157 -68.2155
   -68.1847 -68.1845 -68.1806 -68.1804 -68.1716 -68.1715 -68.1600 -68.1598
   -34.4687 -34.4687 -34.4616 -34.4615 -34.4465 -34.4464 -34.4456 -34.4456
   -34.4379 -34.4378 -34.4087 -34.4086 -34.3709 -34.3707 -34.3627 -34.3627
   -34.3468 -34.3468 -34.3347 -34.3346 -34.3309 -34.3308 -34.2889 -34.2889
   -34.2059 -34.2058 -34.1663 -34.1662 -34.1569 -34.1568 -34.1548 -34.1548
   -34.1318 -34.1317 -34.1184 -34.1184 -34.0999 -34.0998 -34.0997 -34.0996
   -34.0964 -34.0963 -34.0738 -34.0738 -34.0566 -34.0566 -34.0546 -34.0546
    13.2571  13.2571  14.0562  14.0562  14.7386  14.7386  15.3186  15.3186
    15.4667  15.4667  15.5357  15.5357  15.6401  15.6401  15.7433  15.7433
    15.8367  15.8367  16.1289  16.1290  16.1929  16.1930  16.3050  16.3050
    16.3506  16.3507  16.5002  16.5003  16.6036  16.6036  16.6505  16.6505
    16.6941  16.6942  16.7724  16.7725  16.8167  16.8167  16.8597  16.8598
    16.9171  16.9172  16.9526  16.9527  17.0384  17.0384  17.5157  17.5158
    18.5847  18.5847  18.6341  18.6341  18.6597  18.6598  18.8121  18.8122
    18.8276  18.8278  18.8631  18.8632  18.8750  18.8750  18.8896  18.8897
    18.9381  18.9382  18.9761  18.9762  18.9771  18.9772  19.0473  19.0474
    19.2180  19.2181  19.3785  19.3786  19.6203  19.6203  19.6734  19.6734
    19.9116  19.9116  19.9143  19.9144  20.4645  20.4646  21.3904  21.3905
    24.4220  24.4220

          k = 0.2810-0.5058-0.5058 ( 11608 PWs)   bands (ev):

   -68.2470 -68.2469 -68.2469 -68.2466 -68.2206 -68.2204 -68.2204 -68.2202
   -68.1824 -68.1822 -68.1822 -68.1820 -68.1652 -68.1651 -68.1651 -68.1648
   -34.4576 -34.4576 -34.4576 -34.4576 -34.4498 -34.4497 -34.4497 -34.4496
   -34.4230 -34.4229 -34.4229 -34.4228 -34.3571 -34.3570 -34.3570 -34.3569
   -34.3467 -34.3467 -34.3467 -34.3467 -34.3259 -34.3259 -34.3258 -34.3258
   -34.1794 -34.1794 -34.1794 -34.1794 -34.1590 -34.1590 -34.1589 -34.1589
   -34.1113 -34.1112 -34.1112 -34.1110 -34.1073 -34.1072 -34.1072 -34.1072
   -34.0881 -34.0880 -34.0880 -34.0879 -34.0549 -34.0548 -34.0548 -34.0548
    13.6439  13.6439  13.6439  13.6439  15.0595  15.0595  15.0595  15.0595
    15.5161  15.5161  15.5161  15.5162  15.8881  15.8881  15.8881  15.8882
    15.9477  15.9477  15.9477  15.9477  16.1189  16.1189  16.1189  16.1190
    16.4211  16.4211  16.4211  16.4211  16.6155  16.6156  16.6156  16.6157
    16.7083  16.7083  16.7083  16.7084  16.7385  16.7385  16.7385  16.7385
    16.9108  16.9108  16.9108  16.9109  17.2341  17.2342  17.2342  17.2342
    18.6466  18.6466  18.6466  18.6467  18.7363  18.7364  18.7364  18.7365
    18.8207  18.8208  18.8208  18.8209  18.9566  18.9567  18.9567  18.9568
    18.9678  18.9679  18.9679  18.9679  19.0457  19.0457  19.0457  19.0459
    19.3507  19.3508  19.3508  19.3508  19.4579  19.4580  19.4580  19.4580
    19.9280  19.9280  19.9281  19.9281  20.9187  20.9187  20.9187  20.9187
    24.9611  24.9611

          k = 0.3934 0.3934 0.3934 ( 11590 PWs)   bands (ev):

   -68.2569 -68.2396 -68.2396 -68.2395 -68.2267 -68.2267 -68.2266 -68.2170
   -68.1828 -68.1781 -68.1781 -68.1780 -68.1702 -68.1702 -68.1701 -68.1577
   -34.4608 -34.4607 -34.4607 -34.4488 -34.4488 -34.4487 -34.4322 -34.4140
   -34.4140 -34.4074 -34.4074 -34.4074 -34.4011 -34.4011 -34.3611 -34.3610
   -34.3610 -34.3524 -34.3523 -34.3523 -34.3460 -34.3460 -34.3459 -34.2828
   -34.2057 -34.1569 -34.1569 -34.1569 -34.1437 -34.1437 -34.1436 -34.1317
   -34.1317 -34.1206 -34.1206 -34.1206 -34.1191 -34.1190 -34.1190 -34.1015
   -34.0757 -34.0756 -34.0756 -34.0708 -34.0708 -34.0672 -34.0672 -34.0671
    13.1667  14.0306  14.0306  14.0306  14.6935  14.6935  14.6935  15.4597
    15.5342  15.5342  15.7092  15.7092  15.7092  15.7963  15.7963  15.7963
    15.8476  15.8476  15.8476  16.0612  16.3518  16.3518  16.3779  16.3779
    16.4309  16.4309  16.4309  16.4816  16.4816  16.4816  16.5849  16.5849
    16.5849  16.6944  16.6945  16.6945  16.7344  16.7344  16.7344  16.7659
    16.7659  16.7660  16.8778  16.8778  17.0036  17.0037  17.0037  17.4734
    18.6000  18.6000  18.6000  18.7104  18.7104  18.7556  18.7556  18.7556
    18.8733  18.8733  18.8798  18.8798  18.8798  18.9060  18.9060  18.9060
    18.9469  18.9469  18.9469  19.0564  19.0764  19.0764  19.0764  19.1925
    19.1925  19.6249  19.6249  19.6464  19.6464  19.6464  19.6951  19.6951
    19.6951  19.7241  19.7241  19.7242  20.4515  20.4515  20.4515  21.4037
    25.2986  25.2986

          k = 0.3934 0.3934-0.5058 ( 11620 PWs)   bands (ev):

   -68.2490 -68.2488 -68.2337 -68.2337 -68.2336 -68.2335 -68.2222 -68.2220
   -68.1803 -68.1801 -68.1738 -68.1737 -68.1736 -68.1735 -68.1635 -68.1633
   -34.4509 -34.4509 -34.4509 -34.4509 -34.4343 -34.4343 -34.4336 -34.4334
   -34.4197 -34.4196 -34.3903 -34.3901 -34.3800 -34.3800 -34.3799 -34.3799
   -34.3752 -34.3751 -34.3616 -34.3615 -34.3615 -34.3614 -34.3177 -34.3177
   -34.1807 -34.1806 -34.1385 -34.1384 -34.1365 -34.1365 -34.1364 -34.1364
   -34.1276 -34.1276 -34.1275 -34.1275 -34.1084 -34.1083 -34.1011 -34.1009
   -34.0936 -34.0935 -34.0735 -34.0734 -34.0734 -34.0734 -34.0674 -34.0674
    13.5790  13.5790  14.3701  14.3701  14.3701  14.3701  15.0800  15.0800
    15.6565  15.6565  15.7264  15.7264  15.7824  15.7824  15.7824  15.7824
    15.9849  15.9849  16.1240  16.1240  16.1240  16.1241  16.3578  16.3579
    16.4091  16.4091  16.4144  16.4145  16.4962  16.4962  16.5785  16.5785
    16.5785  16.5786  16.7001  16.7001  16.7002  16.7002  16.7556  16.7556
    16.7557  16.7557  16.7863  16.7863  16.7904  16.7906  17.1834  17.1835
    18.6571  18.6571  18.6919  18.6919  18.6919  18.6919  18.8042  18.8044
    18.8117  18.8119  18.8780  18.8780  18.8798  18.8798  18.8798  18.8799
    19.0505  19.0505  19.0505  19.0506  19.0963  19.0964  19.3403  19.3405
    19.3635  19.3635  19.3949  19.3950  19.6614  19.6614  19.6614  19.6614
    19.7108  19.7109  20.0637  20.0637  20.0637  20.0637  20.9170  20.9171
    25.6231  25.6231

          k = 0.3934-0.5058-0.5058 ( 11592 PWs)   bands (ev):

   -68.2420 -68.2418 -68.2418 -68.2416 -68.2284 -68.2283 -68.2283 -68.2280
   -68.1767 -68.1766 -68.1766 -68.1763 -68.1681 -68.1680 -68.1680 -68.1677
   -34.4375 -34.4375 -34.4375 -34.4375 -34.4337 -34.4336 -34.4336 -34.4335
   -34.3996 -34.3995 -34.3995 -34.3994 -34.3855 -34.3854 -34.3854 -34.3853
   -34.3812 -34.3812 -34.3812 -34.3812 -34.3489 -34.3488 -34.3488 -34.3488
   -34.1573 -34.1572 -34.1572 -34.1572 -34.1262 -34.1261 -34.1261 -34.1261
   -34.1210 -34.1209 -34.1209 -34.1209 -34.1040 -34.1039 -34.1039 -34.1037
   -34.0918 -34.0917 -34.0917 -34.0916 -34.0732 -34.0732 -34.0731 -34.0731
    13.9651  13.9651  13.9651  13.9651  14.7344  14.7344  14.7344  14.7344
    15.7452  15.7452  15.7452  15.7452  15.9379  15.9380  15.9380  15.9380
    16.0582  16.0582  16.0582  16.0583  16.1080  16.1080  16.1080  16.1081
    16.4999  16.4999  16.4999  16.4999  16.5179  16.5179  16.5179  16.5180
    16.5380  16.5381  16.5381  16.5382  16.6659  16.6659  16.6659  16.6659
    16.7210  16.7210  16.7210  16.7211  16.9047  16.9048  16.9048  16.9048
    18.7092  18.7092  18.7092  18.7093  18.7606  18.7607  18.7607  18.7608
    18.8062  18.8063  18.8063  18.8064  18.8692  18.8693  18.8693  18.8694
    19.1532  19.1533  19.1533  19.1533  19.2477  19.2477  19.2477  19.2478
    19.4587  19.4587  19.4587  19.4588  19.6562  19.6562  19.6563  19.6563
    19.7028  19.7028  19.7028  19.7028  20.4797  20.4797  20.4797  20.4798
    26.1760  26.1760

          k =-0.5058-0.5058-0.5058 ( 11656 PWs)   bands (ev):

   -68.2358 -68.2357 -68.2357 -68.2357 -68.2355 -68.2355 -68.2355 -68.2352
   -68.1720 -68.1719 -68.1719 -68.1719 -68.1717 -68.1717 -68.1717 -68.1713
   -34.4119 -34.4119 -34.4119 -34.4119 -34.4119 -34.4119 -34.4118 -34.4118
   -34.4117 -34.4117 -34.4117 -34.4117 -34.4117 -34.4115 -34.4115 -34.4115
   -34.3745 -34.3744 -34.3744 -34.3744 -34.3744 -34.3743 -34.3743 -34.3743
   -34.1377 -34.1376 -34.1376 -34.1376 -34.1375 -34.1375 -34.1375 -34.1375
   -34.0976 -34.0976 -34.0976 -34.0976 -34.0976 -34.0976 -34.0976 -34.0976
   -34.0974 -34.0974 -34.0974 -34.0974 -34.0974 -34.0973 -34.0973 -34.0973
    14.3464  14.3464  14.3464  14.3464  14.3464  14.3464  14.3464  14.3464
    15.9964  15.9964  15.9964  15.9964  15.9964  15.9964  15.9964  15.9964
    15.9964  15.9964  15.9964  15.9964  15.9964  15.9964  15.9965  15.9965
    16.5833  16.5833  16.5833  16.5833  16.5833  16.5833  16.5833  16.5833
    16.5834  16.5834  16.5834  16.5834  16.5834  16.5835  16.5835  16.5835
    16.6175  16.6175  16.6175  16.6175  16.6176  16.6176  16.6176  16.6176
    18.7853  18.7853  18.7853  18.7853  18.7853  18.7854  18.7854  18.7854
    18.7854  18.7854  18.7854  18.7855  18.7855  18.7855  18.7856  18.7856
    19.3882  19.3882  19.3882  19.3882  19.3882  19.3882  19.3882  19.3882
    19.3883  19.3883  19.3883  19.3883  19.3883  19.3885  19.3885  19.3885
    20.0796  20.0797  20.0797  20.0797  20.0797  20.0797  20.0797  20.0797
    27.3530  27.3530

 ------ SPIN DOWN ----------


          k = 0.0562 0.0562 0.0562 ( 11597 PWs)   bands (ev):

   -65.8612 -65.7665 -65.7664 -65.7664 -65.7511 -65.7510 -65.7510 -65.7497
   -65.7497 -65.7497 -65.7495 -65.7495 -65.7494 -65.7428 -65.7422 -65.6693
   -32.1988 -32.1988 -32.1988 -32.1958 -32.1958 -32.1958 -32.0341 -32.0341
   -32.0272 -31.9590 -31.9560 -31.9559 -31.9559 -31.9346 -31.9346 -31.9212
   -31.9212 -31.9212 -31.8852 -31.8852 -31.8602 -31.8442 -31.8442 -31.8441
   -31.8329 -31.8329 -31.8329 -31.8201 -31.8201 -31.8201 -31.8169 -31.8169
   -31.8169 -31.8087 -31.8087 -31.8087 -31.7983 -31.7983 -31.7983 -31.6367
   -31.6364 -31.6364 -31.6364 -31.6330 -31.6330 -31.6329 -31.6301 -31.6301
    11.1244  15.1320  15.1320  15.1320  15.6943  15.6943  15.6943  15.7326
    15.7326  15.7326  15.7646  15.7646  15.7646  16.3348  16.3348  17.4867
    17.5671  17.5671  17.6767  17.6767  17.6978  17.7421  17.7421  17.7421
    17.7556  17.7557  17.7557  18.5003  18.5003  18.5003  18.9041  18.9041
    18.9042  19.1283  19.1283  19.1771  19.4065  19.4065  19.4065  19.5551
    19.5551  19.5551  19.5985  19.5985  19.5985  19.7079  19.7079  19.7079
    20.1959  20.1959  20.1959  20.2503  20.2503  20.2503  20.5201  20.5201
    20.5201  20.7773  20.7773  20.7773  21.2647  21.2647  21.2647  21.2912
    21.2912  21.2912  21.4577  21.4577  21.7494  21.7494  21.7494  21.7979
    21.7979  21.7988  21.7988  21.9035  21.9035  21.9035  22.0038  22.0893
    22.0893  22.3577  22.3577  22.3578  22.4725  22.4725  22.4725  22.5206
    22.5206  22.5206

          k = 0.0562 0.0562 0.1686 ( 11576 PWs)   bands (ev):

   -65.8581 -65.7836 -65.7658 -65.7658 -65.7528 -65.7528 -65.7505 -65.7495
   -65.7495 -65.7489 -65.7485 -65.7484 -65.7431 -65.7424 -65.7335 -65.6717
   -32.1907 -32.1907 -32.1896 -32.1870 -32.1819 -32.1819 -32.0371 -32.0274
   -32.0173 -31.9951 -31.9866 -31.9866 -31.9845 -31.9836 -31.9532 -31.9532
   -31.9182 -31.8910 -31.8818 -31.8792 -31.8673 -31.8439 -31.8439 -31.8363
   -31.8255 -31.8236 -31.8235 -31.8224 -31.8220 -31.8142 -31.8142 -31.8094
   -31.8093 -31.8054 -31.8054 -31.7746 -31.7719 -31.7718 -31.7647 -31.6529
   -31.6452 -31.6451 -31.6438 -31.6412 -31.6363 -31.6359 -31.6359 -31.6330
    11.2604  14.4267  15.2007  15.2007  15.6759  15.6759  15.7941  15.7941
    15.7954  15.8198  15.8198  15.8321  16.2570  16.3882  16.4039  17.3875
    17.4764  17.5097  17.5948  17.7179  17.7303  17.7940  17.7940  17.8170
    17.8348  17.8348  17.8433  18.0823  18.4043  18.4044  18.7233  18.7234
    19.1000  19.1203  19.1520  19.1919  19.1919  19.2398  19.2610  19.3721
    19.3721  19.6093  19.8076  19.8076  19.8158  19.8158  19.8368  19.8701
    19.8701  19.9044  19.9045  19.9167  19.9375  19.9424  20.2691  20.7523
    20.7523  21.0041  21.0041  21.0329  21.1816  21.1816  21.2541  21.2541
    21.2921  21.3146  21.3751  21.4894  21.7527  21.7577  21.7604  21.7944
    21.7968  21.8124  21.8227  21.8476  21.8476  21.9346  22.0824  22.1449
    22.1627  22.1627  22.3565  22.3565  22.3814  22.3814  22.5632  22.5633
    22.7089  22.7089

          k = 0.0562 0.0562 0.2810 ( 11595 PWs)   bands (ev):

   -65.8516 -65.8002 -65.7645 -65.7644 -65.7551 -65.7551 -65.7495 -65.7491
   -65.7491 -65.7480 -65.7480 -65.7479 -65.7441 -65.7433 -65.7187 -65.6766
   -32.1726 -32.1725 -32.1720 -32.1701 -32.1582 -32.1582 -32.0380 -32.0365
   -32.0308 -32.0281 -32.0281 -32.0144 -32.0066 -32.0030 -31.9968 -31.9968
   -31.9131 -31.9037 -31.9008 -31.8862 -31.8420 -31.8420 -31.8383 -31.8366
   -31.8319 -31.8274 -31.8274 -31.8123 -31.8122 -31.8096 -31.8096 -31.7903
   -31.7826 -31.7707 -31.7707 -31.7420 -31.7393 -31.7393 -31.7329 -31.6775
   -31.6601 -31.6601 -31.6589 -31.6570 -31.6482 -31.6452 -31.6452 -31.6428
    11.5290  13.7114  15.3200  15.3200  15.6639  15.6639  15.8717  15.8717
    15.9051  15.9052  15.9894  16.0230  16.4822  16.5408  16.5645  17.2088
    17.2357  17.4959  17.5272  17.6741  17.6839  17.6841  17.9093  17.9093
    17.9769  17.9769  18.0387  18.0697  18.3169  18.3169  18.5704  18.5704
    18.8984  18.8985  19.0593  19.0593  19.0786  19.1088  19.1541  19.1603
    19.3343  19.3355  19.3355  19.4185  19.4185  19.5081  19.5126  19.9427
    20.0318  20.1195  20.1195  20.1208  20.1294  20.1294  20.2338  21.0466
    21.0466  21.0657  21.0658  21.1489  21.1489  21.2128  21.2791  21.3075
    21.3075  21.3441  21.3626  21.5251  21.5514  21.6591  21.6858  21.6907
    21.7588  21.7857  21.7882  21.7917  21.9770  21.9770  21.9889  22.0077
    22.2144  22.2144  22.2682  22.2682  22.3514  22.3514  22.6913  22.6914
    22.7573  22.7573

          k = 0.0562 0.0562 0.3934 ( 11572 PWs)   bands (ev):

   -65.8421 -65.8157 -65.7625 -65.7625 -65.7576 -65.7576 -65.7487 -65.7486
   -65.7482 -65.7479 -65.7479 -65.7469 -65.7454 -65.7444 -65.7052 -65.6839
   -32.1462 -32.1454 -32.1454 -32.1452 -32.1261 -32.1261 -32.0769 -32.0745
   -32.0707 -32.0707 -32.0428 -32.0428 -32.0361 -32.0218 -31.9959 -31.9836
   -31.9445 -31.9320 -31.8869 -31.8748 -31.8519 -31.8456 -31.8389 -31.8389
   -31.8314 -31.8314 -31.8107 -31.8107 -31.8097 -31.8097 -31.7928 -31.7483
   -31.7440 -31.7367 -31.7367 -31.7123 -31.7105 -31.7083 -31.7083 -31.7040
   -31.6809 -31.6807 -31.6807 -31.6806 -31.6649 -31.6606 -31.6606 -31.6584
    11.9228  13.0345  15.4559  15.4559  15.6360  15.6360  15.9471  15.9471
    15.9756  15.9756  16.2601  16.2882  16.5926  16.6903  16.7425  16.9216
    16.9254  17.3211  17.5172  17.5293  17.6185  17.6264  18.0830  18.0830
    18.1756  18.1756  18.3263  18.3328  18.3328  18.3563  18.5021  18.5021
    18.6336  18.6337  18.7443  18.7443  18.8839  18.8839  18.9814  18.9814
    19.0669  19.0731  19.0917  19.0997  19.1002  19.1199  19.4624  19.8146
    20.3233  20.3878  20.3878  20.4481  20.4493  20.4493  20.5708  20.8649
[...]
   -31.6727 -31.6726 -31.6726 -31.6555 -31.6555 -31.6555 -31.6500 -31.6500
    12.3017  14.3014  14.3014  14.3014  15.5123  15.5123  15.5123  16.5337
    16.5337  16.5337  16.8444  16.8444  16.8796  16.8796  16.8796  16.9756
    17.1573  17.6152  17.6152  17.6386  17.6386  17.6386  17.8792  17.8792
    17.8793  17.8955  17.8955  18.0788  18.0788  18.0788  18.4931  18.4931
    18.4931  18.5713  18.5714  18.5714  18.5753  18.5753  18.5753  18.6045
    18.6046  18.6046  18.7952  18.7952  19.0395  19.0395  19.0395  20.0144
    20.1353  20.5775  20.5775  20.5776  20.6481  20.6481  20.6482  20.9429
    20.9429  20.9429  21.0399  21.0399  21.0399  21.2688  21.2688  21.2688
    21.3401  21.3401  21.5746  21.5746  21.6493  21.6493  21.6749  21.6749
    21.6750  21.7300  21.7301  21.7301  21.7414  21.7414  21.8742  21.8742
    21.8742  21.9509  21.9509  21.9509  22.4334  22.4334  22.4334  24.5150
    24.6481  24.6481

          k = 0.2810 0.2810 0.3934 ( 11633 PWs)   bands (ev):

   -65.8260 -65.8037 -65.7861 -65.7860 -65.7742 -65.7742 -65.7647 -65.7577
   -65.7377 -65.7362 -65.7314 -65.7314 -65.7250 -65.7250 -65.7120 -65.6951
   -32.1312 -32.1311 -32.1205 -32.0947 -32.0947 -32.0920 -32.0835 -32.0799
   -32.0641 -32.0641 -32.0602 -32.0518 -32.0227 -31.9920 -31.9920 -31.9833
   -31.9673 -31.9363 -31.9363 -31.9233 -31.9163 -31.9140 -31.9140 -31.8763
   -31.8302 -31.8172 -31.7923 -31.7895 -31.7750 -31.7750 -31.7617 -31.7617
   -31.7554 -31.7554 -31.7424 -31.7188 -31.7157 -31.7157 -31.7036 -31.6957
   -31.6783 -31.6681 -31.6660 -31.6660 -31.6598 -31.6565 -31.6565 -31.6480
    12.6702  13.6932  14.5743  14.5743  15.2173  15.2173  15.8254  16.6149
    16.7209  16.7209  16.7611  16.9458  16.9458  16.9717  16.9952  17.0507
    17.1414  17.4048  17.6645  17.6929  17.6929  17.7571  17.7890  17.8083
    17.9243  17.9844  17.9844  18.0590  18.1455  18.1455  18.2912  18.3097
    18.3097  18.3715  18.3715  18.4179  18.4567  18.4568  18.4616  18.4616
    18.5541  18.5820  18.6747  18.7337  18.7705  18.7705  19.1786  19.7496
    20.2525  20.6784  20.6784  20.7757  20.8145  20.8397  20.8397  20.8406
    20.8412  20.8412  21.1099  21.1902  21.1902  21.2031  21.3485  21.3539
    21.3539  21.4285  21.4399  21.4495  21.5516  21.6006  21.6597  21.6597
    21.6634  21.6748  21.7130  21.7785  21.7876  21.7876  21.8140  21.8391
    21.8453  21.8453  21.9324  21.9324  22.1169  22.1169  22.9225  23.9737
    24.9542  24.9542

          k = 0.2810 0.2810-0.5058 ( 11634 PWs)   bands (ev):

   -65.8157 -65.8156 -65.7806 -65.7806 -65.7804 -65.7804 -65.7614 -65.7612
   -65.7369 -65.7367 -65.7280 -65.7279 -65.7277 -65.7277 -65.7028 -65.7026
   -32.1133 -32.1133 -32.1133 -32.1133 -32.0892 -32.0890 -32.0876 -32.0875
   -32.0732 -32.0731 -32.0284 -32.0284 -32.0284 -32.0283 -31.9974 -31.9972
   -31.9537 -31.9536 -31.9288 -31.9288 -31.9286 -31.9286 -31.8724 -31.8724
   -31.8472 -31.8472 -31.7928 -31.7927 -31.7636 -31.7636 -31.7635 -31.7635
   -31.7373 -31.7373 -31.7373 -31.7372 -31.7074 -31.7072 -31.6977 -31.6976
   -31.6913 -31.6910 -31.6601 -31.6601 -31.6601 -31.6601 -31.6514 -31.6513
    13.1406  13.1406  14.8925  14.8925  14.8925  14.8925  16.2061  16.2062
    16.8778  16.8778  16.8778  16.8778  16.9937  16.9938  17.0635  17.0635
    17.1856  17.1857  17.7327  17.7329  17.8034  17.8035  17.8983  17.8984
    17.8985  17.8985  17.9982  17.9982  18.1311  18.1312  18.1312  18.1312
    18.2390  18.2390  18.4136  18.4136  18.4138  18.4138  18.5287  18.5287
    18.5287  18.5287  18.5905  18.5905  18.6616  18.6618  19.4175  19.4175
    20.5087  20.5087  20.7549  20.7549  20.7549  20.7549  21.0321  21.0323
    21.0340  21.0340  21.0340  21.0340  21.1071  21.1073  21.2812  21.2813
    21.4463  21.4464  21.5757  21.5758  21.6055  21.6055  21.6056  21.6056
    21.6642  21.6642  21.6716  21.6718  21.8579  21.8580  21.8691  21.8691
    21.8691  21.8692  21.8799  21.8799  21.8799  21.8800  23.4430  23.4431
    25.1919  25.1919

          k = 0.2810 0.3934 0.3934 ( 11600 PWs)   bands (ev):

   -65.8184 -65.7981 -65.7981 -65.7829 -65.7819 -65.7709 -65.7709 -65.7625
   -65.7353 -65.7323 -65.7323 -65.7268 -65.7250 -65.7152 -65.7152 -65.7002
   -32.1209 -32.1091 -32.1091 -32.0935 -32.0907 -32.0907 -32.0789 -32.0678
   -32.0678 -32.0663 -32.0564 -32.0289 -32.0190 -32.0150 -31.9924 -31.9692
   -31.9692 -31.9522 -31.9521 -31.9517 -31.9436 -31.9436 -31.9389 -31.8681
   -31.8466 -31.7883 -31.7883 -31.7752 -31.7752 -31.7750 -31.7579 -31.7532
   -31.7404 -31.7372 -31.7282 -31.7244 -31.7244 -31.7068 -31.7068 -31.7006
   -31.6771 -31.6765 -31.6764 -31.6696 -31.6571 -31.6571 -31.6540 -31.6512
    13.0264  14.0038  14.0038  14.8003  14.8589  15.5285  15.5285  16.2895
    16.9223  16.9457  16.9457  17.0843  17.1025  17.1303  17.1304  17.1470
    17.2256  17.5107  17.5107  17.6436  17.7469  17.7814  17.7815  17.9054
    17.9054  17.9495  17.9495  18.0304  18.0322  18.0700  18.1865  18.1927
    18.1927  18.2566  18.2566  18.2845  18.3678  18.3678  18.3750  18.4121
    18.4851  18.4851  18.5411  18.5523  18.6360  18.8540  18.8541  19.3667
    20.5191  20.8096  20.8448  20.8493  20.8493  20.9896  20.9927  20.9927
    21.0366  21.0366  21.0933  21.0933  21.2108  21.2335  21.2807  21.2807
    21.3230  21.3710  21.4306  21.4943  21.5670  21.5985  21.6033  21.6403
    21.6574  21.6574  21.6614  21.6614  21.7215  21.7506  21.7506  21.7627
    21.8099  21.8356  21.8356  21.9253  21.9356  22.5496  22.5496  23.4866
    25.3459  25.8429

          k = 0.2810 0.3934-0.5058 ( 11604 PWs)   bands (ev):

   -65.8091 -65.8089 -65.7912 -65.7910 -65.7768 -65.7766 -65.7671 -65.7669
   -65.7336 -65.7335 -65.7293 -65.7291 -65.7196 -65.7194 -65.7071 -65.7069
   -32.1061 -32.1061 -32.0986 -32.0985 -32.0822 -32.0820 -32.0803 -32.0803
   -32.0732 -32.0731 -32.0412 -32.0412 -31.9979 -31.9978 -31.9909 -31.9908
   -31.9724 -31.9723 -31.9584 -31.9582 -31.9545 -31.9544 -31.9099 -31.9098
   -31.8172 -31.8171 -31.7746 -31.7745 -31.7640 -31.7639 -31.7615 -31.7615
   -31.7363 -31.7362 -31.7218 -31.7217 -31.7019 -31.7017 -31.7016 -31.7014
   -31.6979 -31.6977 -31.6735 -31.6734 -31.6547 -31.6546 -31.6524 -31.6524
    13.4782  13.4782  14.3833  14.3833  15.1914  15.1914  15.9018  15.9018
    17.0705  17.0705  17.0958  17.0958  17.1582  17.1582  17.1590  17.1591
    17.3273  17.3274  17.7516  17.7517  17.7606  17.7607  17.7940  17.7940
    17.8222  17.8223  17.9519  17.9519  18.0380  18.0381  18.1336  18.1336
    18.1926  18.1928  18.1985  18.1985  18.3481  18.3482  18.4242  18.4243
    18.4418  18.4418  18.5547  18.5548  18.5799  18.5799  19.0525  19.0525
    20.8020  20.8020  20.8230  20.8231  20.9572  20.9572  21.0792  21.0793
    21.1360  21.1361  21.1389  21.1390  21.1472  21.1472  21.2230  21.2231
    21.3884  21.3885  21.4183  21.4184  21.5248  21.5249  21.6160  21.6161
    21.6246  21.6246  21.6485  21.6486  21.6602  21.6604  21.7189  21.7189
    21.8431  21.8432  21.8951  21.8951  22.1996  22.1996  23.0129  23.0130
    25.6921  25.6921

          k = 0.2810-0.5058-0.5058 ( 11608 PWs)   bands (ev):

   -65.8009 -65.8007 -65.8007 -65.8005 -65.7724 -65.7721 -65.7721 -65.7720
   -65.7312 -65.7310 -65.7310 -65.7309 -65.7128 -65.7126 -65.7126 -65.7124
   -32.0937 -32.0937 -32.0937 -32.0937 -32.0858 -32.0856 -32.0856 -32.0855
   -32.0569 -32.0568 -32.0568 -32.0567 -31.9829 -31.9827 -31.9827 -31.9826
   -31.9721 -31.9721 -31.9721 -31.9720 -31.9504 -31.9504 -31.9504 -31.9503
   -31.7884 -31.7883 -31.7883 -31.7882 -31.7665 -31.7665 -31.7665 -31.7664
   -31.7140 -31.7138 -31.7138 -31.7137 -31.7096 -31.7095 -31.7095 -31.7094
   -31.6891 -31.6890 -31.6890 -31.6889 -31.6527 -31.6527 -31.6527 -31.6526
    13.9009  13.9010  13.9010  13.9010  15.5439  15.5439  15.5439  15.5439
    17.1589  17.1590  17.1590  17.1591  17.2415  17.2415  17.2415  17.2415
    17.5457  17.5458  17.5458  17.5459  17.6915  17.6915  17.6915  17.6916
    17.9363  17.9363  17.9363  17.9363  18.0186  18.0187  18.0187  18.0188
    18.2016  18.2016  18.2016  18.2017  18.3010  18.3010  18.3010  18.3011
    18.4763  18.4764  18.4764  18.4765  18.7582  18.7582  18.7582  18.7582
    20.9469  20.9470  20.9470  20.9471  21.1105  21.1106  21.1106  21.1106
    21.1201  21.1201  21.1201  21.1202  21.1905  21.1906  21.1906  21.1907
    21.2744  21.2745  21.2745  21.2746  21.5201  21.5202  21.5202  21.5204
    21.6336  21.6336  21.6336  21.6336  21.6555  21.6557  21.6557  21.6558
    21.8805  21.8805  21.8805  21.8805  22.5978  22.5979  22.5979  22.5980
    26.1828  26.1828

          k = 0.3934 0.3934 0.3934 ( 11590 PWs)   bands (ev):

   -65.8115 -65.7929 -65.7929 -65.7929 -65.7790 -65.7789 -65.7789 -65.7685
   -65.7316 -65.7266 -65.7266 -65.7266 -65.7181 -65.7181 -65.7181 -65.7046
   -32.0976 -32.0976 -32.0976 -32.0842 -32.0841 -32.0841 -32.0669 -32.0454
   -32.0454 -32.0398 -32.0398 -32.0398 -32.0321 -32.0321 -31.9874 -31.9874
   -31.9874 -31.9794 -31.9794 -31.9794 -31.9711 -31.9711 -31.9711 -31.9030
   -31.8170 -31.7637 -31.7637 -31.7637 -31.7495 -31.7495 -31.7495 -31.7368
   -31.7368 -31.7243 -31.7243 -31.7243 -31.7224 -31.7224 -31.7224 -31.7033
   -31.6756 -31.6756 -31.6755 -31.6700 -31.6700 -31.6661 -31.6661 -31.6661
    13.3741  14.3177  14.3177  14.3177  15.1181  15.1181  15.1181  15.9137
    17.1564  17.1564  17.1564  17.2486  17.2486  17.3304  17.3304  17.3304
    17.4066  17.5072  17.5072  17.5072  17.8172  17.8172  17.8499  17.8499
    17.9820  17.9820  17.9821  17.9897  17.9897  17.9898  18.0901  18.0902
    18.0902  18.1680  18.1681  18.1681  18.2837  18.2837  18.2837  18.2839
    18.2839  18.2839  18.4728  18.4728  18.5294  18.5294  18.5294  18.9760
    20.8094  21.0150  21.0150  21.0151  21.0449  21.0449  21.0449  21.1188
    21.1188  21.1189  21.3044  21.3044  21.3044  21.3480  21.3480  21.4174
    21.4174  21.4174  21.4322  21.4322  21.5260  21.5260  21.5343  21.5343
    21.5889  21.5889  21.5889  21.6365  21.6365  21.6365  21.7109  21.7110
    21.7110  21.7196  21.7196  21.7197  22.1641  22.1641  22.1642  23.0298
    26.4746  26.4747

          k = 0.3934 0.3934-0.5058 ( 11620 PWs)   bands (ev):

   -65.8030 -65.8029 -65.7866 -65.7865 -65.7864 -65.7864 -65.7741 -65.7739
   -65.7289 -65.7287 -65.7219 -65.7219 -65.7217 -65.7217 -65.7109 -65.7107
   -32.0867 -32.0866 -32.0866 -32.0866 -32.0680 -32.0680 -32.0678 -32.0676
   -32.0532 -32.0531 -32.0194 -32.0192 -32.0098 -32.0097 -32.0097 -32.0096
   -32.0034 -32.0034 -31.9881 -31.9881 -31.9880 -31.9880 -31.9414 -31.9413
   -31.7896 -31.7895 -31.7441 -31.7440 -31.7414 -31.7414 -31.7413 -31.7413
   -31.7320 -31.7320 -31.7319 -31.7319 -31.7108 -31.7107 -31.7034 -31.7032
   -31.6949 -31.6947 -31.6731 -31.6730 -31.6730 -31.6730 -31.6664 -31.6664
    13.8124  13.8124  14.7005  14.7005  14.7005  14.7005  15.5030  15.5030
    17.3132  17.3132  17.3132  17.3132  17.3682  17.3682  17.3717  17.3718
    17.3913  17.3914  17.7102  17.7103  17.7103  17.7104  17.8482  17.8483
    17.9016  17.9018  17.9198  17.9199  17.9575  17.9576  18.1144  18.1144
    18.1144  18.1145  18.2078  18.2078  18.2079  18.2079  18.2638  18.2639
    18.2639  18.2639  18.3495  18.3495  18.3807  18.3809  18.6693  18.6693
    21.0622  21.0622  21.0622  21.0622  21.1170  21.1171  21.2405  21.2405
    21.2406  21.2406  21.2418  21.2419  21.2492  21.2493  21.2571  21.2572
    21.4165  21.4166  21.4796  21.4798  21.5475  21.5475  21.5660  21.5662
    21.5684  21.5684  21.5686  21.5686  21.6524  21.6525  21.6854  21.6854
    21.6854  21.6854  21.8084  21.8085  21.8085  21.8086  22.5916  22.5917
    26.7676  26.7676

          k = 0.3934-0.5058-0.5058 ( 11592 PWs)   bands (ev):

   -65.7954 -65.7952 -65.7952 -65.7951 -65.7808 -65.7806 -65.7806 -65.7804
   -65.7251 -65.7249 -65.7249 -65.7248 -65.7158 -65.7156 -65.7156 -65.7155
   -32.0716 -32.0716 -32.0716 -32.0716 -32.0678 -32.0677 -32.0677 -32.0675
   -32.0312 -32.0311 -32.0311 -32.0310 -32.0144 -32.0142 -32.0142 -32.0141
   -32.0099 -32.0099 -32.0099 -32.0099 -31.9756 -31.9755 -31.9755 -31.9754
   -31.7641 -31.7640 -31.7640 -31.7639 -31.7306 -31.7306 -31.7306 -31.7305
   -31.7245 -31.7244 -31.7244 -31.7243 -31.7063 -31.7061 -31.7061 -31.7060
   -31.6931 -31.6930 -31.6930 -31.6929 -31.6727 -31.6727 -31.6727 -31.6726
    14.2290  14.2290  14.2290  14.2290  15.0862  15.0863  15.0863  15.0863
    17.3890  17.3891  17.3891  17.3891  17.5428  17.5428  17.5428  17.5429
    17.5819  17.5820  17.5820  17.5820  17.6580  17.6581  17.6581  17.6581
    18.0131  18.0132  18.0132  18.0132  18.0246  18.0246  18.0247  18.0247
    18.0285  18.0287  18.0287  18.0288  18.2166  18.2166  18.2166  18.2166
    18.2788  18.2789  18.2789  18.2790  18.3676  18.3676  18.3676  18.3676
    21.2035  21.2036  21.2036  21.2037  21.2296  21.2296  21.2296  21.2297
    21.2972  21.2973  21.2973  21.2974  21.3530  21.3531  21.3531  21.3532
    21.4525  21.4526  21.4526  21.4526  21.4789  21.4790  21.4790  21.4792
    21.5432  21.5433  21.5433  21.5433  21.5494  21.5496  21.5496  21.5497
    21.6291  21.6291  21.6291  21.6292  22.1920  22.1921  22.1921  22.1922
    27.2952  27.2952

          k =-0.5058-0.5058-0.5058 ( 11656 PWs)   bands (ev):

   -65.7889 -65.7886 -65.7886 -65.7886 -65.7885 -65.7885 -65.7885 -65.7883
   -65.7201 -65.7199 -65.7199 -65.7199 -65.7197 -65.7197 -65.7197 -65.7195
   -32.0436 -32.0436 -32.0436 -32.0435 -32.0435 -32.0435 -32.0435 -32.0435
   -32.0433 -32.0433 -32.0433 -32.0433 -32.0433 -32.0433 -32.0433 -32.0433
   -32.0037 -32.0036 -32.0036 -32.0036 -32.0035 -32.0035 -32.0035 -32.0035
   -31.7426 -31.7426 -31.7426 -31.7426 -31.7425 -31.7425 -31.7425 -31.7424
   -31.6995 -31.6995 -31.6995 -31.6994 -31.6994 -31.6993 -31.6993 -31.6993
   -31.6992 -31.6992 -31.6992 -31.6991 -31.6991 -31.6991 -31.6991 -31.6991
    14.6344  14.6344  14.6344  14.6344  14.6344  14.6344  14.6344  14.6344
    17.6207  17.6207  17.6208  17.6208  17.6208  17.6209  17.6209  17.6209
    17.6209  17.6209  17.6209  17.6209  17.6209  17.6209  17.6210  17.6210
    18.0247  18.0247  18.0247  18.0247  18.0248  18.0248  18.0248  18.0248
    18.1206  18.1206  18.1206  18.1207  18.1207  18.1207  18.1208  18.1208
    18.1209  18.1209  18.1209  18.1209  18.1209  18.1209  18.1209  18.1209
    21.4030  21.4030  21.4030  21.4031  21.4031  21.4031  21.4032  21.4032
    21.4032  21.4032  21.4033  21.4033  21.4033  21.4033  21.4033  21.4033
    21.4223  21.4223  21.4225  21.4225  21.4225  21.4225  21.4225  21.4225
    21.4226  21.4226  21.4226  21.4226  21.4226  21.4226  21.4227  21.4227
    21.8147  21.8147  21.8147  21.8147  21.8148  21.8148  21.8148  21.8149
    28.4014  28.4014

     the Fermi energy is    19.8182 ev

!    total energy              =   -5268.16517183 Ry
     Harris-Foulkes estimate   =   -5268.16517073 Ry
     estimated scf accuracy    <       0.00000036 Ry

     total all-electron energy =    -40728.909701 Ry

     The total energy is the sum of the following terms:

     one-electron contribution =   -1656.11203021 Ry
     hartree contribution      =    1003.93554166 Ry
     xc contribution           =    -444.65405884 Ry
     ewald contribution        =   -2846.76443340 Ry
     one-center paw contrib.   =   -1324.67708344 Ry
     smearing contrib. (-TS)   =       0.10689240 Ry

     total magnetization       =    32.32 Bohr mag/cell
     absolute magnetization    =    33.92 Bohr mag/cell

     convergence has been achieved in  18 iterations

     negative rho (up, down):  0.000E+00 2.266E-03

     Forces acting on atoms (cartesian axes, Ry/au):

     atom    1 type  1   force =     0.00000000    0.00000000    0.00000000
     atom    2 type  2   force =     0.00005750    0.00005750    0.00005750
     atom    3 type  1   force =     0.00000000    0.00000000    0.00000000
     atom    4 type  2   force =     0.00005750    0.00005750   -0.00005750
     atom    5 type  1   force =     0.00000000    0.00000000    0.00000000
     atom    6 type  2   force =     0.00005750   -0.00005750    0.00005750
     atom    7 type  1   force =     0.00000000    0.00000000    0.00000000
     atom    8 type  2   force =     0.00005750   -0.00005750   -0.00005750
     atom    9 type  1   force =     0.00000000    0.00000000    0.00000000
     atom   10 type  2   force =    -0.00005750    0.00005750    0.00005750
     atom   11 type  1   force =     0.00000000    0.00000000    0.00000000
     atom   12 type  2   force =    -0.00005750    0.00005750   -0.00005750
     atom   13 type  1   force =     0.00000000    0.00000000    0.00000000
     atom   14 type  2   force =    -0.00005750   -0.00005750    0.00005750
     atom   15 type  1   force =     0.00000000    0.00000000    0.00000000
     atom   16 type  2   force =    -0.00005750   -0.00005750   -0.00005750

     Total force =     0.000282     Total SCF correction =     0.001604
     SCF correction compared to forces is large: reduce conv_thr to get better values


     Computing stress (Cartesian axis) and pressure


     negative rho (up, down):  0.000E+00 2.266E-03
          total   stress  (Ry/bohr**3)                   (kbar)     P=   86.50
   0.00058799   0.00000000   0.00000000         86.50      0.00      0.00
   0.00000000   0.00058799   0.00000000          0.00     86.50      0.00
   0.00000000   0.00000000   0.00058799          0.00      0.00     86.50


     Writing output data file tMHrUMyzKyBuXNDq.save/
 
     init_run     :      7.23s CPU      7.51s WALL (       1 calls)
     electrons    :    461.48s CPU    471.08s WALL (       1 calls)
     forces       :      2.39s CPU      2.51s WALL (       1 calls)
     stress       :      9.88s CPU      9.94s WALL (       1 calls)

     Called by init_run:
     wfcinit      :      6.66s CPU      6.86s WALL (       1 calls)
     potinit      :      0.31s CPU      0.32s WALL (       1 calls)
     hinit0       :      0.09s CPU      0.10s WALL (       1 calls)

     Called by electrons:
     c_bands      :    411.12s CPU    418.60s WALL (      19 calls)
     sum_band     :     44.28s CPU     45.93s WALL (      19 calls)
     v_of_rho     :      0.47s CPU      0.49s WALL (      19 calls)
     newd         :      0.93s CPU      1.15s WALL (      19 calls)
     PAW_pot      :      4.79s CPU      5.01s WALL (      19 calls)
     mix_rho      :      0.12s CPU      0.13s WALL (      19 calls)

     Called by c_bands:
     init_us_2    :      2.85s CPU      2.89s WALL (    2870 calls)
     cegterg      :    395.87s CPU    403.22s WALL (    1330 calls)

     Called by sum_band:
     sum_band:bec :      0.47s CPU      0.47s WALL (    1330 calls)
     addusdens    :      1.79s CPU      2.04s WALL (      19 calls)

     Called by *egterg:
     h_psi        :    173.86s CPU    178.89s WALL (    4656 calls)
     s_psi        :     12.28s CPU     12.33s WALL (    4656 calls)
     g_psi        :      0.59s CPU      0.60s WALL (    3256 calls)
     cdiaghg      :    167.63s CPU    168.08s WALL (    4516 calls)

     Called by h_psi:
     h_psi:pot    :    172.54s CPU    177.56s WALL (    4656 calls)
     h_psi:calbec :     14.54s CPU     15.66s WALL (    4656 calls)
     vloc_psi     :    145.47s CPU    149.30s WALL (    4656 calls)
     add_vuspsi   :     12.50s CPU     12.57s WALL (    4656 calls)

     General routines
     calbec       :     23.04s CPU     24.75s WALL (    6336 calls)
     fft          :      0.38s CPU      0.41s WALL (     517 calls)
     ffts         :      0.04s CPU      0.04s WALL (      76 calls)
     fftw         :    166.42s CPU    170.80s WALL ( 1133572 calls)
     interpolate  :      0.05s CPU      0.05s WALL (      38 calls)
 
     Parallel routines
     fft_scatt_xy :     13.98s CPU     14.36s WALL ( 1134165 calls)
     fft_scatt_yz :     96.17s CPU     98.73s WALL ( 1134165 calls)
 
     PWSCF        :  8m 4.49s CPU     8m21.99s WALL

 
   This run was terminated on:  22:31:48  13Jun2020            

=------------------------------------------------------------------------------=
   JOB DONE.
=------------------------------------------------------------------------------=
