
     Program PWSCF v.6.3 starts on  3Aug2020 at  1:47:30 

     This program is part of the open-source Quantum ESPRESSO suite
     for quantum simulation of materials; please cite
         "P. Giannozzi et al., J. Phys.:Condens. Matter 21 395502 (2009);
         "P. Giannozzi et al., J. Phys.:Condens. Matter 29 465901 (2017);
          URL http://www.quantum-espresso.org", 
     in publications or presentations arising from this work. More details at
     http://www.quantum-espresso.org/quote

     Parallel version (MPI & OpenMP), running on      40 processor cores
     Number of MPI processes:                40
     Threads/MPI process:                     1

     MPI processes distributed on     1 nodes
     R & G space division:  proc/nbgrp/npool/nimage =      40
     Reading input from wd/configs/1/config_0002.in
Warning: card &IONS ignored
Warning: card ION_DYNAMICS = 'BFGS', ignored
Warning: card / ignored
Warning: card &CELL ignored
Warning: card CELL_DYNAMICS = 'BFGS', ignored
Warning: card CELL_FACTOR = 2.0, ignored
Warning: card PRESS = 0.0, ignored
Warning: card / ignored

     Current dimensions of program PWSCF are:
     Max number of different atomic species (ntypx) = 10
     Max number of k-points (npk) =  40000
     Max angular momentum in pseudopotentials (lmaxx) =  3
               file Pd.pbe-spn-kjpaw_psl.1.0.0.UPF: wavefunction(s)  4S 5S 4D renormalized
               file Fe.pbe-spn-kjpaw_psl.1.0.0.UPF: wavefunction(s)  3P 3D renormalized
               file Fe.pbe-spn-kjpaw_psl.1.0.0.UPF: wavefunction(s)  3P 3D renormalized
               file Fe.pbe-spn-kjpaw_psl.1.0.0.UPF: wavefunction(s)  3P 3D renormalized
               file Fe.pbe-spn-kjpaw_psl.1.0.0.UPF: wavefunction(s)  3P 3D renormalized

     Subspace diagonalization in iterative solution of the eigenvalue problem:
     a serial algorithm will be used

 
     Parallelization info
     --------------------
     sticks:   dense  smooth     PW     G-vecs:    dense   smooth      PW
     Min         152     100     27                 8728     4686     675
     Max         153     101     28                 8733     4693     680
     Sum        6107    4021   1119               349219   187561   27135
 


     bravais-lattice index     =            0
     lattice parameter (alat)  =      13.0068  a.u.
     unit-cell volume          =    2319.5574 (a.u.)^3
     number of atoms/cell      =           32
     number of atomic types    =            5
     number of electrons       =       514.00
     number of Kohn-Sham states=          308
     kinetic-energy cutoff     =      71.0000  Ry
     charge density cutoff     =     430.0000  Ry
     convergence threshold     =      1.0E-06
     mixing beta               =       0.1000
     number of iterations used =           10  plain     mixing
     Exchange-correlation      = SLA PW PBX PBC ( 1  4  3  4 0 0)

     celldm(1)=  13.006829  celldm(2)=   0.000000  celldm(3)=   0.000000
     celldm(4)=   0.000000  celldm(5)=   0.000000  celldm(6)=   0.000000

     crystal axes: (cart. coord. in units of alat)
               a(1) = (   1.000000   0.000000   0.000000 )  
               a(2) = (   0.000000   1.054129   0.000000 )  
               a(3) = (   0.000000   0.000000   0.999993 )  

     reciprocal axes: (cart. coord. in units 2 pi/alat)
               b(1) = (  1.000000  0.000000  0.000000 )  
               b(2) = (  0.000000  0.948650  0.000000 )  
               b(3) = (  0.000000  0.000000  1.000007 )  


     PseudoPot. # 1 for Pd read from file:
     /rds/homes/b/bxp912/pp/Pd.pbe-spn-kjpaw_psl.1.0.0.UPF
     MD5 check sum: 790f2ebce206edfd9790dcb9844eca51
     Pseudo is Projector augmented-wave + core cor, Zval = 18.0
     Generated using "atomic" code by A. Dal Corso v.6.3
     Shape of augmentation charge: PSQ
     Using radial grid of 1235 points,  6 beta functions with: 
                l(1) =   0
                l(2) =   0
                l(3) =   1
                l(4) =   1
                l(5) =   2
                l(6) =   2
     Q(r) pseudized with 0 coefficients 


     PseudoPot. # 2 for Fe read from file:
     /rds/homes/b/bxp912/pp/Fe.pbe-spn-kjpaw_psl.1.0.0.UPF
     MD5 check sum: 42f43b795421b414b0dc916aa790dbcb
     Pseudo is Projector augmented-wave + core cor, Zval = 16.0
     Generated using "atomic" code by A. Dal Corso v.6.3
     Shape of augmentation charge: PSQ
     Using radial grid of 1191 points,  6 beta functions with: 
                l(1) =   0
                l(2) =   0
                l(3) =   1
                l(4) =   1
                l(5) =   2
                l(6) =   2
     Q(r) pseudized with 0 coefficients 


     PseudoPot. # 3 for Fe read from file:
     /rds/homes/b/bxp912/pp/Fe.pbe-spn-kjpaw_psl.1.0.0.UPF
     MD5 check sum: 42f43b795421b414b0dc916aa790dbcb
     Pseudo is Projector augmented-wave + core cor, Zval = 16.0
     Generated using "atomic" code by A. Dal Corso v.6.3
     Shape of augmentation charge: PSQ
     Using radial grid of 1191 points,  6 beta functions with: 
                l(1) =   0
                l(2) =   0
                l(3) =   1
                l(4) =   1
                l(5) =   2
                l(6) =   2
     Q(r) pseudized with 0 coefficients 


     PseudoPot. # 4 for Fe read from file:
     /rds/homes/b/bxp912/pp/Fe.pbe-spn-kjpaw_psl.1.0.0.UPF
     MD5 check sum: 42f43b795421b414b0dc916aa790dbcb
     Pseudo is Projector augmented-wave + core cor, Zval = 16.0
     Generated using "atomic" code by A. Dal Corso v.6.3
     Shape of augmentation charge: PSQ
     Using radial grid of 1191 points,  6 beta functions with: 
                l(1) =   0
                l(2) =   0
                l(3) =   1
                l(4) =   1
                l(5) =   2
                l(6) =   2
     Q(r) pseudized with 0 coefficients 


     PseudoPot. # 5 for Fe read from file:
     /rds/homes/b/bxp912/pp/Fe.pbe-spn-kjpaw_psl.1.0.0.UPF
     MD5 check sum: 42f43b795421b414b0dc916aa790dbcb
     Pseudo is Projector augmented-wave + core cor, Zval = 16.0
     Generated using "atomic" code by A. Dal Corso v.6.3
     Shape of augmentation charge: PSQ
     Using radial grid of 1191 points,  6 beta functions with: 
                l(1) =   0
                l(2) =   0
                l(3) =   1
                l(4) =   1
                l(5) =   2
                l(6) =   2
     Q(r) pseudized with 0 coefficients 


     atomic species   valence    mass     pseudopotential
        Pd            18.00   106.42000     Pd( 1.00)
        Fe1           16.00    55.84500     Fe( 1.00)
        Fe2           16.00    55.84500     Fe( 1.00)
        Fe3           16.00    55.84500     Fe( 1.00)
        Fe4           16.00    55.84500     Fe( 1.00)

     Starting magnetic structure 
     atomic species   magnetization
        Pd          -0.080
        Fe1          1.000
        Fe2         -1.000
        Fe3          1.000
        Fe4         -1.000

     No symmetry found



   Cartesian axes

     site n.     atom                  positions (alat units)
         1           Pd  tau(   1) = (  -0.0008456  -0.0007465  -0.0006091  )
         2           Fe2 tau(   2) = (   0.2546024   0.2676852  -0.0006037  )
         3           Fe3 tau(   3) = (   0.2560726  -0.0006972   0.2569750  )
         4           Fe4 tau(   4) = (  -0.0008158   0.2686350   0.2548387  )
         5           Fe1 tau(   5) = (  -0.0001682  -0.0001768   0.4989482  )
         6           Fe2 tau(   6) = (   0.2499877   0.2631764   0.4992361  )
         7           Fe3 tau(   7) = (   0.2563559  -0.0004075   0.7419102  )
         8           Fe4 tau(   8) = (  -0.0006399   0.2683883   0.7445403  )
         9           Fe1 tau(   9) = (  -0.0002112   0.5265491  -0.0008051  )
        10           Fe2 tau(  10) = (   0.2547433   0.7848745   0.0001830  )
        11           Fe3 tau(  11) = (   0.2504748   0.5265516   0.2506184  )
        12           Fe4 tau(  12) = (  -0.0006788   0.7845776   0.2544668  )
        13           Fe1 tau(  13) = (  -0.0005102   0.5266627   0.4994601  )
        14           Fe2 tau(  14) = (   0.2496228   0.7891711   0.4989239  )
        15           Fe3 tau(  15) = (   0.2508211   0.5258014   0.7477126  )
        16           Fe4 tau(  16) = (  -0.0015390   0.7837791   0.7440308  )
        17           Fe1 tau(  17) = (   0.4997093  -0.0010046  -0.0008598  )
        18           Fe2 tau(  18) = (   0.7438405   0.2683522  -0.0013163  )
        19           Fe3 tau(  19) = (   0.7413151  -0.0009940   0.2564623  )
        20           Fe4 tau(  20) = (   0.4991726   0.2634862   0.2493019  )
        21           Fe1 tau(  21) = (   0.4990458  -0.0000810   0.4991633  )
        22           Fe2 tau(  22) = (   0.7489151   0.2628553   0.4991156  )
        23           Fe3 tau(  23) = (   0.7422552  -0.0009300   0.7422334  )
        24           Fe4 tau(  24) = (   0.4992577   0.2633101   0.7487451  )
        25           Fe1 tau(  25) = (   0.4988848   0.5265674  -0.0012836  )
        26           Fe2 tau(  26) = (   0.7435117   0.7846904  -0.0001263  )
        27           Fe3 tau(  27) = (   0.7486676   0.5258306   0.2499025  )
        28           Fe4 tau(  28) = (   0.4994371   0.7885240   0.2501885  )
        29           Fe1 tau(  29) = (   0.4984704   0.5265371   0.4993225  )
        30           Fe2 tau(  30) = (   0.7491438   0.7889926   0.4988863  )
        31           Fe3 tau(  31) = (   0.7483071   0.5263182   0.7487536  )
        32           Fe4 tau(  32) = (   0.4992643   0.7888946   0.7485640  )

     number of k points=   365  Marzari-Vanderbilt smearing, width (Ry)=  0.0400

     Number of k-points >= 100: set verbosity='high' to print them.

     Dense  grid:   349219 G-vectors     FFT dimensions: (  90,  96,  90)

     Smooth grid:   187561 G-vectors     FFT dimensions: (  72,  75,  72)

     Estimated max dynamical RAM per process >       2.10 GB

     Estimated total dynamical RAM >      83.92 GB
     Generating pointlists ...
     new r_m :   0.1499 (alat units)  1.9502 (a.u.) for type    1
     new r_m :   0.1415 (alat units)  1.8399 (a.u.) for type    2
     new r_m :   0.1442 (alat units)  1.8759 (a.u.) for type    3
     new r_m :   0.1415 (alat units)  1.8399 (a.u.) for type    4
     new r_m :   0.1442 (alat units)  1.8759 (a.u.) for type    5

     Check: negative/imaginary core charge=   -0.000006    0.000000

     Initial potential from superposition of free atoms

     starting charge  513.98605, renormalised to  514.00000
     Starting wfcs are  320 randomized atomic wfcs
     Checking if some PAW data can be deallocated... 

     total cpu time spent up to now is      247.7 secs

     Self-consistent Calculation

     iteration #  1     ecut=    71.00 Ry     beta= 0.10
     Davidson diagonalization with overlap
     ethr =  1.00E-02,  avg # of iterations =  5.0

     negative rho (up, down):  1.054E+01 9.374E+00

     total cpu time spent up to now is     3310.1 secs

     total energy              =  -10337.97829869 Ry
     Harris-Foulkes estimate   =  -10664.64963983 Ry
     estimated scf accuracy    <   12581.44745644 Ry

     total magnetization       =    -2.52 Bohr mag/cell
     absolute magnetization    =   553.75 Bohr mag/cell

     iteration #  2     ecut=    71.00 Ry     beta= 0.10
     Davidson diagonalization with overlap
     ethr =  1.00E-02,  avg # of iterations =  4.6

     negative rho (up, down):  9.312E+00 1.218E+01

     total cpu time spent up to now is     5449.3 secs

     total energy              =  -10540.90403315 Ry
     Harris-Foulkes estimate   =  -10660.59250284 Ry
     estimated scf accuracy    <    4109.96471961 Ry

     total magnetization       =   -13.32 Bohr mag/cell
     absolute magnetization    =   266.28 Bohr mag/cell

     iteration #  3     ecut=    71.00 Ry     beta= 0.10
     Davidson diagonalization with overlap
     ethr =  1.00E-02,  avg # of iterations =  4.4

     negative rho (up, down):  7.986E+00 1.025E+01

     total cpu time spent up to now is     6938.9 secs

     total energy              =  -10660.28657588 Ry
     Harris-Foulkes estimate   =  -10652.35020182 Ry
     estimated scf accuracy    <     215.89990659 Ry

     total magnetization       =    -3.52 Bohr mag/cell
     absolute magnetization    =   142.34 Bohr mag/cell

     iteration #  4     ecut=    71.00 Ry     beta= 0.10
     Davidson diagonalization with overlap
     ethr =  1.00E-02,  avg # of iterations =  1.0

     negative rho (up, down):  4.965E+00 5.821E+00

     total cpu time spent up to now is     7620.7 secs

     total energy              =  -10679.84386619 Ry
     Harris-Foulkes estimate   =  -10660.75791816 Ry
     estimated scf accuracy    <     176.16702698 Ry

     total magnetization       =    -3.98 Bohr mag/cell
     absolute magnetization    =   139.63 Bohr mag/cell

     iteration #  5     ecut=    71.00 Ry     beta= 0.10
     Davidson diagonalization with overlap
     ethr =  1.00E-02,  avg # of iterations =  2.1

     negative rho (up, down):  2.066E+00 1.938E+00

     total cpu time spent up to now is     8549.3 secs

     total energy              =  -10700.57452522 Ry
     Harris-Foulkes estimate   =  -10681.32889856 Ry
     estimated scf accuracy    <     101.84750589 Ry

     total magnetization       =    -4.67 Bohr mag/cell
     absolute magnetization    =   129.23 Bohr mag/cell

     iteration #  6     ecut=    71.00 Ry     beta= 0.10
     Davidson diagonalization with overlap
     ethr =  1.00E-02,  avg # of iterations =  3.3

     negative rho (up, down):  1.257E+00 1.416E+00

     total cpu time spent up to now is     9788.7 secs

     total energy              =  -10707.35299811 Ry
     Harris-Foulkes estimate   =  -10703.06677195 Ry
     estimated scf accuracy    <      45.47368217 Ry

     total magnetization       =    -6.80 Bohr mag/cell
     absolute magnetization    =   111.45 Bohr mag/cell

     iteration #  7     ecut=    71.00 Ry     beta= 0.10
     Davidson diagonalization with overlap
     ethr =  8.85E-03,  avg # of iterations =  1.5

     negative rho (up, down):  8.134E-02 1.056E+00

     total cpu time spent up to now is    10590.2 secs

     total energy              =  -10714.94401593 Ry
     Harris-Foulkes estimate   =  -10708.33577210 Ry
     estimated scf accuracy    <      25.92001867 Ry

     total magnetization       =    -3.88 Bohr mag/cell
     absolute magnetization    =   106.93 Bohr mag/cell

     iteration #  8     ecut=    71.00 Ry     beta= 0.10
     Davidson diagonalization with overlap
     ethr =  5.04E-03,  avg # of iterations =  2.5

     negative rho (up, down):  3.896E-02 1.212E+00

     total cpu time spent up to now is    11625.5 secs

     total energy              =  -10717.18822434 Ry
     Harris-Foulkes estimate   =  -10716.27230411 Ry
     estimated scf accuracy    <      16.30870636 Ry

     total magnetization       =    -2.92 Bohr mag/cell
     absolute magnetization    =    91.88 Bohr mag/cell

     iteration #  9     ecut=    71.00 Ry     beta= 0.10
     Davidson diagonalization with overlap
     ethr =  3.17E-03,  avg # of iterations =  4.3

     negative rho (up, down):  1.202E-01 1.339E+00

     total cpu time spent up to now is    13042.4 secs

     total energy              =  -10718.01626136 Ry
     Harris-Foulkes estimate   =  -10717.82482685 Ry
     estimated scf accuracy    <      12.88739349 Ry

     total magnetization       =    -2.78 Bohr mag/cell
     absolute magnetization    =    84.30 Bohr mag/cell

     iteration # 10     ecut=    71.00 Ry     beta= 0.10
     Davidson diagonalization with overlap
     ethr =  2.51E-03,  avg # of iterations =  3.3

     negative rho (up, down):  2.079E-01 1.335E+00

     total cpu time spent up to now is    14243.8 secs

     total energy              =  -10718.34842547 Ry
     Harris-Foulkes estimate   =  -10718.38991261 Ry
     estimated scf accuracy    <      12.20350974 Ry

     total magnetization       =    -3.18 Bohr mag/cell
     absolute magnetization    =    76.42 Bohr mag/cell

     iteration # 11     ecut=    71.00 Ry     beta= 0.10
     Davidson diagonalization with overlap
     ethr =  2.37E-03,  avg # of iterations =  2.0

     negative rho (up, down):  2.128E-01 1.260E+00

     total cpu time spent up to now is    15154.7 secs

     total energy              =  -10718.64329208 Ry
     Harris-Foulkes estimate   =  -10718.63995873 Ry
     estimated scf accuracy    <      11.02470247 Ry

     total magnetization       =    -2.14 Bohr mag/cell
     absolute magnetization    =    67.22 Bohr mag/cell

     iteration # 12     ecut=    71.00 Ry     beta= 0.10
     Davidson diagonalization with overlap
     ethr =  2.14E-03,  avg # of iterations =  1.5

     negative rho (up, down):  4.070E-02 7.780E-01

     total cpu time spent up to now is    15954.8 secs

     total energy              =  -10718.30186041 Ry
     Harris-Foulkes estimate   =  -10718.70082915 Ry
     estimated scf accuracy    <       9.77206643 Ry

     total magnetization       =    -2.18 Bohr mag/cell
     absolute magnetization    =    64.44 Bohr mag/cell

     iteration # 13     ecut=    71.00 Ry     beta= 0.10
     Davidson diagonalization with overlap
     ethr =  1.90E-03,  avg # of iterations =  1.3

     negative rho (up, down):  7.939E-04 2.748E-02

     total cpu time spent up to now is    16713.9 secs

     total energy              =  -10718.58157111 Ry
     Harris-Foulkes estimate   =  -10718.43963406 Ry
     estimated scf accuracy    <       5.50501428 Ry

     total magnetization       =    -2.72 Bohr mag/cell
     absolute magnetization    =    72.70 Bohr mag/cell

     iteration # 14     ecut=    71.00 Ry     beta= 0.10
     Davidson diagonalization with overlap
     ethr =  1.07E-03,  avg # of iterations =  2.8

     negative rho (up, down):  4.301E-04 6.108E-03

     total cpu time spent up to now is    17796.4 secs

     total energy              =  -10718.73586737 Ry
     Harris-Foulkes estimate   =  -10718.78850551 Ry
     estimated scf accuracy    <       1.91482721 Ry

     total magnetization       =    -3.15 Bohr mag/cell
     absolute magnetization    =    64.84 Bohr mag/cell

     iteration # 15     ecut=    71.00 Ry     beta= 0.10
     Davidson diagonalization with overlap
     ethr =  3.73E-04,  avg # of iterations =  3.6

     negative rho (up, down):  1.120E-04 1.826E-03

     total cpu time spent up to now is    19085.2 secs

     total energy              =  -10718.83143583 Ry
     Harris-Foulkes estimate   =  -10718.83876533 Ry
     estimated scf accuracy    <       0.89013016 Ry

     total magnetization       =    -2.62 Bohr mag/cell
     absolute magnetization    =    62.42 Bohr mag/cell

     iteration # 16     ecut=    71.00 Ry     beta= 0.10
     Davidson diagonalization with overlap
     ethr =  1.73E-04,  avg # of iterations =  2.1

     negative rho (up, down):  2.945E-05 1.654E-03

     total cpu time spent up to now is    20021.5 secs

     total energy              =  -10718.87070700 Ry
     Harris-Foulkes estimate   =  -10718.87543498 Ry
     estimated scf accuracy    <       0.35111920 Ry

     total magnetization       =    -2.40 Bohr mag/cell
     absolute magnetization    =    60.07 Bohr mag/cell

     iteration # 17     ecut=    71.00 Ry     beta= 0.10
     Davidson diagonalization with overlap
     ethr =  6.83E-05,  avg # of iterations =  2.0

     negative rho (up, down):  2.969E-05 1.118E-03

     total cpu time spent up to now is    20917.5 secs

     total energy              =  -10718.89547590 Ry
     Harris-Foulkes estimate   =  -10718.88118087 Ry
     estimated scf accuracy    <       0.16453922 Ry

     total magnetization       =    -2.41 Bohr mag/cell
     absolute magnetization    =    59.28 Bohr mag/cell

     iteration # 18     ecut=    71.00 Ry     beta= 0.10
     Davidson diagonalization with overlap
     ethr =  3.20E-05,  avg # of iterations =  3.0

     negative rho (up, down):  6.772E-05 7.661E-04

     total cpu time spent up to now is    22067.2 secs

     total energy              =  -10718.91654298 Ry
     Harris-Foulkes estimate   =  -10718.90663485 Ry
     estimated scf accuracy    <       0.11852001 Ry

     total magnetization       =    -2.49 Bohr mag/cell
     absolute magnetization    =    57.34 Bohr mag/cell

     iteration # 19     ecut=    71.00 Ry     beta= 0.10
     Davidson diagonalization with overlap
     ethr =  2.31E-05,  avg # of iterations =  2.4

     negative rho (up, down):  6.102E-05 6.328E-04

     total cpu time spent up to now is    23069.2 secs

     total energy              =  -10718.93040557 Ry
     Harris-Foulkes estimate   =  -10718.92493028 Ry
     estimated scf accuracy    <       0.07365316 Ry

     total magnetization       =    -2.46 Bohr mag/cell
     absolute magnetization    =    55.75 Bohr mag/cell

     iteration # 20     ecut=    71.00 Ry     beta= 0.10
     Davidson diagonalization with overlap
     ethr =  1.43E-05,  avg # of iterations =  1.3

     negative rho (up, down):  4.398E-05 4.277E-04

     total cpu time spent up to now is    23829.8 secs

     total energy              =  -10718.93860229 Ry
     Harris-Foulkes estimate   =  -10718.93234649 Ry
     estimated scf accuracy    <       0.04252647 Ry

     total magnetization       =    -2.38 Bohr mag/cell
     absolute magnetization    =    55.22 Bohr mag/cell

     iteration # 21     ecut=    71.00 Ry     beta= 0.10
     Davidson diagonalization with overlap
     ethr =  8.27E-06,  avg # of iterations =  1.5

     negative rho (up, down):  0.000E+00 8.054E-05

     total cpu time spent up to now is    24625.9 secs

     total energy              =  -10718.94732808 Ry
     Harris-Foulkes estimate   =  -10718.93999314 Ry
     estimated scf accuracy    <       0.03459567 Ry

     total magnetization       =    -2.38 Bohr mag/cell
     absolute magnetization    =    54.51 Bohr mag/cell

     iteration # 22     ecut=    71.00 Ry     beta= 0.10
     Davidson diagonalization with overlap
     ethr =  6.73E-06,  avg # of iterations =  2.7

     negative rho (up, down):  0.000E+00 1.685E-05

     total cpu time spent up to now is    25676.7 secs

     total energy              =  -10718.95524847 Ry
     Harris-Foulkes estimate   =  -10718.95072017 Ry
     estimated scf accuracy    <       0.02924095 Ry

     total magnetization       =    -2.44 Bohr mag/cell
     absolute magnetization    =    53.24 Bohr mag/cell

     iteration # 23     ecut=    71.00 Ry     beta= 0.10
     Davidson diagonalization with overlap
     ethr =  5.69E-06,  avg # of iterations =  1.8

     negative rho (up, down):  0.000E+00 6.366E-06

     total cpu time spent up to now is    26553.4 secs

     total energy              =  -10718.95999922 Ry
     Harris-Foulkes estimate   =  -10718.95706859 Ry
     estimated scf accuracy    <       0.01828636 Ry

     total magnetization       =    -2.39 Bohr mag/cell
     absolute magnetization    =    52.71 Bohr mag/cell

     iteration # 24     ecut=    71.00 Ry     beta= 0.10
     Davidson diagonalization with overlap
     ethr =  3.56E-06,  avg # of iterations =  3.2

     total cpu time spent up to now is    27712.9 secs

     total energy              =  -10718.96352099 Ry
     Harris-Foulkes estimate   =  -10718.96154221 Ry
     estimated scf accuracy    <       0.01276552 Ry

     total magnetization       =    -2.38 Bohr mag/cell
     absolute magnetization    =    51.91 Bohr mag/cell

     iteration # 25     ecut=    71.00 Ry     beta= 0.10
     Davidson diagonalization with overlap
     c_bands:  1 eigenvalues not converged
     c_bands:  1 eigenvalues not converged
     c_bands:  1 eigenvalues not converged
     c_bands:  1 eigenvalues not converged
     ethr =  2.48E-06,  avg # of iterations =  1.5

     total cpu time spent up to now is    28516.2 secs

     total energy              =  -10718.96521893 Ry
     Harris-Foulkes estimate   =  -10718.96397742 Ry
     estimated scf accuracy    <       0.00790335 Ry

     total magnetization       =    -2.40 Bohr mag/cell
     absolute magnetization    =    51.76 Bohr mag/cell

     iteration # 26     ecut=    71.00 Ry     beta= 0.10
     Davidson diagonalization with overlap
     c_bands:  1 eigenvalues not converged
     ethr =  1.54E-06,  avg # of iterations =  1.1

     total cpu time spent up to now is    29224.5 secs

     total energy              =  -10718.96673849 Ry
     Harris-Foulkes estimate   =  -10718.96552505 Ry
     estimated scf accuracy    <       0.00680141 Ry

     total magnetization       =    -2.40 Bohr mag/cell
     absolute magnetization    =    51.74 Bohr mag/cell

     iteration # 27     ecut=    71.00 Ry     beta= 0.10
     Davidson diagonalization with overlap
     ethr =  1.32E-06,  avg # of iterations =  1.0

     total cpu time spent up to now is    29920.4 secs

     total energy              =  -10718.96786972 Ry
     Harris-Foulkes estimate   =  -10718.96700411 Ry
     estimated scf accuracy    <       0.00412261 Ry

     total magnetization       =    -2.41 Bohr mag/cell
     absolute magnetization    =    51.59 Bohr mag/cell

     iteration # 28     ecut=    71.00 Ry     beta= 0.10
     Davidson diagonalization with overlap
     ethr =  8.02E-07,  avg # of iterations =  1.0

     total cpu time spent up to now is    30621.1 secs

     total energy              =  -10718.96887587 Ry
     Harris-Foulkes estimate   =  -10718.96799583 Ry
     estimated scf accuracy    <       0.00285087 Ry

     total magnetization       =    -2.42 Bohr mag/cell
     absolute magnetization    =    51.51 Bohr mag/cell

     iteration # 29     ecut=    71.00 Ry     beta= 0.10
     Davidson diagonalization with overlap
     ethr =  5.55E-07,  avg # of iterations =  1.1

     total cpu time spent up to now is    31344.2 secs

     total energy              =  -10718.96947004 Ry
     Harris-Foulkes estimate   =  -10718.96898381 Ry
     estimated scf accuracy    <       0.00263637 Ry

     total magnetization       =    -2.42 Bohr mag/cell
     absolute magnetization    =    51.34 Bohr mag/cell

     iteration # 30     ecut=    71.00 Ry     beta= 0.10
     Davidson diagonalization with overlap
     c_bands:  1 eigenvalues not converged
     ethr =  5.13E-07,  avg # of iterations =  1.0

     total cpu time spent up to now is    32045.2 secs

     total energy              =  -10718.97005106 Ry
     Harris-Foulkes estimate   =  -10718.96955004 Ry
     estimated scf accuracy    <       0.00225998 Ry

     total magnetization       =    -2.42 Bohr mag/cell
     absolute magnetization    =    51.28 Bohr mag/cell

     iteration # 31     ecut=    71.00 Ry     beta= 0.10
     Davidson diagonalization with overlap
     ethr =  4.40E-07,  avg # of iterations =  1.0

     total cpu time spent up to now is    32738.1 secs

     total energy              =  -10718.97070881 Ry
     Harris-Foulkes estimate   =  -10718.97013552 Ry
     estimated scf accuracy    <       0.00245848 Ry

     total magnetization       =    -2.43 Bohr mag/cell
     absolute magnetization    =    51.17 Bohr mag/cell

     iteration # 32     ecut=    71.00 Ry     beta= 0.10
     Davidson diagonalization with overlap
     ethr =  4.40E-07,  avg # of iterations =  1.1

     total cpu time spent up to now is    33442.8 secs

     total energy              =  -10718.97136185 Ry
     Harris-Foulkes estimate   =  -10718.97082971 Ry
     estimated scf accuracy    <       0.00184580 Ry

     total magnetization       =    -2.44 Bohr mag/cell
     absolute magnetization    =    50.97 Bohr mag/cell

     iteration # 33     ecut=    71.00 Ry     beta= 0.10
     Davidson diagonalization with overlap
     ethr =  3.59E-07,  avg # of iterations =  1.2

     total cpu time spent up to now is    34181.8 secs

     total energy              =  -10718.97182968 Ry
     Harris-Foulkes estimate   =  -10718.97146827 Ry
     estimated scf accuracy    <       0.00115766 Ry

     total magnetization       =    -2.44 Bohr mag/cell
     absolute magnetization    =    50.74 Bohr mag/cell

     iteration # 34     ecut=    71.00 Ry     beta= 0.10
     Davidson diagonalization with overlap
     ethr =  2.25E-07,  avg # of iterations =  2.0

     total cpu time spent up to now is    35088.9 secs

     total energy              =  -10718.97215259 Ry
     Harris-Foulkes estimate   =  -10718.97189603 Ry
     estimated scf accuracy    <       0.00117937 Ry

     total magnetization       =    -2.43 Bohr mag/cell
     absolute magnetization    =    50.59 Bohr mag/cell

     iteration # 35     ecut=    71.00 Ry     beta= 0.10
     Davidson diagonalization with overlap
     ethr =  2.25E-07,  avg # of iterations =  1.1

     total cpu time spent up to now is    35803.7 secs

     total energy              =  -10718.97251886 Ry
     Harris-Foulkes estimate   =  -10718.97222724 Ry
     estimated scf accuracy    <       0.00131129 Ry

     total magnetization       =    -2.43 Bohr mag/cell
     absolute magnetization    =    50.46 Bohr mag/cell

     iteration # 36     ecut=    71.00 Ry     beta= 0.10
     Davidson diagonalization with overlap
     ethr =  2.25E-07,  avg # of iterations =  2.2

     total cpu time spent up to now is    36759.0 secs

     total energy              =  -10718.97279385 Ry
     Harris-Foulkes estimate   =  -10718.97264261 Ry
     estimated scf accuracy    <       0.00070027 Ry

     total magnetization       =    -2.44 Bohr mag/cell
     absolute magnetization    =    50.20 Bohr mag/cell

     iteration # 37     ecut=    71.00 Ry     beta= 0.10
     Davidson diagonalization with overlap
     ethr =  1.36E-07,  avg # of iterations =  1.4

     total cpu time spent up to now is    37538.6 secs

     total energy              =  -10718.97297671 Ry
     Harris-Foulkes estimate   =  -10718.97284022 Ry
     estimated scf accuracy    <       0.00055162 Ry

     total magnetization       =    -2.44 Bohr mag/cell
     absolute magnetization    =    50.09 Bohr mag/cell

     iteration # 38     ecut=    71.00 Ry     beta= 0.10
     Davidson diagonalization with overlap
     ethr =  1.07E-07,  avg # of iterations =  2.1

     total cpu time spent up to now is    38467.0 secs

     total energy              =  -10718.97312561 Ry
     Harris-Foulkes estimate   =  -10718.97302552 Ry
     estimated scf accuracy    <       0.00037534 Ry

     total magnetization       =    -2.44 Bohr mag/cell
     absolute magnetization    =    49.94 Bohr mag/cell

     iteration # 39     ecut=    71.00 Ry     beta= 0.10
     Davidson diagonalization with overlap
     ethr =  7.30E-08,  avg # of iterations =  1.2

     total cpu time spent up to now is    39206.2 secs

     total energy              =  -10718.97321851 Ry
     Harris-Foulkes estimate   =  -10718.97314320 Ry
     estimated scf accuracy    <       0.00022295 Ry

     total magnetization       =    -2.45 Bohr mag/cell
     absolute magnetization    =    49.86 Bohr mag/cell

     iteration # 40     ecut=    71.00 Ry     beta= 0.10
     Davidson diagonalization with overlap
     ethr =  4.34E-08,  avg # of iterations =  1.3

     total cpu time spent up to now is    39960.7 secs

     total energy              =  -10718.97330052 Ry
     Harris-Foulkes estimate   =  -10718.97322649 Ry
     estimated scf accuracy    <       0.00020212 Ry

     total magnetization       =    -2.45 Bohr mag/cell
     absolute magnetization    =    49.82 Bohr mag/cell

     iteration # 41     ecut=    71.00 Ry     beta= 0.10
     Davidson diagonalization with overlap
     ethr =  3.93E-08,  avg # of iterations =  1.0

     total cpu time spent up to now is    40666.0 secs

     total energy              =  -10718.97336234 Ry
     Harris-Foulkes estimate   =  -10718.97331085 Ry
     estimated scf accuracy    <       0.00022315 Ry

     total magnetization       =    -2.45 Bohr mag/cell
     absolute magnetization    =    49.77 Bohr mag/cell

     iteration # 42     ecut=    71.00 Ry     beta= 0.10
     Davidson diagonalization with overlap
     ethr =  3.93E-08,  avg # of iterations =  1.0

     total cpu time spent up to now is    41365.8 secs

     total energy              =  -10718.97341694 Ry
     Harris-Foulkes estimate   =  -10718.97337205 Ry
     estimated scf accuracy    <       0.00016887 Ry

     total magnetization       =    -2.45 Bohr mag/cell
     absolute magnetization    =    49.73 Bohr mag/cell

     iteration # 43     ecut=    71.00 Ry     beta= 0.10
     Davidson diagonalization with overlap
     ethr =  3.29E-08,  avg # of iterations =  1.0

     total cpu time spent up to now is    42057.2 secs

     total energy              =  -10718.97346957 Ry
     Harris-Foulkes estimate   =  -10718.97342353 Ry
     estimated scf accuracy    <       0.00015867 Ry

     total magnetization       =    -2.46 Bohr mag/cell
     absolute magnetization    =    49.72 Bohr mag/cell

     iteration # 44     ecut=    71.00 Ry     beta= 0.10
     Davidson diagonalization with overlap
     ethr =  3.09E-08,  avg # of iterations =  1.0

     total cpu time spent up to now is    42750.9 secs

     total energy              =  -10718.97351622 Ry
     Harris-Foulkes estimate   =  -10718.97347575 Ry
     estimated scf accuracy    <       0.00010276 Ry

     total magnetization       =    -2.46 Bohr mag/cell
     absolute magnetization    =    49.68 Bohr mag/cell

     iteration # 45     ecut=    71.00 Ry     beta= 0.10
     Davidson diagonalization with overlap
     ethr =  2.00E-08,  avg # of iterations =  1.0

     total cpu time spent up to now is    43449.3 secs

     total energy              =  -10718.97355477 Ry
     Harris-Foulkes estimate   =  -10718.97352007 Ry
     estimated scf accuracy    <       0.00008534 Ry

     total magnetization       =    -2.46 Bohr mag/cell
     absolute magnetization    =    49.66 Bohr mag/cell

     iteration # 46     ecut=    71.00 Ry     beta= 0.10
     Davidson diagonalization with overlap
     ethr =  1.66E-08,  avg # of iterations =  1.1

     total cpu time spent up to now is    44159.5 secs

     total energy              =  -10718.97359383 Ry
     Harris-Foulkes estimate   =  -10718.97355886 Ry
     estimated scf accuracy    <       0.00009491 Ry

     total magnetization       =    -2.47 Bohr mag/cell
     absolute magnetization    =    49.64 Bohr mag/cell

     iteration # 47     ecut=    71.00 Ry     beta= 0.10
     Davidson diagonalization with overlap
     ethr =  1.66E-08,  avg # of iterations =  1.2

     total cpu time spent up to now is    44900.3 secs

     total energy              =  -10718.97362990 Ry
     Harris-Foulkes estimate   =  -10718.97360147 Ry
     estimated scf accuracy    <       0.00010286 Ry

     total magnetization       =    -2.48 Bohr mag/cell
     absolute magnetization    =    49.61 Bohr mag/cell

     iteration # 48     ecut=    71.00 Ry     beta= 0.10
     Davidson diagonalization with overlap
     ethr =  1.66E-08,  avg # of iterations =  1.2

     total cpu time spent up to now is    45625.8 secs

     total energy              =  -10718.97364816 Ry
     Harris-Foulkes estimate   =  -10718.97363667 Ry
     estimated scf accuracy    <       0.00006531 Ry

     total magnetization       =    -2.48 Bohr mag/cell
     absolute magnetization    =    49.59 Bohr mag/cell

     iteration # 49     ecut=    71.00 Ry     beta= 0.10
     Davidson diagonalization with overlap
     ethr =  1.27E-08,  avg # of iterations =  1.0

     total cpu time spent up to now is    46319.7 secs

     total energy              =  -10718.97367427 Ry
     Harris-Foulkes estimate   =  -10718.97364975 Ry
     estimated scf accuracy    <       0.00006280 Ry

     total magnetization       =    -2.48 Bohr mag/cell
     absolute magnetization    =    49.59 Bohr mag/cell

     iteration # 50     ecut=    71.00 Ry     beta= 0.10
     Davidson diagonalization with overlap
     ethr =  1.22E-08,  avg # of iterations =  1.1

     total cpu time spent up to now is    47024.9 secs

     total energy              =  -10718.97369019 Ry
     Harris-Foulkes estimate   =  -10718.97367968 Ry
     estimated scf accuracy    <       0.00005279 Ry

     total magnetization       =    -2.49 Bohr mag/cell
     absolute magnetization    =    49.57 Bohr mag/cell

     iteration # 51     ecut=    71.00 Ry     beta= 0.10
     Davidson diagonalization with overlap
     ethr =  1.03E-08,  avg # of iterations =  1.0

     total cpu time spent up to now is    47717.1 secs

     total energy              =  -10718.97370928 Ry
     Harris-Foulkes estimate   =  -10718.97369144 Ry
     estimated scf accuracy    <       0.00004879 Ry

     total magnetization       =    -2.49 Bohr mag/cell
     absolute magnetization    =    49.57 Bohr mag/cell

     iteration # 52     ecut=    71.00 Ry     beta= 0.10
     Davidson diagonalization with overlap
     ethr =  9.49E-09,  avg # of iterations =  1.0

     total cpu time spent up to now is    48421.6 secs

     total energy              =  -10718.97373372 Ry
     Harris-Foulkes estimate   =  -10718.97371281 Ry
     estimated scf accuracy    <       0.00004827 Ry

     total magnetization       =    -2.50 Bohr mag/cell
     absolute magnetization    =    49.56 Bohr mag/cell

     iteration # 53     ecut=    71.00 Ry     beta= 0.10
     Davidson diagonalization with overlap
     ethr =  9.39E-09,  avg # of iterations =  2.2

     total cpu time spent up to now is    49386.0 secs

     total energy              =  -10718.97375033 Ry
     Harris-Foulkes estimate   =  -10718.97374245 Ry
     estimated scf accuracy    <       0.00004433 Ry

     total magnetization       =    -2.51 Bohr mag/cell
     absolute magnetization    =    49.55 Bohr mag/cell

     iteration # 54     ecut=    71.00 Ry     beta= 0.10
     Davidson diagonalization with overlap
     ethr =  8.62E-09,  avg # of iterations =  1.0

     total cpu time spent up to now is    50075.6 secs

     total energy              =  -10718.97376477 Ry
     Harris-Foulkes estimate   =  -10718.97375154 Ry
     estimated scf accuracy    <       0.00003745 Ry

     total magnetization       =    -2.51 Bohr mag/cell
     absolute magnetization    =    49.55 Bohr mag/cell

     iteration # 55     ecut=    71.00 Ry     beta= 0.10
     Davidson diagonalization with overlap
     ethr =  7.29E-09,  avg # of iterations =  1.0

     total cpu time spent up to now is    50770.4 secs

     total energy              =  -10718.97377676 Ry
     Harris-Foulkes estimate   =  -10718.97376766 Ry
     estimated scf accuracy    <       0.00003633 Ry

     total magnetization       =    -2.51 Bohr mag/cell
     absolute magnetization    =    49.54 Bohr mag/cell

     iteration # 56     ecut=    71.00 Ry     beta= 0.10
     Davidson diagonalization with overlap
     ethr =  7.07E-09,  avg # of iterations =  1.0

     total cpu time spent up to now is    51463.3 secs

     total energy              =  -10718.97378900 Ry
     Harris-Foulkes estimate   =  -10718.97377834 Ry
     estimated scf accuracy    <       0.00003338 Ry

     total magnetization       =    -2.51 Bohr mag/cell
     absolute magnetization    =    49.54 Bohr mag/cell

     iteration # 57     ecut=    71.00 Ry     beta= 0.10
     Davidson diagonalization with overlap
     ethr =  6.50E-09,  avg # of iterations =  1.1

     total cpu time spent up to now is    52171.4 secs

     total energy              =  -10718.97380622 Ry
     Harris-Foulkes estimate   =  -10718.97379134 Ry
     estimated scf accuracy    <       0.00002979 Ry

     total magnetization       =    -2.52 Bohr mag/cell
     absolute magnetization    =    49.53 Bohr mag/cell

     iteration # 58     ecut=    71.00 Ry     beta= 0.10
     Davidson diagonalization with overlap
     ethr =  5.80E-09,  avg # of iterations =  2.7

     total cpu time spent up to now is    53294.7 secs

     total energy              =  -10718.97382853 Ry
     Harris-Foulkes estimate   =  -10718.97381635 Ry
     estimated scf accuracy    <       0.00003029 Ry

     total magnetization       =    -2.53 Bohr mag/cell
     absolute magnetization    =    49.52 Bohr mag/cell

     iteration # 59     ecut=    71.00 Ry     beta= 0.10
     Davidson diagonalization with overlap
     ethr =  5.80E-09,  avg # of iterations =  2.1

     total cpu time spent up to now is    54228.6 secs

     total energy              =  -10718.97384709 Ry
     Harris-Foulkes estimate   =  -10718.97383843 Ry
     estimated scf accuracy    <       0.00002970 Ry

     total magnetization       =    -2.54 Bohr mag/cell
     absolute magnetization    =    49.51 Bohr mag/cell

     iteration # 60     ecut=    71.00 Ry     beta= 0.10
     Davidson diagonalization with overlap
     ethr =  5.78E-09,  avg # of iterations =  1.3

     total cpu time spent up to now is    54977.3 secs

     total energy              =  -10718.97385710 Ry
     Harris-Foulkes estimate   =  -10718.97385132 Ry
     estimated scf accuracy    <       0.00002053 Ry

     total magnetization       =    -2.54 Bohr mag/cell
     absolute magnetization    =    49.51 Bohr mag/cell

     iteration # 61     ecut=    71.00 Ry     beta= 0.10
     Davidson diagonalization with overlap
     ethr =  3.99E-09,  avg # of iterations =  1.9

     total cpu time spent up to now is    55853.2 secs

     total energy              =  -10718.97386649 Ry
     Harris-Foulkes estimate   =  -10718.97385925 Ry
     estimated scf accuracy    <       0.00002366 Ry

     total magnetization       =    -2.55 Bohr mag/cell
     absolute magnetization    =    49.50 Bohr mag/cell

     iteration # 62     ecut=    71.00 Ry     beta= 0.10
     Davidson diagonalization with overlap
     ethr =  3.99E-09,  avg # of iterations =  2.7

     total cpu time spent up to now is    56978.0 secs

     total energy              =  -10718.97387764 Ry
     Harris-Foulkes estimate   =  -10718.97387436 Ry
     estimated scf accuracy    <       0.00001803 Ry

     total magnetization       =    -2.55 Bohr mag/cell
     absolute magnetization    =    49.49 Bohr mag/cell

     iteration # 63     ecut=    71.00 Ry     beta= 0.10
     Davidson diagonalization with overlap
     ethr =  3.51E-09,  avg # of iterations =  1.0

     total cpu time spent up to now is    57669.8 secs

     total energy              =  -10718.97388423 Ry
     Harris-Foulkes estimate   =  -10718.97387860 Ry
     estimated scf accuracy    <       0.00001758 Ry

     total magnetization       =    -2.56 Bohr mag/cell
     absolute magnetization    =    49.49 Bohr mag/cell

     iteration # 64     ecut=    71.00 Ry     beta= 0.10
     Davidson diagonalization with overlap
     ethr =  3.42E-09,  avg # of iterations =  2.0

     total cpu time spent up to now is    58594.0 secs

     total energy              =  -10718.97389296 Ry
     Harris-Foulkes estimate   =  -10718.97388870 Ry
     estimated scf accuracy    <       0.00001510 Ry

     total magnetization       =    -2.56 Bohr mag/cell
     absolute magnetization    =    49.48 Bohr mag/cell

     iteration # 65     ecut=    71.00 Ry     beta= 0.10
     Davidson diagonalization with overlap
     ethr =  2.94E-09,  avg # of iterations =  3.0

     total cpu time spent up to now is    59860.4 secs

     total energy              =  -10718.97390278 Ry
     Harris-Foulkes estimate   =  -10718.97390187 Ry
     estimated scf accuracy    <       0.00001155 Ry

     total magnetization       =    -2.57 Bohr mag/cell
     absolute magnetization    =    49.47 Bohr mag/cell

     iteration # 66     ecut=    71.00 Ry     beta= 0.10
     Davidson diagonalization with overlap
     ethr =  2.25E-09,  avg # of iterations =  1.0

     total cpu time spent up to now is    60551.4 secs

     total energy              =  -10718.97390680 Ry
     Harris-Foulkes estimate   =  -10718.97390305 Ry
     estimated scf accuracy    <       0.00001237 Ry

     total magnetization       =    -2.57 Bohr mag/cell
     absolute magnetization    =    49.47 Bohr mag/cell

     iteration # 67     ecut=    71.00 Ry     beta= 0.10
     Davidson diagonalization with overlap
     ethr =  2.25E-09,  avg # of iterations =  1.5

     total cpu time spent up to now is    61347.4 secs

     total energy              =  -10718.97391169 Ry
     Harris-Foulkes estimate   =  -10718.97390867 Ry
     estimated scf accuracy    <       0.00001073 Ry

     total magnetization       =    -2.57 Bohr mag/cell
     absolute magnetization    =    49.47 Bohr mag/cell

     iteration # 68     ecut=    71.00 Ry     beta= 0.10
     Davidson diagonalization with overlap
     ethr =  2.09E-09,  avg # of iterations =  1.3

     total cpu time spent up to now is    62092.5 secs

     total energy              =  -10718.97391581 Ry
     Harris-Foulkes estimate   =  -10718.97391293 Ry
     estimated scf accuracy    <       0.00001045 Ry

     total magnetization       =    -2.58 Bohr mag/cell
     absolute magnetization    =    49.46 Bohr mag/cell

     iteration # 69     ecut=    71.00 Ry     beta= 0.10
     Davidson diagonalization with overlap
     ethr =  2.03E-09,  avg # of iterations =  1.6

     total cpu time spent up to now is    62903.4 secs

     total energy              =  -10718.97392006 Ry
     Harris-Foulkes estimate   =  -10718.97391692 Ry
     estimated scf accuracy    <       0.00000872 Ry

     total magnetization       =    -2.58 Bohr mag/cell
     absolute magnetization    =    49.46 Bohr mag/cell

     iteration # 70     ecut=    71.00 Ry     beta= 0.10
     Davidson diagonalization with overlap
     ethr =  1.70E-09,  avg # of iterations =  2.1

     total cpu time spent up to now is    63838.0 secs

     total energy              =  -10718.97392349 Ry
     Harris-Foulkes estimate   =  -10718.97392131 Ry
     estimated scf accuracy    <       0.00000804 Ry

     total magnetization       =    -2.58 Bohr mag/cell
     absolute magnetization    =    49.46 Bohr mag/cell

     iteration # 71     ecut=    71.00 Ry     beta= 0.10
     Davidson diagonalization with overlap
     ethr =  1.56E-09,  avg # of iterations =  1.3

     total cpu time spent up to now is    64582.6 secs

     total energy              =  -10718.97392574 Ry
     Harris-Foulkes estimate   =  -10718.97392406 Ry
     estimated scf accuracy    <       0.00000731 Ry

     total magnetization       =    -2.58 Bohr mag/cell
     absolute magnetization    =    49.46 Bohr mag/cell

     iteration # 72     ecut=    71.00 Ry     beta= 0.10
     Davidson diagonalization with overlap
     ethr =  1.42E-09,  avg # of iterations =  1.1

     total cpu time spent up to now is    65288.1 secs

     total energy              =  -10718.97392881 Ry
     Harris-Foulkes estimate   =  -10718.97392609 Ry
     estimated scf accuracy    <       0.00000659 Ry

     total magnetization       =    -2.58 Bohr mag/cell
     absolute magnetization    =    49.45 Bohr mag/cell

     iteration # 73     ecut=    71.00 Ry     beta= 0.10
     Davidson diagonalization with overlap
     ethr =  1.28E-09,  avg # of iterations =  2.0

     total cpu time spent up to now is    66214.7 secs

     total energy              =  -10718.97393285 Ry
     Harris-Foulkes estimate   =  -10718.97393011 Ry
     estimated scf accuracy    <       0.00000750 Ry

     total magnetization       =    -2.58 Bohr mag/cell
     absolute magnetization    =    49.45 Bohr mag/cell

     iteration # 74     ecut=    71.00 Ry     beta= 0.10
     Davidson diagonalization with overlap
     ethr =  1.28E-09,  avg # of iterations =  2.2

     total cpu time spent up to now is    67178.1 secs

     total energy              =  -10718.97393599 Ry
     Harris-Foulkes estimate   =  -10718.97393432 Ry
     estimated scf accuracy    <       0.00000648 Ry

     total magnetization       =    -2.58 Bohr mag/cell
     absolute magnetization    =    49.45 Bohr mag/cell

     iteration # 75     ecut=    71.00 Ry     beta= 0.10
     Davidson diagonalization with overlap
     ethr =  1.26E-09,  avg # of iterations =  1.3

     total cpu time spent up to now is    67924.4 secs

     total energy              =  -10718.97393906 Ry
     Harris-Foulkes estimate   =  -10718.97393655 Ry
     estimated scf accuracy    <       0.00000645 Ry

     total magnetization       =    -2.59 Bohr mag/cell
     absolute magnetization    =    49.45 Bohr mag/cell

     iteration # 76     ecut=    71.00 Ry     beta= 0.10
     Davidson diagonalization with overlap
     ethr =  1.25E-09,  avg # of iterations =  2.6

     total cpu time spent up to now is    69025.6 secs

     total energy              =  -10718.97394372 Ry
     Harris-Foulkes estimate   =  -10718.97394159 Ry
     estimated scf accuracy    <       0.00000584 Ry

     total magnetization       =    -2.59 Bohr mag/cell
     absolute magnetization    =    49.44 Bohr mag/cell

     iteration # 77     ecut=    71.00 Ry     beta= 0.10
     Davidson diagonalization with overlap
     ethr =  1.14E-09,  avg # of iterations =  1.6

     total cpu time spent up to now is    69847.1 secs

     total energy              =  -10718.97394621 Ry
     Harris-Foulkes estimate   =  -10718.97394498 Ry
     estimated scf accuracy    <       0.00000454 Ry

     total magnetization       =    -2.59 Bohr mag/cell
     absolute magnetization    =    49.44 Bohr mag/cell

     iteration # 78     ecut=    71.00 Ry     beta= 0.10
     Davidson diagonalization with overlap
     ethr =  8.83E-10,  avg # of iterations =  1.6

     total cpu time spent up to now is    70663.2 secs

     total energy              =  -10718.97394851 Ry
     Harris-Foulkes estimate   =  -10718.97394658 Ry
     estimated scf accuracy    <       0.00000517 Ry

     total magnetization       =    -2.59 Bohr mag/cell
     absolute magnetization    =    49.44 Bohr mag/cell

     iteration # 79     ecut=    71.00 Ry     beta= 0.10
     Davidson diagonalization with overlap
     ethr =  8.83E-10,  avg # of iterations =  3.0

     total cpu time spent up to now is    71877.1 secs

     total energy              =  -10718.97395244 Ry
     Harris-Foulkes estimate   =  -10718.97395069 Ry
     estimated scf accuracy    <       0.00000469 Ry

     total magnetization       =    -2.59 Bohr mag/cell
     absolute magnetization    =    49.44 Bohr mag/cell

     iteration # 80     ecut=    71.00 Ry     beta= 0.10
     Davidson diagonalization with overlap
     ethr =  8.83E-10,  avg # of iterations =  2.5

     total cpu time spent up to now is    72923.6 secs

     total energy              =  -10718.97395541 Ry
     Harris-Foulkes estimate   =  -10718.97395415 Ry
     estimated scf accuracy    <       0.00000469 Ry

     total magnetization       =    -2.59 Bohr mag/cell
     absolute magnetization    =    49.44 Bohr mag/cell

     iteration # 81     ecut=    71.00 Ry     beta= 0.10
     Davidson diagonalization with overlap
     ethr =  8.83E-10,  avg # of iterations =  1.6

     total cpu time spent up to now is    73747.9 secs

     total energy              =  -10718.97395664 Ry
     Harris-Foulkes estimate   =  -10718.97395606 Ry
     estimated scf accuracy    <       0.00000338 Ry

     total magnetization       =    -2.59 Bohr mag/cell
     absolute magnetization    =    49.44 Bohr mag/cell

     iteration # 82     ecut=    71.00 Ry     beta= 0.10
     Davidson diagonalization with overlap
     ethr =  6.57E-10,  avg # of iterations =  3.1

     total cpu time spent up to now is    75115.7 secs

     total energy              =  -10718.97396190 Ry
     Harris-Foulkes estimate   =  -10718.97396081 Ry
     estimated scf accuracy    <       0.00000281 Ry

     total magnetization       =    -2.60 Bohr mag/cell
     absolute magnetization    =    49.43 Bohr mag/cell

     iteration # 83     ecut=    71.00 Ry     beta= 0.10
     Davidson diagonalization with overlap
     ethr =  5.47E-10,  avg # of iterations =  2.1

     total cpu time spent up to now is    76060.4 secs

     total energy              =  -10718.97396373 Ry
     Harris-Foulkes estimate   =  -10718.97396282 Ry
     estimated scf accuracy    <       0.00000269 Ry

     total magnetization       =    -2.60 Bohr mag/cell
     absolute magnetization    =    49.43 Bohr mag/cell

     iteration # 84     ecut=    71.00 Ry     beta= 0.10
     Davidson diagonalization with overlap
     ethr =  5.23E-10,  avg # of iterations =  2.4

     total cpu time spent up to now is    77060.2 secs

     total energy              =  -10718.97396206 Ry
     Harris-Foulkes estimate   =  -10718.97396444 Ry
     estimated scf accuracy    <       0.00000256 Ry

     total magnetization       =    -2.60 Bohr mag/cell
     absolute magnetization    =    49.43 Bohr mag/cell

     iteration # 85     ecut=    71.00 Ry     beta= 0.10
     Davidson diagonalization with overlap
     ethr =  4.98E-10,  avg # of iterations =  3.4

     total cpu time spent up to now is    78735.5 secs

     total energy              =  -10718.97396943 Ry
     Harris-Foulkes estimate   =  -10718.97396895 Ry
     estimated scf accuracy    <       0.00000346 Ry

     total magnetization       =    -2.60 Bohr mag/cell
     absolute magnetization    =    49.42 Bohr mag/cell

     iteration # 86     ecut=    71.00 Ry     beta= 0.10
     Davidson diagonalization with overlap
     ethr =  4.98E-10,  avg # of iterations =  1.5

     total cpu time spent up to now is    79532.6 secs

     total energy              =  -10718.97396996 Ry
     Harris-Foulkes estimate   =  -10718.97396986 Ry
     estimated scf accuracy    <       0.00000170 Ry

     total magnetization       =    -2.60 Bohr mag/cell
     absolute magnetization    =    49.42 Bohr mag/cell

     iteration # 87     ecut=    71.00 Ry     beta= 0.10
     Davidson diagonalization with overlap
     ethr =  3.31E-10,  avg # of iterations =  1.0

     total cpu time spent up to now is    80229.1 secs

     total energy              =  -10718.97397037 Ry
     Harris-Foulkes estimate   =  -10718.97397003 Ry
     estimated scf accuracy    <       0.00000190 Ry

     total magnetization       =    -2.60 Bohr mag/cell
     absolute magnetization    =    49.42 Bohr mag/cell

     iteration # 88     ecut=    71.00 Ry     beta= 0.10
     Davidson diagonalization with overlap
     ethr =  3.31E-10,  avg # of iterations =  3.0

     total cpu time spent up to now is    81468.1 secs

     total energy              =  -10718.97397181 Ry
     Harris-Foulkes estimate   =  -10718.97397143 Ry
     estimated scf accuracy    <       0.00000130 Ry

     total magnetization       =    -2.60 Bohr mag/cell
     absolute magnetization    =    49.42 Bohr mag/cell

     iteration # 89     ecut=    71.00 Ry     beta= 0.10
     Davidson diagonalization with overlap
     ethr =  2.53E-10,  avg # of iterations =  2.8

     total cpu time spent up to now is    82612.9 secs

     total energy              =  -10718.97397280 Ry
     Harris-Foulkes estimate   =  -10718.97397244 Ry
     estimated scf accuracy    <       0.00000112 Ry

     total magnetization       =    -2.60 Bohr mag/cell
     absolute magnetization    =    49.42 Bohr mag/cell

     iteration # 90     ecut=    71.00 Ry     beta= 0.10
     Davidson diagonalization with overlap
     ethr =  2.17E-10,  avg # of iterations =  2.5

     total cpu time spent up to now is    83661.7 secs

     total energy              =  -10718.97397320 Ry
     Harris-Foulkes estimate   =  -10718.97397316 Ry
     estimated scf accuracy    <       0.00000128 Ry

     total magnetization       =    -2.60 Bohr mag/cell
     absolute magnetization    =    49.42 Bohr mag/cell

     iteration # 91     ecut=    71.00 Ry     beta= 0.10
     Davidson diagonalization with overlap
     ethr =  2.17E-10,  avg # of iterations =  3.0

     total cpu time spent up to now is    84991.3 secs

     total energy              =  -10718.97397460 Ry
     Harris-Foulkes estimate   =  -10718.97397433 Ry
     estimated scf accuracy    <       0.00000109 Ry

     total magnetization       =    -2.60 Bohr mag/cell
     absolute magnetization    =    49.41 Bohr mag/cell

     iteration # 92     ecut=    71.00 Ry     beta= 0.10
     Davidson diagonalization with overlap
     ethr =  2.12E-10,  avg # of iterations =  1.6
 
     Magnetic moment per site:
     atom:    1    charge:   15.8830    magn:   -0.0802    constr:    0.0000
     atom:    2    charge:   14.3275    magn:   -1.6826    constr:    0.0000
     atom:    3    charge:   14.2121    magn:    1.7368    constr:    0.0000
     atom:    4    charge:   14.3276    magn:   -1.6798    constr:    0.0000
     atom:    5    charge:   14.2247    magn:    1.2813    constr:    0.0000
     atom:    6    charge:   14.3567    magn:   -1.4263    constr:    0.0000
     atom:    7    charge:   14.2098    magn:    1.7509    constr:    0.0000
     atom:    8    charge:   14.3278    magn:   -1.6756    constr:    0.0000
     atom:    9    charge:   14.2241    magn:    1.2041    constr:    0.0000
     atom:   10    charge:   14.3261    magn:   -1.6893    constr:    0.0000
     atom:   11    charge:   14.2281    magn:    1.5471    constr:    0.0000
     atom:   12    charge:   14.3291    magn:   -1.6734    constr:    0.0000
     atom:   13    charge:   14.2465    magn:    1.2190    constr:    0.0000
     atom:   14    charge:   14.3550    magn:   -1.4342    constr:    0.0000
     atom:   15    charge:   14.2272    magn:    1.5574    constr:    0.0000
     atom:   16    charge:   14.3259    magn:   -1.6860    constr:    0.0000
     atom:   17    charge:   14.2251    magn:    1.2770    constr:    0.0000
     atom:   18    charge:   14.3285    magn:   -1.6738    constr:    0.0000
     atom:   19    charge:   14.2115    magn:    1.7380    constr:    0.0000
     atom:   20    charge:   14.3538    magn:   -1.4525    constr:    0.0000
     atom:   21    charge:   14.2617    magn:    1.3979    constr:    0.0000
     atom:   22    charge:   14.3523    magn:   -1.4593    constr:    0.0000
     atom:   23    charge:   14.2101    magn:    1.7444    constr:    0.0000
     atom:   24    charge:   14.3557    magn:   -1.4380    constr:    0.0000
     atom:   25    charge:   14.2468    magn:    1.2186    constr:    0.0000
     atom:   26    charge:   14.3290    magn:   -1.6717    constr:    0.0000
     atom:   27    charge:   14.2256    magn:    1.5529    constr:    0.0000
     atom:   28    charge:   14.3555    magn:   -1.4472    constr:    0.0000
     atom:   29    charge:   14.2275    magn:    1.5075    constr:    0.0000
     atom:   30    charge:   14.3530    magn:   -1.4582    constr:    0.0000
     atom:   31    charge:   14.2266    magn:    1.5510    constr:    0.0000
     atom:   32    charge:   14.3528    magn:   -1.4478    constr:    0.0000

     total cpu time spent up to now is    85811.6 secs

     End of self-consistent calculation

     Number of k-points >= 100: set verbosity='high' to print the bands.

     the Fermi energy is    20.0922 ev

!    total energy              =  -10718.97397489 Ry
     Harris-Foulkes estimate   =  -10718.97397482 Ry
     estimated scf accuracy    <       0.00000087 Ry

     total all-electron energy =    -89004.193178 Ry

     The total energy is the sum of the following terms:

     one-electron contribution =   -3282.12162658 Ry
     hartree contribution      =    1992.79825712 Ry
     xc contribution           =    -890.12511674 Ry
     ewald contribution        =   -5717.54606889 Ry
     one-center paw contrib.   =   -2821.98710423 Ry
     smearing contrib. (-TS)   =       0.00768444 Ry

     total magnetization       =    -2.61 Bohr mag/cell
     absolute magnetization    =    49.41 Bohr mag/cell

     convergence has been achieved in  92 iterations

     Forces acting on atoms (cartesian axes, Ry/au):

     atom    1 type  1   force =    -0.00028044   -0.00014965    0.00005541
     atom    2 type  3   force =    -0.00049417    0.00136087   -0.00029379
     atom    3 type  4   force =     0.00045388   -0.00024589   -0.00265439
     atom    4 type  5   force =     0.00051794   -0.00135511   -0.00138908
     atom    5 type  2   force =    -0.00194836   -0.00148691    0.00103041
     atom    6 type  3   force =    -0.00094020    0.00215061   -0.00016896
     atom    7 type  4   force =    -0.00113818   -0.00128935    0.00175600
     atom    8 type  5   force =    -0.00016685   -0.00027318   -0.00143889
     atom    9 type  2   force =    -0.00112854   -0.00032638    0.00041331
     atom   10 type  3   force =    -0.00059285   -0.00116666   -0.00284665
     atom   11 type  4   force =    -0.00128246   -0.00095758   -0.00136073
     atom   12 type  5   force =    -0.00021822   -0.00042116   -0.00015937
     atom   13 type  2   force =    -0.00096346   -0.00118178   -0.00068801
     atom   14 type  3   force =    -0.00037276   -0.00056033    0.00181137
     atom   15 type  4   force =    -0.00193823    0.00161309    0.00196333
     atom   16 type  5   force =     0.00261825    0.00185789    0.00096725
     atom   17 type  2   force =    -0.00102583    0.00068911    0.00036346
     atom   18 type  3   force =     0.00096009   -0.00027078    0.00131291
     atom   19 type  4   force =     0.00318991    0.00073290   -0.00109389
     atom   20 type  5   force =     0.00042783    0.00096928    0.00084743
     atom   21 type  2   force =     0.00075524   -0.00199874    0.00074857
     atom   22 type  3   force =    -0.00040660    0.00298140    0.00080185
     atom   23 type  4   force =     0.00049591   -0.00007400    0.00004496
     atom   24 type  5   force =     0.00008755    0.00074831    0.00007923
     atom   25 type  2   force =     0.00092887   -0.00066623    0.00179332
     atom   26 type  3   force =     0.00141268   -0.00138232   -0.00155284
     atom   27 type  4   force =    -0.00052977    0.00085940    0.00021346
     atom   28 type  5   force =    -0.00071334    0.00091585   -0.00055159
     atom   29 type  2   force =     0.00350416   -0.00110948   -0.00032292
     atom   30 type  3   force =    -0.00098045   -0.00036500    0.00117218
     atom   31 type  4   force =     0.00002706   -0.00012242   -0.00101667
     atom   32 type  5   force =    -0.00025866    0.00052428    0.00016335

     Total force =     0.011971     Total SCF correction =     0.005027
     SCF correction compared to forces is large: reduce conv_thr to get better values


     Computing stress (Cartesian axis) and pressure

          total   stress  (Ry/bohr**3)                   (kbar)     P=    5.07
   0.00003856   0.00000071   0.00000088          5.67      0.11      0.13
   0.00000071   0.00002682  -0.00000119          0.11      3.94     -0.17
   0.00000088  -0.00000119   0.00003804          0.13     -0.17      5.60


     Writing output data file CTXfrgOdtTXDcHqQ.save/
-------------------------------------------------------
Primary job  terminated normally, but 1 process returned
a non-zero exit code.. Per user-direction, the job has been aborted.
-------------------------------------------------------
--------------------------------------------------------------------------
mpirun detected that one or more processes exited with non-zero status, thus causing
the job to be terminated. The first process to do so was:

  Process name: [[31628,1],0]
  Exit code:    38
--------------------------------------------------------------------------

=------------------------------------------------------------------------------=
   JOB DONE.
=------------------------------------------------------------------------------=
