--------------------------------------------------------------------------
WARNING: No preset parameters were found for the device that Open MPI
detected:

  Local host:            bear-pg0206u13b
  Device name:           mlx5_0
  Device vendor ID:      0x02c9
  Device vendor part ID: 4123

Default device parameters will be used, which may result in lower
performance.  You can edit any of the files specified by the
btl_openib_device_param_files MCA parameter to set values for your
device.

NOTE: You can turn off this warning by setting the MCA parameter
      btl_openib_warn_no_device_params_found to 0.
--------------------------------------------------------------------------
--------------------------------------------------------------------------
WARNING: There was an error initializing an OpenFabrics device.

  Local host:   bear-pg0206u13b
  Local device: mlx5_0
--------------------------------------------------------------------------

     Program PWSCF v.6.3 starts on 14Oct2020 at 11:55:46 

     This program is part of the open-source Quantum ESPRESSO suite
     for quantum simulation of materials; please cite
         "P. Giannozzi et al., J. Phys.:Condens. Matter 21 395502 (2009);
         "P. Giannozzi et al., J. Phys.:Condens. Matter 29 465901 (2017);
          URL http://www.quantum-espresso.org", 
     in publications or presentations arising from this work. More details at
     http://www.quantum-espresso.org/quote

     Parallel version (MPI & OpenMP), running on      40 processor cores
     Number of MPI processes:                40
     Threads/MPI process:                     1

     MPI processes distributed on     1 nodes
     R & G space division:  proc/nbgrp/npool/nimage =      40
     Reading input from wd/ec/ec_5_003.in
Warning: card &IONS ignored
Warning: card ION_DYNAMICS = 'BFGS', ignored
Warning: card / ignored
Warning: card &CELL ignored
Warning: card CELL_DYNAMICS = 'BFGS', ignored
Warning: card CELL_FACTOR = 2.0, ignored
Warning: card PRESS = 0.0, ignored
Warning: card / ignored

     Current dimensions of program PWSCF are:
     Max number of different atomic species (ntypx) = 10
     Max number of k-points (npk) =  40000
     Max angular momentum in pseudopotentials (lmaxx) =  3
               file Fe.pbe-spn-kjpaw_psl.1.0.0.UPF: wavefunction(s)  3P 3D renormalized
               file Fe.pbe-spn-kjpaw_psl.1.0.0.UPF: wavefunction(s)  3P 3D renormalized
               file Fe.pbe-spn-kjpaw_psl.1.0.0.UPF: wavefunction(s)  3P 3D renormalized
               file Fe.pbe-spn-kjpaw_psl.1.0.0.UPF: wavefunction(s)  3P 3D renormalized

     Subspace diagonalization in iterative solution of the eigenvalue problem:
     a serial algorithm will be used

     Found symmetry operation: I + (  0.0000  0.0000 -0.5000)
     This is a supercell, fractional translations are disabled
 
     Parallelization info
     --------------------
     sticks:   dense  smooth     PW     G-vecs:    dense   smooth      PW
     Min         150      99     27                 8593     4612     664
     Max         151     100     28                 8599     4618     668
     Sum        6035    3993   1103               343855   184625   26623
 


     bravais-lattice index     =            0
     lattice parameter (alat)  =      12.9382  a.u.
     unit-cell volume          =    2283.7593 (a.u.)^3
     number of atoms/cell      =           32
     number of atomic types    =            4
     number of electrons       =       512.00
     number of Kohn-Sham states=          307
     kinetic-energy cutoff     =      71.0000  Ry
     charge density cutoff     =     430.0000  Ry
     convergence threshold     =      1.0E-06
     mixing beta               =       0.1000
     number of iterations used =           10  plain     mixing
     Exchange-correlation      = SLA PW PBX PBC ( 1  4  3  4 0 0)

     celldm(1)=  12.938187  celldm(2)=   0.000000  celldm(3)=   0.000000
     celldm(4)=   0.000000  celldm(5)=   0.000000  celldm(6)=   0.000000

     crystal axes: (cart. coord. in units of alat)
               a(1) = (   1.000004   0.000000   0.003333 )  
               a(2) = (   0.000000   1.054478   0.000000 )  
               a(3) = (   0.003333   0.000000   0.999991 )  

     reciprocal axes: (cart. coord. in units 2 pi/alat)
               b(1) = (  1.000007  0.000000 -0.003333 )  
               b(2) = (  0.000000  0.948337  0.000000 )  
               b(3) = ( -0.003333  0.000000  1.000020 )  


     PseudoPot. # 1 for Fe read from file:
     /rds/homes/b/bxp912/pp/Fe.pbe-spn-kjpaw_psl.1.0.0.UPF
     MD5 check sum: 42f43b795421b414b0dc916aa790dbcb
     Pseudo is Projector augmented-wave + core cor, Zval = 16.0
     Generated using "atomic" code by A. Dal Corso v.6.3
     Shape of augmentation charge: PSQ
     Using radial grid of 1191 points,  6 beta functions with: 
                l(1) =   0
                l(2) =   0
                l(3) =   1
                l(4) =   1
                l(5) =   2
                l(6) =   2
     Q(r) pseudized with 0 coefficients 


     PseudoPot. # 2 for Fe read from file:
     /rds/homes/b/bxp912/pp/Fe.pbe-spn-kjpaw_psl.1.0.0.UPF
     MD5 check sum: 42f43b795421b414b0dc916aa790dbcb
     Pseudo is Projector augmented-wave + core cor, Zval = 16.0
     Generated using "atomic" code by A. Dal Corso v.6.3
     Shape of augmentation charge: PSQ
     Using radial grid of 1191 points,  6 beta functions with: 
                l(1) =   0
                l(2) =   0
                l(3) =   1
                l(4) =   1
                l(5) =   2
                l(6) =   2
     Q(r) pseudized with 0 coefficients 


     PseudoPot. # 3 for Fe read from file:
     /rds/homes/b/bxp912/pp/Fe.pbe-spn-kjpaw_psl.1.0.0.UPF
     MD5 check sum: 42f43b795421b414b0dc916aa790dbcb
     Pseudo is Projector augmented-wave + core cor, Zval = 16.0
     Generated using "atomic" code by A. Dal Corso v.6.3
     Shape of augmentation charge: PSQ
     Using radial grid of 1191 points,  6 beta functions with: 
                l(1) =   0
                l(2) =   0
                l(3) =   1
                l(4) =   1
                l(5) =   2
                l(6) =   2
     Q(r) pseudized with 0 coefficients 


     PseudoPot. # 4 for Fe read from file:
     /rds/homes/b/bxp912/pp/Fe.pbe-spn-kjpaw_psl.1.0.0.UPF
     MD5 check sum: 42f43b795421b414b0dc916aa790dbcb
     Pseudo is Projector augmented-wave + core cor, Zval = 16.0
     Generated using "atomic" code by A. Dal Corso v.6.3
     Shape of augmentation charge: PSQ
     Using radial grid of 1191 points,  6 beta functions with: 
                l(1) =   0
                l(2) =   0
                l(3) =   1
                l(4) =   1
                l(5) =   2
                l(6) =   2
     Q(r) pseudized with 0 coefficients 


     atomic species   valence    mass     pseudopotential
        Fe1           16.00    55.84500     Fe( 1.00)
        Fe2           16.00    55.84500     Fe( 1.00)
        Fe3           16.00    55.84500     Fe( 1.00)
        Fe4           16.00    55.84500     Fe( 1.00)

     Starting magnetic structure 
     atomic species   magnetization
        Fe1          0.100
        Fe2         -0.100
        Fe3          0.100
        Fe4         -0.100

      4 Sym. Ops., with inversion, found



   Cartesian axes

     site n.     atom                  positions (alat units)
         1           Fe1 tau(   1) = (   0.0000000   0.0000000   0.0000000  )
         2           Fe2 tau(   2) = (   0.2499978   0.2636221   0.0008333  )
         3           Fe3 tau(   3) = (   0.2508324   0.0000000   0.2508290  )
         4           Fe4 tau(   4) = (   0.0008333   0.2636207   0.2500017  )
         5           Fe1 tau(   5) = (   0.0016667   0.0000000   0.4999953  )
         6           Fe2 tau(   6) = (   0.2516672   0.2636249   0.5008287  )
         7           Fe3 tau(   7) = (   0.2524991   0.0000000   0.7508273  )
         8           Fe4 tau(   8) = (   0.0025000   0.2636207   0.7499880  )
         9           Fe1 tau(   9) = (   0.0000000   0.5272389   0.0000000  )
        10           Fe2 tau(  10) = (   0.2499978   0.7908558   0.0008333  )
        11           Fe3 tau(  11) = (   0.2508346   0.5272389   0.2508330  )
        12           Fe4 tau(  12) = (   0.0008333   0.7908572   0.2500017  )
        13           Fe1 tau(  13) = (   0.0016667   0.5272389   0.4999953  )
        14           Fe2 tau(  14) = (   0.2516672   0.7908530   0.5008287  )
        15           Fe3 tau(  15) = (   0.2525013   0.5272389   0.7508243  )
        16           Fe4 tau(  16) = (   0.0025000   0.7908572   0.7499880  )
        17           Fe1 tau(  17) = (   0.5000017   0.0000000   0.0016667  )
        18           Fe2 tau(  18) = (   0.7500054   0.2636221   0.0025000  )
        19           Fe3 tau(  19) = (   0.7508376   0.0000000   0.2524956  )
        20           Fe4 tau(  20) = (   0.5008350   0.2636197   0.2516663  )
        21           Fe1 tau(  21) = (   0.5016683   0.0000000   0.5016620  )
        22           Fe2 tau(  22) = (   0.7516693   0.2636249   0.5024953  )
        23           Fe3 tau(  23) = (   0.7525042   0.0000000   0.7524940  )
        24           Fe4 tau(  24) = (   0.5025017   0.2636197   0.7516567  )
        25           Fe1 tau(  25) = (   0.5000017   0.5272389   0.0016667  )
        26           Fe2 tau(  26) = (   0.7500054   0.7908558   0.0025000  )
        27           Fe3 tau(  27) = (   0.7508354   0.5272389   0.2524996  )
        28           Fe4 tau(  28) = (   0.5008350   0.7908583   0.2516663  )
        29           Fe1 tau(  29) = (   0.5016683   0.5272389   0.5016620  )
        30           Fe2 tau(  30) = (   0.7516693   0.7908530   0.5024953  )
        31           Fe3 tau(  31) = (   0.7525020   0.5272389   0.7524910  )
        32           Fe4 tau(  32) = (   0.5025017   0.7908583   0.7516567  )

     number of k points=   205  Marzari-Vanderbilt smearing, width (Ry)=  0.0400

     Number of k-points >= 100: set verbosity='high' to print them.

     Dense  grid:   343855 G-vectors     FFT dimensions: (  90,  96,  90)

     Smooth grid:   184625 G-vectors     FFT dimensions: (  72,  75,  72)

     Estimated max dynamical RAM per process >       1.21 GB

     Estimated total dynamical RAM >      48.54 GB
     Generating pointlists ...
     new r_m :   0.1454 (alat units)  1.8806 (a.u.) for type    1
     new r_m :   0.1454 (alat units)  1.8806 (a.u.) for type    2
     new r_m :   0.1454 (alat units)  1.8806 (a.u.) for type    3
     new r_m :   0.1454 (alat units)  1.8806 (a.u.) for type    4

     Check: negative/imaginary core charge=   -0.000006    0.000000

     Initial potential from superposition of free atoms

     starting charge  511.98600, renormalised to  512.00000
     Starting wfcs are  320 randomized atomic wfcs
     Checking if some PAW data can be deallocated... 

     total cpu time spent up to now is      137.7 secs

     Self-consistent Calculation

     iteration #  1     ecut=    71.00 Ry     beta= 0.10
     Davidson diagonalization with overlap
     ethr =  1.00E-02,  avg # of iterations =  3.7

     Threshold (ethr) on eigenvalues was too large:
     Diagonalizing with lowered threshold

     Davidson diagonalization with overlap
     ethr =  4.42E-04,  avg # of iterations =  3.8

     total cpu time spent up to now is     1714.3 secs

     total energy              =  -10536.81347955 Ry
     Harris-Foulkes estimate   =  -10537.31794994 Ry
     estimated scf accuracy    <       2.61480046 Ry

     total magnetization       =     0.58 Bohr mag/cell
     absolute magnetization    =    45.15 Bohr mag/cell

     iteration #  2     ecut=    71.00 Ry     beta= 0.10
     Davidson diagonalization with overlap
     ethr =  5.11E-04,  avg # of iterations =  1.0

     total cpu time spent up to now is     2090.3 secs

     total energy              =  -10536.41366969 Ry
     Harris-Foulkes estimate   =  -10536.87232090 Ry
     estimated scf accuracy    <       1.61180764 Ry

     total magnetization       =     0.10 Bohr mag/cell
     absolute magnetization    =    45.63 Bohr mag/cell

     iteration #  3     ecut=    71.00 Ry     beta= 0.10
     Davidson diagonalization with overlap
     ethr =  3.15E-04,  avg # of iterations =  2.2

     negative rho (up, down):  0.000E+00 6.212E-04

     total cpu time spent up to now is     2614.8 secs

     total energy              =  -10536.06668308 Ry
     Harris-Foulkes estimate   =  -10536.56328353 Ry
     estimated scf accuracy    <       2.43170992 Ry

     total magnetization       =     0.41 Bohr mag/cell
     absolute magnetization    =    45.89 Bohr mag/cell

     iteration #  4     ecut=    71.00 Ry     beta= 0.10
     Davidson diagonalization with overlap
     ethr =  3.15E-04,  avg # of iterations =  2.7

     negative rho (up, down):  0.000E+00 7.282E-04

     total cpu time spent up to now is     3223.3 secs

     total energy              =  -10536.17797264 Ry
     Harris-Foulkes estimate   =  -10536.25923390 Ry
     estimated scf accuracy    <       1.22637432 Ry

     total magnetization       =     0.29 Bohr mag/cell
     absolute magnetization    =    46.49 Bohr mag/cell

     iteration #  5     ecut=    71.00 Ry     beta= 0.10
     Davidson diagonalization with overlap
     ethr =  2.40E-04,  avg # of iterations =  1.1

     negative rho (up, down):  0.000E+00 6.346E-04

     total cpu time spent up to now is     3626.5 secs

     total energy              =  -10536.19568798 Ry
     Harris-Foulkes estimate   =  -10536.21436624 Ry
     estimated scf accuracy    <       0.10884542 Ry

     total magnetization       =     0.13 Bohr mag/cell
     absolute magnetization    =    46.71 Bohr mag/cell

     iteration #  6     ecut=    71.00 Ry     beta= 0.10
     Davidson diagonalization with overlap
     c_bands:  1 eigenvalues not converged
     ethr =  2.13E-05,  avg # of iterations =  3.2

     negative rho (up, down):  0.000E+00 5.998E-04

     total cpu time spent up to now is     4258.2 secs

     total energy              =  -10536.17654579 Ry
     Harris-Foulkes estimate   =  -10536.20066861 Ry
     estimated scf accuracy    <       0.06970205 Ry

     total magnetization       =    -0.01 Bohr mag/cell
     absolute magnetization    =    46.59 Bohr mag/cell

     iteration #  7     ecut=    71.00 Ry     beta= 0.10
     Davidson diagonalization with overlap
     ethr =  1.36E-05,  avg # of iterations =  2.9

     negative rho (up, down):  0.000E+00 6.766E-04

     total cpu time spent up to now is     4931.3 secs

     total energy              =  -10536.16092657 Ry
     Harris-Foulkes estimate   =  -10536.18290117 Ry
     estimated scf accuracy    <       0.05574178 Ry

     total magnetization       =     0.16 Bohr mag/cell
     absolute magnetization    =    46.60 Bohr mag/cell

     iteration #  8     ecut=    71.00 Ry     beta= 0.10
     Davidson diagonalization with overlap
     ethr =  1.09E-05,  avg # of iterations =  2.2

     negative rho (up, down):  0.000E+00 6.710E-04

     total cpu time spent up to now is     5501.0 secs

     total energy              =  -10536.16346332 Ry
     Harris-Foulkes estimate   =  -10536.16492439 Ry
     estimated scf accuracy    <       0.04618366 Ry

     total magnetization       =     0.10 Bohr mag/cell
     absolute magnetization    =    46.78 Bohr mag/cell

     iteration #  9     ecut=    71.00 Ry     beta= 0.10
     Davidson diagonalization with overlap
     ethr =  9.02E-06,  avg # of iterations =  1.0

     negative rho (up, down):  0.000E+00 4.903E-04

     total cpu time spent up to now is     5885.5 secs

     total energy              =  -10536.17257360 Ry
     Harris-Foulkes estimate   =  -10536.16427782 Ry
     estimated scf accuracy    <       0.04095053 Ry

     total magnetization       =     0.05 Bohr mag/cell
     absolute magnetization    =    46.84 Bohr mag/cell

     iteration # 10     ecut=    71.00 Ry     beta= 0.10
     Davidson diagonalization with overlap
     ethr =  8.00E-06,  avg # of iterations =  2.5

     total cpu time spent up to now is     6538.8 secs

     total energy              =  -10536.20503134 Ry
     Harris-Foulkes estimate   =  -10536.17806628 Ry
     estimated scf accuracy    <       0.04967292 Ry

     total magnetization       =    -0.06 Bohr mag/cell
     absolute magnetization    =    47.14 Bohr mag/cell

     iteration # 11     ecut=    71.00 Ry     beta= 0.10
     Davidson diagonalization with overlap
     ethr =  8.00E-06,  avg # of iterations =  2.7

     total cpu time spent up to now is     7282.4 secs

     total energy              =  -10536.23910972 Ry
     Harris-Foulkes estimate   =  -10536.22574301 Ry
     estimated scf accuracy    <       0.03414286 Ry

     total magnetization       =    -0.00 Bohr mag/cell
     absolute magnetization    =    47.80 Bohr mag/cell

     iteration # 12     ecut=    71.00 Ry     beta= 0.10
     Davidson diagonalization with overlap
     ethr =  6.67E-06,  avg # of iterations =  3.5

     total cpu time spent up to now is     8154.2 secs

     total energy              =  -10536.24898304 Ry
     Harris-Foulkes estimate   =  -10536.24712665 Ry
     estimated scf accuracy    <       0.01079694 Ry

     total magnetization       =     0.03 Bohr mag/cell
     absolute magnetization    =    48.17 Bohr mag/cell

     iteration # 13     ecut=    71.00 Ry     beta= 0.10
     Davidson diagonalization with overlap
     ethr =  2.11E-06,  avg # of iterations =  1.4

     total cpu time spent up to now is     8588.2 secs

     total energy              =  -10536.24661174 Ry
     Harris-Foulkes estimate   =  -10536.24949994 Ry
     estimated scf accuracy    <       0.00876630 Ry

     total magnetization       =    -0.00 Bohr mag/cell
     absolute magnetization    =    48.30 Bohr mag/cell

     iteration # 14     ecut=    71.00 Ry     beta= 0.10
     Davidson diagonalization with overlap
     ethr =  1.71E-06,  avg # of iterations =  2.7

     total cpu time spent up to now is     9266.8 secs

     total energy              =  -10536.24819544 Ry
     Harris-Foulkes estimate   =  -10536.24755268 Ry
     estimated scf accuracy    <       0.00281899 Ry

     total magnetization       =    -0.00 Bohr mag/cell
     absolute magnetization    =    48.34 Bohr mag/cell

     iteration # 15     ecut=    71.00 Ry     beta= 0.10
     Davidson diagonalization with overlap
     ethr =  5.51E-07,  avg # of iterations =  3.3

     total cpu time spent up to now is    10068.4 secs

     total energy              =  -10536.24827953 Ry
     Harris-Foulkes estimate   =  -10536.24870372 Ry
     estimated scf accuracy    <       0.00344484 Ry

     total magnetization       =     0.01 Bohr mag/cell
     absolute magnetization    =    48.54 Bohr mag/cell

     iteration # 16     ecut=    71.00 Ry     beta= 0.10
     Davidson diagonalization with overlap
     ethr =  5.51E-07,  avg # of iterations =  1.0

     total cpu time spent up to now is    10455.0 secs

     total energy              =  -10536.24869804 Ry
     Harris-Foulkes estimate   =  -10536.24842562 Ry
     estimated scf accuracy    <       0.00160677 Ry

     total magnetization       =    -0.01 Bohr mag/cell
     absolute magnetization    =    48.50 Bohr mag/cell

     iteration # 17     ecut=    71.00 Ry     beta= 0.10
     Davidson diagonalization with overlap
     ethr =  3.14E-07,  avg # of iterations =  2.8

     total cpu time spent up to now is    11081.9 secs

     total energy              =  -10536.24881530 Ry
     Harris-Foulkes estimate   =  -10536.24886401 Ry
     estimated scf accuracy    <       0.00124355 Ry

     total magnetization       =    -0.02 Bohr mag/cell
     absolute magnetization    =    48.66 Bohr mag/cell

     iteration # 18     ecut=    71.00 Ry     beta= 0.10
     Davidson diagonalization with overlap
     ethr =  2.43E-07,  avg # of iterations =  2.0

     total cpu time spent up to now is    11609.7 secs

     total energy              =  -10536.24909887 Ry
     Harris-Foulkes estimate   =  -10536.24892973 Ry
     estimated scf accuracy    <       0.00128910 Ry

     total magnetization       =     0.02 Bohr mag/cell
     absolute magnetization    =    48.68 Bohr mag/cell

     iteration # 19     ecut=    71.00 Ry     beta= 0.10
     Davidson diagonalization with overlap
     ethr =  2.43E-07,  avg # of iterations =  2.0

     total cpu time spent up to now is    12117.1 secs

     total energy              =  -10536.24930526 Ry
     Harris-Foulkes estimate   =  -10536.24923045 Ry
     estimated scf accuracy    <       0.00053509 Ry

     total magnetization       =    -0.00 Bohr mag/cell
     absolute magnetization    =    48.83 Bohr mag/cell

     iteration # 20     ecut=    71.00 Ry     beta= 0.10
     Davidson diagonalization with overlap
     ethr =  1.05E-07,  avg # of iterations =  1.1

     total cpu time spent up to now is    12525.4 secs

     total energy              =  -10536.24941145 Ry
     Harris-Foulkes estimate   =  -10536.24932749 Ry
     estimated scf accuracy    <       0.00028488 Ry

     total magnetization       =    -0.00 Bohr mag/cell
     absolute magnetization    =    48.89 Bohr mag/cell

     iteration # 21     ecut=    71.00 Ry     beta= 0.10
     Davidson diagonalization with overlap
     ethr =  5.56E-08,  avg # of iterations =  2.6

     total cpu time spent up to now is    13103.1 secs

     total energy              =  -10536.24946365 Ry
     Harris-Foulkes estimate   =  -10536.24943999 Ry
     estimated scf accuracy    <       0.00029483 Ry

     total magnetization       =     0.00 Bohr mag/cell
     absolute magnetization    =    48.99 Bohr mag/cell

     iteration # 22     ecut=    71.00 Ry     beta= 0.10
     Davidson diagonalization with overlap
     ethr =  5.56E-08,  avg # of iterations =  2.3

     total cpu time spent up to now is    13672.6 secs

     total energy              =  -10536.24951452 Ry
     Harris-Foulkes estimate   =  -10536.24949755 Ry
     estimated scf accuracy    <       0.00014774 Ry

     total magnetization       =    -0.01 Bohr mag/cell
     absolute magnetization    =    49.08 Bohr mag/cell

     iteration # 23     ecut=    71.00 Ry     beta= 0.10
     Davidson diagonalization with overlap
     ethr =  2.89E-08,  avg # of iterations =  1.9

     total cpu time spent up to now is    14162.0 secs

     total energy              =  -10536.24952905 Ry
     Harris-Foulkes estimate   =  -10536.24952091 Ry
     estimated scf accuracy    <       0.00012120 Ry

     total magnetization       =    -0.00 Bohr mag/cell
     absolute magnetization    =    49.12 Bohr mag/cell

     iteration # 24     ecut=    71.00 Ry     beta= 0.10
     Davidson diagonalization with overlap
     ethr =  2.37E-08,  avg # of iterations =  1.0

     total cpu time spent up to now is    14540.4 secs

     total energy              =  -10536.24955045 Ry
     Harris-Foulkes estimate   =  -10536.24953234 Ry
     estimated scf accuracy    <       0.00011384 Ry

     total magnetization       =    -0.00 Bohr mag/cell
     absolute magnetization    =    49.15 Bohr mag/cell

     iteration # 25     ecut=    71.00 Ry     beta= 0.10
     Davidson diagonalization with overlap
     ethr =  2.22E-08,  avg # of iterations =  2.0

     total cpu time spent up to now is    15060.1 secs

     total energy              =  -10536.24957978 Ry
     Harris-Foulkes estimate   =  -10536.24955720 Ry
     estimated scf accuracy    <       0.00010753 Ry

     total magnetization       =    -0.01 Bohr mag/cell
     absolute magnetization    =    49.18 Bohr mag/cell

     iteration # 26     ecut=    71.00 Ry     beta= 0.10
     Davidson diagonalization with overlap
     ethr =  2.10E-08,  avg # of iterations =  2.4

     total cpu time spent up to now is    15693.1 secs

     total energy              =  -10536.24960484 Ry
     Harris-Foulkes estimate   =  -10536.24959860 Ry
     estimated scf accuracy    <       0.00009328 Ry

     total magnetization       =    -0.00 Bohr mag/cell
     absolute magnetization    =    49.25 Bohr mag/cell

     iteration # 27     ecut=    71.00 Ry     beta= 0.10
     Davidson diagonalization with overlap
     ethr =  1.82E-08,  avg # of iterations =  1.0

     total cpu time spent up to now is    16087.5 secs

     total energy              =  -10536.24962044 Ry
     Harris-Foulkes estimate   =  -10536.24961024 Ry
     estimated scf accuracy    <       0.00011902 Ry

     total magnetization       =     0.00 Bohr mag/cell
     absolute magnetization    =    49.27 Bohr mag/cell

     iteration # 28     ecut=    71.00 Ry     beta= 0.10
     Davidson diagonalization with overlap
     ethr =  1.82E-08,  avg # of iterations =  2.0

     total cpu time spent up to now is    16596.0 secs

     total energy              =  -10536.24963701 Ry
     Harris-Foulkes estimate   =  -10536.24963001 Ry
     estimated scf accuracy    <       0.00004776 Ry

     total magnetization       =     0.00 Bohr mag/cell
     absolute magnetization    =    49.33 Bohr mag/cell

     iteration # 29     ecut=    71.00 Ry     beta= 0.10
     Davidson diagonalization with overlap
     ethr =  9.33E-09,  avg # of iterations =  2.4

     total cpu time spent up to now is    17250.3 secs

     total energy              =  -10536.24965037 Ry
     Harris-Foulkes estimate   =  -10536.24964764 Ry
     estimated scf accuracy    <       0.00002105 Ry

     total magnetization       =     0.00 Bohr mag/cell
     absolute magnetization    =    49.39 Bohr mag/cell

     iteration # 30     ecut=    71.00 Ry     beta= 0.10
     Davidson diagonalization with overlap
     ethr =  4.11E-09,  avg # of iterations =  1.1

     total cpu time spent up to now is    17648.6 secs

     total energy              =  -10536.24965132 Ry
     Harris-Foulkes estimate   =  -10536.24965126 Ry
     estimated scf accuracy    <       0.00001893 Ry

     total magnetization       =    -0.00 Bohr mag/cell
     absolute magnetization    =    49.41 Bohr mag/cell

     iteration # 31     ecut=    71.00 Ry     beta= 0.10
     Davidson diagonalization with overlap
     ethr =  3.70E-09,  avg # of iterations =  3.0

     total cpu time spent up to now is    18301.6 secs

     total energy              =  -10536.24965486 Ry
     Harris-Foulkes estimate   =  -10536.24965383 Ry
     estimated scf accuracy    <       0.00001139 Ry

     total magnetization       =    -0.00 Bohr mag/cell
     absolute magnetization    =    49.44 Bohr mag/cell

     iteration # 32     ecut=    71.00 Ry     beta= 0.10
     Davidson diagonalization with overlap
     ethr =  2.22E-09,  avg # of iterations =  2.4

     total cpu time spent up to now is    18883.2 secs

     total energy              =  -10536.24965485 Ry
     Harris-Foulkes estimate   =  -10536.24965687 Ry
     estimated scf accuracy    <       0.00001080 Ry

     total magnetization       =     0.00 Bohr mag/cell
     absolute magnetization    =    49.47 Bohr mag/cell

     iteration # 33     ecut=    71.00 Ry     beta= 0.10
     Davidson diagonalization with overlap
     ethr =  2.11E-09,  avg # of iterations =  1.0

     total cpu time spent up to now is    19263.4 secs

     total energy              =  -10536.24965605 Ry
     Harris-Foulkes estimate   =  -10536.24965527 Ry
     estimated scf accuracy    <       0.00000598 Ry

     total magnetization       =     0.00 Bohr mag/cell
     absolute magnetization    =    49.47 Bohr mag/cell

     iteration # 34     ecut=    71.00 Ry     beta= 0.10
     Davidson diagonalization with overlap
     ethr =  1.17E-09,  avg # of iterations =  1.0

     total cpu time spent up to now is    19652.1 secs

     total energy              =  -10536.24965716 Ry
     Harris-Foulkes estimate   =  -10536.24965619 Ry
     estimated scf accuracy    <       0.00000472 Ry

     total magnetization       =     0.00 Bohr mag/cell
     absolute magnetization    =    49.48 Bohr mag/cell

     iteration # 35     ecut=    71.00 Ry     beta= 0.10
     Davidson diagonalization with overlap
     ethr =  9.23E-10,  avg # of iterations =  2.0

     total cpu time spent up to now is    20151.8 secs

     total energy              =  -10536.24965850 Ry
     Harris-Foulkes estimate   =  -10536.24965738 Ry
     estimated scf accuracy    <       0.00000441 Ry

     total magnetization       =     0.00 Bohr mag/cell
     absolute magnetization    =    49.49 Bohr mag/cell

     iteration # 36     ecut=    71.00 Ry     beta= 0.10
     Davidson diagonalization with overlap
     ethr =  8.61E-10,  avg # of iterations =  1.5

     total cpu time spent up to now is    20599.7 secs

     total energy              =  -10536.24966076 Ry
     Harris-Foulkes estimate   =  -10536.24965864 Ry
     estimated scf accuracy    <       0.00000409 Ry

     total magnetization       =     0.00 Bohr mag/cell
     absolute magnetization    =    49.49 Bohr mag/cell

     iteration # 37     ecut=    71.00 Ry     beta= 0.10
     Davidson diagonalization with overlap
     ethr =  7.99E-10,  avg # of iterations =  2.1

     total cpu time spent up to now is    21159.2 secs

     total energy              =  -10536.24966240 Ry
     Harris-Foulkes estimate   =  -10536.24966120 Ry
     estimated scf accuracy    <       0.00000504 Ry

     total magnetization       =     0.00 Bohr mag/cell
     absolute magnetization    =    49.50 Bohr mag/cell

     iteration # 38     ecut=    71.00 Ry     beta= 0.10
     Davidson diagonalization with overlap
     ethr =  7.99E-10,  avg # of iterations =  1.4

     total cpu time spent up to now is    21599.0 secs

     total energy              =  -10536.24966354 Ry
     Harris-Foulkes estimate   =  -10536.24966261 Ry
     estimated scf accuracy    <       0.00000308 Ry

     total magnetization       =     0.00 Bohr mag/cell
     absolute magnetization    =    49.51 Bohr mag/cell

     iteration # 39     ecut=    71.00 Ry     beta= 0.10
     Davidson diagonalization with overlap
     ethr =  6.02E-10,  avg # of iterations =  1.0

     total cpu time spent up to now is    21983.2 secs

     total energy              =  -10536.24966477 Ry
     Harris-Foulkes estimate   =  -10536.24966368 Ry
     estimated scf accuracy    <       0.00000355 Ry

     total magnetization       =     0.00 Bohr mag/cell
     absolute magnetization    =    49.51 Bohr mag/cell

     iteration # 40     ecut=    71.00 Ry     beta= 0.10
     Davidson diagonalization with overlap
     ethr =  6.02E-10,  avg # of iterations =  2.4

     total cpu time spent up to now is    22541.3 secs

     total energy              =  -10536.24966583 Ry
     Harris-Foulkes estimate   =  -10536.24966512 Ry
     estimated scf accuracy    <       0.00000253 Ry

     total magnetization       =     0.00 Bohr mag/cell
     absolute magnetization    =    49.53 Bohr mag/cell

     iteration # 41     ecut=    71.00 Ry     beta= 0.10
     Davidson diagonalization with overlap
     ethr =  4.95E-10,  avg # of iterations =  2.8

     total cpu time spent up to now is    23235.0 secs

     total energy              =  -10536.24966625 Ry
     Harris-Foulkes estimate   =  -10536.24966626 Ry
     estimated scf accuracy    <       0.00000131 Ry

     total magnetization       =     0.00 Bohr mag/cell
     absolute magnetization    =    49.54 Bohr mag/cell

     iteration # 42     ecut=    71.00 Ry     beta= 0.10
     Davidson diagonalization with overlap
     ethr =  2.56E-10,  avg # of iterations =  3.0
 
     Magnetic moment per site:
     atom:    1    charge:   14.3706    magn:    1.4870    constr:    0.0000
     atom:    2    charge:   14.3706    magn:   -1.4910    constr:    0.0000
     atom:    3    charge:   14.3698    magn:    1.4959    constr:    0.0000
     atom:    4    charge:   14.3706    magn:   -1.4919    constr:    0.0000
     atom:    5    charge:   14.3706    magn:    1.4877    constr:    0.0000
     atom:    6    charge:   14.3706    magn:   -1.4903    constr:    0.0000
     atom:    7    charge:   14.3704    magn:    1.4945    constr:    0.0000
     atom:    8    charge:   14.3706    magn:   -1.4919    constr:    0.0000
     atom:    9    charge:   14.3706    magn:    1.4880    constr:    0.0000
     atom:   10    charge:   14.3706    magn:   -1.4910    constr:    0.0000
     atom:   11    charge:   14.3702    magn:    1.4940    constr:    0.0000
     atom:   12    charge:   14.3706    magn:   -1.4919    constr:    0.0000
     atom:   13    charge:   14.3706    magn:    1.4884    constr:    0.0000
     atom:   14    charge:   14.3706    magn:   -1.4903    constr:    0.0000
     atom:   15    charge:   14.3702    magn:    1.4943    constr:    0.0000
     atom:   16    charge:   14.3706    magn:   -1.4919    constr:    0.0000
     atom:   17    charge:   14.3706    magn:    1.4875    constr:    0.0000
     atom:   18    charge:   14.3706    magn:   -1.4910    constr:    0.0000
     atom:   19    charge:   14.3704    magn:    1.4945    constr:    0.0000
     atom:   20    charge:   14.3705    magn:   -1.4917    constr:    0.0000
     atom:   21    charge:   14.3706    magn:    1.4880    constr:    0.0000
     atom:   22    charge:   14.3706    magn:   -1.4903    constr:    0.0000
     atom:   23    charge:   14.3698    magn:    1.4959    constr:    0.0000
     atom:   24    charge:   14.3705    magn:   -1.4917    constr:    0.0000
     atom:   25    charge:   14.3705    magn:    1.4877    constr:    0.0000
     atom:   26    charge:   14.3706    magn:   -1.4910    constr:    0.0000
     atom:   27    charge:   14.3702    magn:    1.4943    constr:    0.0000
     atom:   28    charge:   14.3705    magn:   -1.4917    constr:    0.0000
     atom:   29    charge:   14.3704    magn:    1.4878    constr:    0.0000
     atom:   30    charge:   14.3706    magn:   -1.4903    constr:    0.0000
     atom:   31    charge:   14.3702    magn:    1.4940    constr:    0.0000
     atom:   32    charge:   14.3705    magn:   -1.4917    constr:    0.0000

     total cpu time spent up to now is    23937.3 secs

     End of self-consistent calculation

     Number of k-points >= 100: set verbosity='high' to print the bands.

     the Fermi energy is    20.1184 ev

!    total energy              =  -10536.24966678 Ry
     Harris-Foulkes estimate   =  -10536.24966667 Ry
     estimated scf accuracy    <       0.00000082 Ry

     total all-electron energy =    -81457.738725 Ry

     The total energy is the sum of the following terms:

     one-electron contribution =   -3292.42469735 Ry
     hartree contribution      =    1996.53467494 Ry
     xc contribution           =    -886.95778056 Ry
     ewald contribution        =   -5703.85577641 Ry
     one-center paw contrib.   =   -2649.56052703 Ry
     smearing contrib. (-TS)   =       0.01443962 Ry

     total magnetization       =     0.00 Bohr mag/cell
     absolute magnetization    =    49.56 Bohr mag/cell

     convergence has been achieved in  42 iterations

     Forces acting on atoms (cartesian axes, Ry/au):

     atom    1 type  1   force =     0.00000000    0.00000000    0.00000000
     atom    2 type  2   force =    -0.00000213    0.00003933   -0.00005745
     atom    3 type  3   force =     0.00000494    0.00000000   -0.00003640
     atom    4 type  4   force =    -0.00000423   -0.00003232    0.00001559
     atom    5 type  1   force =     0.00000000    0.00000000    0.00000000
     atom    6 type  2   force =     0.00002403    0.00002811    0.00000499
     atom    7 type  3   force =     0.00002259    0.00000000   -0.00001644
     atom    8 type  4   force =     0.00000423   -0.00003232   -0.00001559
     atom    9 type  1   force =     0.00000000    0.00000000    0.00000000
     atom   10 type  2   force =    -0.00000213   -0.00003933   -0.00005745
     atom   11 type  3   force =    -0.00002216    0.00000000   -0.00001365
     atom   12 type  4   force =    -0.00000423    0.00003232    0.00001559
     atom   13 type  1   force =     0.00000000    0.00000000    0.00000000
     atom   14 type  2   force =     0.00002403   -0.00002811    0.00000499
     atom   15 type  3   force =     0.00006024    0.00000000   -0.00000627
     atom   16 type  4   force =     0.00000423    0.00003232   -0.00001559
     atom   17 type  1   force =     0.00000000    0.00000000    0.00000000
     atom   18 type  2   force =     0.00000213    0.00003933    0.00005745
     atom   19 type  3   force =    -0.00002259    0.00000000    0.00001644
     atom   20 type  4   force =    -0.00004364    0.00001139   -0.00000268
     atom   21 type  1   force =     0.00000000    0.00000000    0.00000000
     atom   22 type  2   force =    -0.00002403    0.00002811   -0.00000499
     atom   23 type  3   force =    -0.00000494    0.00000000    0.00003640
     atom   24 type  4   force =     0.00004364    0.00001139    0.00000268
     atom   25 type  1   force =     0.00000000    0.00000000    0.00000000
     atom   26 type  2   force =     0.00000213   -0.00003933    0.00005745
     atom   27 type  3   force =    -0.00006024    0.00000000    0.00000627
     atom   28 type  4   force =    -0.00004364   -0.00001139   -0.00000268
     atom   29 type  1   force =     0.00000000    0.00000000    0.00000000
     atom   30 type  2   force =    -0.00002403   -0.00002811   -0.00000499
     atom   31 type  3   force =     0.00002216    0.00000000    0.00001365
     atom   32 type  4   force =     0.00004364   -0.00001139    0.00000268

     Total force =     0.000227     Total SCF correction =     0.001540
     SCF correction compared to forces is large: reduce conv_thr to get better values


     Computing stress (Cartesian axis) and pressure

          total   stress  (Ry/bohr**3)                   (kbar)     P=   -0.26
  -0.00000236   0.00000000  -0.00012257         -0.35      0.00    -18.03
   0.00000000  -0.00000049   0.00000000          0.00     -0.07      0.00
  -0.00012257   0.00000000  -0.00000245        -18.03      0.00     -0.36


     Writing output data file vjYYLRGMMRealLUf.save/
-------------------------------------------------------
Primary job  terminated normally, but 1 process returned
a non-zero exit code.. Per user-direction, the job has been aborted.
-------------------------------------------------------
--------------------------------------------------------------------------
mpirun detected that one or more processes exited with non-zero status, thus causing
the job to be terminated. The first process to do so was:

  Process name: [[41955,1],0]
  Exit code:    38
--------------------------------------------------------------------------
