--------------------------------------------------------------------------
WARNING: No preset parameters were found for the device that Open MPI
detected:

  Local host:            bear-pg0206u26a
  Device name:           mlx5_0
  Device vendor ID:      0x02c9
  Device vendor part ID: 4123

Default device parameters will be used, which may result in lower
performance.  You can edit any of the files specified by the
btl_openib_device_param_files MCA parameter to set values for your
device.

NOTE: You can turn off this warning by setting the MCA parameter
      btl_openib_warn_no_device_params_found to 0.
--------------------------------------------------------------------------
--------------------------------------------------------------------------
WARNING: There was an error initializing an OpenFabrics device.

  Local host:   bear-pg0206u26a
  Local device: mlx5_0
--------------------------------------------------------------------------

     Program PWSCF v.6.3 starts on  2Nov2020 at 16:26:29 

     This program is part of the open-source Quantum ESPRESSO suite
     for quantum simulation of materials; please cite
         "P. Giannozzi et al., J. Phys.:Condens. Matter 21 395502 (2009);
         "P. Giannozzi et al., J. Phys.:Condens. Matter 29 465901 (2017);
          URL http://www.quantum-espresso.org", 
     in publications or presentations arising from this work. More details at
     http://www.quantum-espresso.org/quote

     Parallel version (MPI & OpenMP), running on      40 processor cores
     Number of MPI processes:                40
     Threads/MPI process:                     1

     MPI processes distributed on     1 nodes
     R & G space division:  proc/nbgrp/npool/nimage =      40
     Reading input from wd/ec/ec_7_002.in
Warning: card &IONS ignored
Warning: card ION_DYNAMICS = 'BFGS', ignored
Warning: card / ignored
Warning: card &CELL ignored
Warning: card CELL_DYNAMICS = 'BFGS', ignored
Warning: card CELL_FACTOR = 2.0, ignored
Warning: card PRESS = 0.0, ignored
Warning: card / ignored

     Current dimensions of program PWSCF are:
     Max number of different atomic species (ntypx) = 10
     Max number of k-points (npk) =  40000
     Max angular momentum in pseudopotentials (lmaxx) =  3
               file Fe.pbe-spn-kjpaw_psl.1.0.0.UPF: wavefunction(s)  3P 3D renormalized
               file Fe.pbe-spn-kjpaw_psl.1.0.0.UPF: wavefunction(s)  3P 3D renormalized

     Subspace diagonalization in iterative solution of the eigenvalue problem:
     a serial algorithm will be used

     Found symmetry operation: I + (  0.0000  0.0000 -0.5000)
     This is a supercell, fractional translations are disabled
 
     Parallelization info
     --------------------
     sticks:   dense  smooth     PW     G-vecs:    dense   smooth      PW
     Min          95      63     17                 4471     2401     356
     Max          96      64     19                 4478     2406     362
     Sum        3833    2537    717               178981    96113   14347
 


     bravais-lattice index     =            0
     lattice parameter (alat)  =      10.5935  a.u.
     unit-cell volume          =    1188.8329 (a.u.)^3
     number of atoms/cell      =           16
     number of atomic types    =            2
     number of electrons       =       256.00
     number of Kohn-Sham states=          154
     kinetic-energy cutoff     =      71.0000  Ry
     charge density cutoff     =     430.0000  Ry
     convergence threshold     =      1.0E-06
     mixing beta               =       0.1000
     number of iterations used =           10  plain     mixing
     Exchange-correlation      = SLA PW PBX PBC ( 1  4  3  4 0 0)

     celldm(1)=  10.593520  celldm(2)=   0.000000  celldm(3)=   0.000000
     celldm(4)=   0.000000  celldm(5)=   0.000000  celldm(6)=   0.000000

     crystal axes: (cart. coord. in units of alat)
               a(1) = (   1.000667   0.000000   0.000000 )  
               a(2) = (   0.000000   0.999333   0.000000 )  
               a(3) = (   0.000000   0.000000   1.000000 )  

     reciprocal axes: (cart. coord. in units 2 pi/alat)
               b(1) = (  0.999334  0.000000  0.000000 )  
               b(2) = (  0.000000  1.000667  0.000000 )  
               b(3) = (  0.000000  0.000000  1.000000 )  


     PseudoPot. # 1 for Fe read from file:
     /rds/homes/b/bxp912/pp/Fe.pbe-spn-kjpaw_psl.1.0.0.UPF
     MD5 check sum: 42f43b795421b414b0dc916aa790dbcb
     Pseudo is Projector augmented-wave + core cor, Zval = 16.0
     Generated using "atomic" code by A. Dal Corso v.6.3
     Shape of augmentation charge: PSQ
     Using radial grid of 1191 points,  6 beta functions with: 
                l(1) =   0
                l(2) =   0
                l(3) =   1
                l(4) =   1
                l(5) =   2
                l(6) =   2
     Q(r) pseudized with 0 coefficients 


     PseudoPot. # 2 for Fe read from file:
     /rds/homes/b/bxp912/pp/Fe.pbe-spn-kjpaw_psl.1.0.0.UPF
     MD5 check sum: 42f43b795421b414b0dc916aa790dbcb
     Pseudo is Projector augmented-wave + core cor, Zval = 16.0
     Generated using "atomic" code by A. Dal Corso v.6.3
     Shape of augmentation charge: PSQ
     Using radial grid of 1191 points,  6 beta functions with: 
                l(1) =   0
                l(2) =   0
                l(3) =   1
                l(4) =   1
                l(5) =   2
                l(6) =   2
     Q(r) pseudized with 0 coefficients 


     atomic species   valence    mass     pseudopotential
        Fe1           16.00    55.84500     Fe( 1.00)
        Fe2           16.00    55.84500     Fe( 1.00)

     Starting magnetic structure 
     atomic species   magnetization
        Fe1          0.100
        Fe2          0.100

      8 Sym. Ops., with inversion, found



   Cartesian axes

     site n.     atom                  positions (alat units)
         1           Fe1 tau(   1) = (   0.0000000   0.0000000   0.0000000  )
         2           Fe2 tau(   2) = (   0.2501671   0.2498338   0.2500005  )
         3           Fe1 tau(   3) = (   0.0000000   0.0000000   0.5000001  )
         4           Fe2 tau(   4) = (   0.2501671   0.2498338   0.7499997  )
         5           Fe1 tau(   5) = (   0.0000000   0.4996667   0.0000000  )
         6           Fe2 tau(   6) = (   0.2501671   0.7494997   0.2500005  )
         7           Fe1 tau(   7) = (   0.0000000   0.4996667   0.5000001  )
         8           Fe2 tau(   8) = (   0.2501671   0.7494997   0.7499997  )
         9           Fe1 tau(   9) = (   0.5003334   0.0000000   0.0000000  )
        10           Fe2 tau(  10) = (   0.7504997   0.2498338   0.2500005  )
        11           Fe1 tau(  11) = (   0.5003334   0.0000000   0.5000001  )
        12           Fe2 tau(  12) = (   0.7504997   0.2498338   0.7499997  )
        13           Fe1 tau(  13) = (   0.5003334   0.4996667   0.0000000  )
        14           Fe2 tau(  14) = (   0.7504997   0.7494997   0.2500005  )
        15           Fe1 tau(  15) = (   0.5003334   0.4996667   0.5000001  )
        16           Fe2 tau(  16) = (   0.7504997   0.7494997   0.7499997  )

     number of k points=   125  Marzari-Vanderbilt smearing, width (Ry)=  0.0400

     Number of k-points >= 100: set verbosity='high' to print them.

     Dense  grid:   178981 G-vectors     FFT dimensions: (  72,  72,  72)

     Smooth grid:    96113 G-vectors     FFT dimensions: (  60,  60,  60)

     Estimated max dynamical RAM per process >     215.38 MB

     Estimated total dynamical RAM >       8.41 GB
     Generating pointlists ...
     new r_m :   0.1786 (alat units)  1.8922 (a.u.) for type    1
     new r_m :   0.1786 (alat units)  1.8922 (a.u.) for type    2

     Check: negative/imaginary core charge=   -0.000006    0.000000

     Initial potential from superposition of free atoms

     starting charge  255.99300, renormalised to  256.00000
     Starting wfcs are  160 randomized atomic wfcs
     Checking if some PAW data can be deallocated... 

     total cpu time spent up to now is       23.9 secs

     Self-consistent Calculation

     iteration #  1     ecut=    71.00 Ry     beta= 0.10
     Davidson diagonalization with overlap
     ethr =  1.00E-02,  avg # of iterations =  3.4

     Threshold (ethr) on eigenvalues was too large:
     Diagonalizing with lowered threshold

     Davidson diagonalization with overlap
     ethr =  2.83E-04,  avg # of iterations =  3.4

     total cpu time spent up to now is      211.4 secs

     total energy              =   -5268.17613091 Ry
     Harris-Foulkes estimate   =   -5268.32785524 Ry
     estimated scf accuracy    <       0.82070563 Ry

     total magnetization       =    28.04 Bohr mag/cell
     absolute magnetization    =    28.41 Bohr mag/cell

     iteration #  2     ecut=    71.00 Ry     beta= 0.10
     Davidson diagonalization with overlap
     ethr =  3.21E-04,  avg # of iterations =  1.0

     total cpu time spent up to now is      267.1 secs

     total energy              =   -5268.07003817 Ry
     Harris-Foulkes estimate   =   -5268.19493981 Ry
     estimated scf accuracy    <       0.49788994 Ry

     total magnetization       =    28.67 Bohr mag/cell
     absolute magnetization    =    28.96 Bohr mag/cell

     iteration #  3     ecut=    71.00 Ry     beta= 0.10
     Davidson diagonalization with overlap
     ethr =  1.94E-04,  avg # of iterations =  2.5

     total cpu time spent up to now is      342.8 secs

     total energy              =   -5268.03739562 Ry
     Harris-Foulkes estimate   =   -5268.11679732 Ry
     estimated scf accuracy    <       0.57453882 Ry

     total magnetization       =    29.37 Bohr mag/cell
     absolute magnetization    =    29.71 Bohr mag/cell

     iteration #  4     ecut=    71.00 Ry     beta= 0.10
     Davidson diagonalization with overlap
     ethr =  1.94E-04,  avg # of iterations =  2.1

     total cpu time spent up to now is      412.6 secs

     total energy              =   -5268.06935498 Ry
     Harris-Foulkes estimate   =   -5268.07313248 Ry
     estimated scf accuracy    <       0.17831542 Ry

     total magnetization       =    30.20 Bohr mag/cell
     absolute magnetization    =    30.58 Bohr mag/cell

     iteration #  5     ecut=    71.00 Ry     beta= 0.10
     Davidson diagonalization with overlap
     ethr =  6.97E-05,  avg # of iterations =  1.3

     total cpu time spent up to now is      471.5 secs

     total energy              =   -5268.08825200 Ry
     Harris-Foulkes estimate   =   -5268.07358213 Ry
     estimated scf accuracy    <       0.11152412 Ry

     total magnetization       =    30.30 Bohr mag/cell
     absolute magnetization    =    30.70 Bohr mag/cell

     iteration #  6     ecut=    71.00 Ry     beta= 0.10
     Davidson diagonalization with overlap
     ethr =  4.36E-05,  avg # of iterations =  3.3

     total cpu time spent up to now is      575.4 secs

     total energy              =   -5268.14469950 Ry
     Harris-Foulkes estimate   =   -5268.12713188 Ry
     estimated scf accuracy    <       0.13319882 Ry

     total magnetization       =    30.92 Bohr mag/cell
     absolute magnetization    =    31.63 Bohr mag/cell

     iteration #  7     ecut=    71.00 Ry     beta= 0.10
     Davidson diagonalization with overlap
     ethr =  4.36E-05,  avg # of iterations =  2.0

     total cpu time spent up to now is      646.7 secs

     total energy              =   -5268.15341718 Ry
     Harris-Foulkes estimate   =   -5268.15261535 Ry
     estimated scf accuracy    <       0.09910417 Ry

     total magnetization       =    31.45 Bohr mag/cell
     absolute magnetization    =    32.36 Bohr mag/cell

     iteration #  8     ecut=    71.00 Ry     beta= 0.10
     Davidson diagonalization with overlap
     ethr =  3.87E-05,  avg # of iterations =  1.0

     negative rho (up, down):  0.000E+00 1.810E-03

     total cpu time spent up to now is      702.9 secs

     total energy              =   -5268.17046527 Ry
     Harris-Foulkes estimate   =   -5268.15479886 Ry
     estimated scf accuracy    <       0.07682690 Ry

     total magnetization       =    31.60 Bohr mag/cell
     absolute magnetization    =    32.58 Bohr mag/cell

     iteration #  9     ecut=    71.00 Ry     beta= 0.10
     Davidson diagonalization with overlap
     ethr =  3.00E-05,  avg # of iterations =  2.6

     negative rho (up, down):  0.000E+00 2.152E-03

     total cpu time spent up to now is      793.7 secs

     total energy              =   -5268.18952598 Ry
     Harris-Foulkes estimate   =   -5268.18777138 Ry
     estimated scf accuracy    <       0.03009629 Ry

     total magnetization       =    32.35 Bohr mag/cell
     absolute magnetization    =    33.76 Bohr mag/cell

     iteration # 10     ecut=    71.00 Ry     beta= 0.10
     Davidson diagonalization with overlap
     ethr =  1.18E-05,  avg # of iterations =  1.0

     negative rho (up, down):  0.000E+00 2.515E-03

     total cpu time spent up to now is      849.8 secs

     total energy              =   -5268.18796135 Ry
     Harris-Foulkes estimate   =   -5268.19015492 Ry
     estimated scf accuracy    <       0.01615346 Ry

     total magnetization       =    32.48 Bohr mag/cell
     absolute magnetization    =    33.94 Bohr mag/cell

     iteration # 11     ecut=    71.00 Ry     beta= 0.10
     Davidson diagonalization with overlap
     ethr =  6.31E-06,  avg # of iterations =  2.3

     negative rho (up, down):  0.000E+00 2.561E-03

     total cpu time spent up to now is      924.2 secs

     total energy              =   -5268.18874204 Ry
     Harris-Foulkes estimate   =   -5268.18895592 Ry
     estimated scf accuracy    <       0.00169559 Ry

     total magnetization       =    32.65 Bohr mag/cell
     absolute magnetization    =    34.26 Bohr mag/cell

     iteration # 12     ecut=    71.00 Ry     beta= 0.10
     Davidson diagonalization with overlap
     ethr =  6.62E-07,  avg # of iterations =  2.8

     negative rho (up, down):  0.000E+00 2.581E-03

     total cpu time spent up to now is     1005.1 secs

     total energy              =   -5268.18904333 Ry
     Harris-Foulkes estimate   =   -5268.18888640 Ry
     estimated scf accuracy    <       0.00080775 Ry

     total magnetization       =    32.70 Bohr mag/cell
     absolute magnetization    =    34.35 Bohr mag/cell

     iteration # 13     ecut=    71.00 Ry     beta= 0.10
     Davidson diagonalization with overlap
     ethr =  3.16E-07,  avg # of iterations =  2.1

     negative rho (up, down):  0.000E+00 2.531E-03

     total cpu time spent up to now is     1075.1 secs

     total energy              =   -5268.18902400 Ry
     Harris-Foulkes estimate   =   -5268.18912048 Ry
     estimated scf accuracy    <       0.00117143 Ry

     total magnetization       =    32.74 Bohr mag/cell
     absolute magnetization    =    34.42 Bohr mag/cell

     iteration # 14     ecut=    71.00 Ry     beta= 0.10
     Davidson diagonalization with overlap
     ethr =  3.16E-07,  avg # of iterations =  2.6

     negative rho (up, down):  0.000E+00 2.485E-03

     total cpu time spent up to now is     1158.5 secs

     total energy              =   -5268.18927844 Ry
     Harris-Foulkes estimate   =   -5268.18918312 Ry
     estimated scf accuracy    <       0.00052717 Ry

     total magnetization       =    32.78 Bohr mag/cell
     absolute magnetization    =    34.50 Bohr mag/cell

     iteration # 15     ecut=    71.00 Ry     beta= 0.10
     Davidson diagonalization with overlap
     ethr =  2.06E-07,  avg # of iterations =  1.3

     negative rho (up, down):  0.000E+00 2.485E-03

     total cpu time spent up to now is     1218.6 secs

     total energy              =   -5268.18934756 Ry
     Harris-Foulkes estimate   =   -5268.18930602 Ry
     estimated scf accuracy    <       0.00017570 Ry

     total magnetization       =    32.79 Bohr mag/cell
     absolute magnetization    =    34.52 Bohr mag/cell

     iteration # 16     ecut=    71.00 Ry     beta= 0.10
     Davidson diagonalization with overlap
     ethr =  6.86E-08,  avg # of iterations =  2.5

     negative rho (up, down):  0.000E+00 2.460E-03

     total cpu time spent up to now is     1297.2 secs

     total energy              =   -5268.18940841 Ry
     Harris-Foulkes estimate   =   -5268.18936434 Ry
     estimated scf accuracy    <       0.00010482 Ry

     total magnetization       =    32.82 Bohr mag/cell
     absolute magnetization    =    34.56 Bohr mag/cell

     iteration # 17     ecut=    71.00 Ry     beta= 0.10
     Davidson diagonalization with overlap
     ethr =  4.09E-08,  avg # of iterations =  2.1

     negative rho (up, down):  0.000E+00 2.396E-03

     total cpu time spent up to now is     1369.1 secs

     total energy              =   -5268.18944022 Ry
     Harris-Foulkes estimate   =   -5268.18941746 Ry
     estimated scf accuracy    <       0.00006881 Ry

     total magnetization       =    32.83 Bohr mag/cell
     absolute magnetization    =    34.58 Bohr mag/cell

     iteration # 18     ecut=    71.00 Ry     beta= 0.10
     Davidson diagonalization with overlap
     ethr =  2.69E-08,  avg # of iterations =  2.5

     negative rho (up, down):  0.000E+00 2.431E-03

     total cpu time spent up to now is     1454.6 secs

     total energy              =   -5268.18946602 Ry
     Harris-Foulkes estimate   =   -5268.18946043 Ry
     estimated scf accuracy    <       0.00003928 Ry

     total magnetization       =    32.85 Bohr mag/cell
     absolute magnetization    =    34.60 Bohr mag/cell

     iteration # 19     ecut=    71.00 Ry     beta= 0.10
     Davidson diagonalization with overlap
     ethr =  1.53E-08,  avg # of iterations =  2.5

     negative rho (up, down):  0.000E+00 2.443E-03

     total cpu time spent up to now is     1535.1 secs

     total energy              =   -5268.18947154 Ry
     Harris-Foulkes estimate   =   -5268.18947134 Ry
     estimated scf accuracy    <       0.00001915 Ry

     total magnetization       =    32.87 Bohr mag/cell
     absolute magnetization    =    34.63 Bohr mag/cell

     iteration # 20     ecut=    71.00 Ry     beta= 0.10
     Davidson diagonalization with overlap
     ethr =  7.48E-09,  avg # of iterations =  1.4

     negative rho (up, down):  0.000E+00 2.465E-03

     total cpu time spent up to now is     1595.8 secs

     total energy              =   -5268.18947234 Ry
     Harris-Foulkes estimate   =   -5268.18947256 Ry
     estimated scf accuracy    <       0.00001761 Ry

     total magnetization       =    32.87 Bohr mag/cell
     absolute magnetization    =    34.64 Bohr mag/cell

     iteration # 21     ecut=    71.00 Ry     beta= 0.10
     Davidson diagonalization with overlap
     ethr =  6.88E-09,  avg # of iterations =  2.5

     negative rho (up, down):  0.000E+00 2.468E-03

     total cpu time spent up to now is     1672.2 secs

     total energy              =   -5268.18947626 Ry
     Harris-Foulkes estimate   =   -5268.18947409 Ry
     estimated scf accuracy    <       0.00000831 Ry

     total magnetization       =    32.89 Bohr mag/cell
     absolute magnetization    =    34.65 Bohr mag/cell

     iteration # 22     ecut=    71.00 Ry     beta= 0.10
     Davidson diagonalization with overlap
     ethr =  3.25E-09,  avg # of iterations =  1.3

     negative rho (up, down):  0.000E+00 2.460E-03

     total cpu time spent up to now is     1731.1 secs

     total energy              =   -5268.18947940 Ry
     Harris-Foulkes estimate   =   -5268.18947682 Ry
     estimated scf accuracy    <       0.00000632 Ry

     total magnetization       =    32.89 Bohr mag/cell
     absolute magnetization    =    34.66 Bohr mag/cell

     iteration # 23     ecut=    71.00 Ry     beta= 0.10
     Davidson diagonalization with overlap
     ethr =  2.47E-09,  avg # of iterations =  2.7

     negative rho (up, down):  0.000E+00 2.455E-03

     total cpu time spent up to now is     1814.4 secs

     total energy              =   -5268.18948162 Ry
     Harris-Foulkes estimate   =   -5268.18948088 Ry
     estimated scf accuracy    <       0.00000166 Ry

     total magnetization       =    32.90 Bohr mag/cell
     absolute magnetization    =    34.67 Bohr mag/cell

     iteration # 24     ecut=    71.00 Ry     beta= 0.10
     Davidson diagonalization with overlap
     ethr =  6.49E-10,  avg # of iterations =  2.4

     negative rho (up, down):  0.000E+00 2.467E-03
 
     Magnetic moment per site:
     atom:    1    charge:   14.3662    magn:    2.0995    constr:    0.0000
     atom:    2    charge:   14.3663    magn:    2.1018    constr:    0.0000
     atom:    3    charge:   14.3667    magn:    2.1002    constr:    0.0000
     atom:    4    charge:   14.3663    magn:    2.1018    constr:    0.0000
     atom:    5    charge:   14.3663    magn:    2.1002    constr:    0.0000
     atom:    6    charge:   14.3663    magn:    2.1018    constr:    0.0000
     atom:    7    charge:   14.3665    magn:    2.1004    constr:    0.0000
     atom:    8    charge:   14.3663    magn:    2.1018    constr:    0.0000
     atom:    9    charge:   14.3666    magn:    2.0983    constr:    0.0000
     atom:   10    charge:   14.3663    magn:    2.1018    constr:    0.0000
     atom:   11    charge:   14.3665    magn:    2.0988    constr:    0.0000
     atom:   12    charge:   14.3663    magn:    2.1018    constr:    0.0000
     atom:   13    charge:   14.3666    magn:    2.0988    constr:    0.0000
     atom:   14    charge:   14.3663    magn:    2.1018    constr:    0.0000
     atom:   15    charge:   14.3666    magn:    2.0994    constr:    0.0000
     atom:   16    charge:   14.3663    magn:    2.1018    constr:    0.0000

     total cpu time spent up to now is     1889.0 secs

     End of self-consistent calculation

     Number of k-points >= 100: set verbosity='high' to print the bands.

     the Fermi energy is    18.9743 ev

!    total energy              =   -5268.18948379 Ry
     Harris-Foulkes estimate   =   -5268.18948178 Ry
     estimated scf accuracy    <       0.00000098 Ry

     total all-electron energy =    -40728.934013 Ry

     The total energy is the sum of the following terms:

     one-electron contribution =   -1707.43055834 Ry
     hartree contribution      =    1022.27808288 Ry
     xc contribution           =    -444.26018650 Ry
     ewald contribution        =   -2814.22991436 Ry
     one-center paw contrib.   =   -1324.67107553 Ry
     smearing contrib. (-TS)   =       0.12416804 Ry

     total magnetization       =    32.90 Bohr mag/cell
     absolute magnetization    =    34.67 Bohr mag/cell

     convergence has been achieved in  24 iterations

     negative rho (up, down):  0.000E+00 2.467E-03

     Forces acting on atoms (cartesian axes, Ry/au):

     atom    1 type  1   force =     0.00000000    0.00000000    0.00000000
     atom    2 type  2   force =    -0.00006915    0.00022201    0.00004330
     atom    3 type  1   force =     0.00000000    0.00000000    0.00000000
     atom    4 type  2   force =    -0.00006915    0.00022201   -0.00004330
     atom    5 type  1   force =     0.00000000    0.00000000    0.00000000
     atom    6 type  2   force =    -0.00006915   -0.00022201    0.00004330
     atom    7 type  1   force =     0.00000000    0.00000000    0.00000000
     atom    8 type  2   force =    -0.00006915   -0.00022201   -0.00004330
     atom    9 type  1   force =     0.00000000    0.00000000    0.00000000
     atom   10 type  2   force =     0.00006915    0.00022201    0.00004330
     atom   11 type  1   force =     0.00000000    0.00000000    0.00000000
     atom   12 type  2   force =     0.00006915    0.00022201   -0.00004330
     atom   13 type  1   force =     0.00000000    0.00000000    0.00000000
     atom   14 type  2   force =     0.00006915   -0.00022201    0.00004330
     atom   15 type  1   force =     0.00000000    0.00000000    0.00000000
     atom   16 type  2   force =     0.00006915   -0.00022201   -0.00004330

     Total force =     0.000669     Total SCF correction =     0.005213
     SCF correction compared to forces is large: reduce conv_thr to get better values


     Computing stress (Cartesian axis) and pressure


     negative rho (up, down):  0.000E+00 2.467E-03
          total   stress  (Ry/bohr**3)                   (kbar)     P=   -2.59
  -0.00002355   0.00000000   0.00000000         -3.47      0.00      0.00
   0.00000000  -0.00001184   0.00000000          0.00     -1.74      0.00
   0.00000000   0.00000000  -0.00001750          0.00      0.00     -2.57


     Writing output data file coaBoDjdEKuVzuFj.save/
 
     init_run     :     21.58s CPU     22.51s WALL (       1 calls)
     electrons    :   1808.27s CPU   1865.21s WALL (       1 calls)
     forces       :      7.40s CPU      8.16s WALL (       1 calls)
     stress       :     21.07s CPU     21.31s WALL (       1 calls)

     Called by init_run:
     wfcinit      :     21.10s CPU     21.97s WALL (       1 calls)
     potinit      :      0.21s CPU      0.23s WALL (       1 calls)
     hinit0       :      0.17s CPU      0.19s WALL (       1 calls)

     Called by electrons:
     c_bands      :   1628.47s CPU   1676.16s WALL (      25 calls)
     sum_band     :    174.68s CPU    183.31s WALL (      25 calls)
     v_of_rho     :      0.38s CPU      0.38s WALL (      25 calls)
     newd         :      0.88s CPU      1.08s WALL (      25 calls)
     PAW_pot      :      3.78s CPU      4.09s WALL (      25 calls)
     mix_rho      :      0.14s CPU      0.16s WALL (      25 calls)

     Called by c_bands:
     init_us_2    :      8.85s CPU      9.05s WALL (   13250 calls)
     cegterg      :   1583.97s CPU   1631.01s WALL (    6250 calls)

     Called by sum_band:
     sum_band:bec :      2.39s CPU      2.42s WALL (    6250 calls)
     addusdens    :      1.32s CPU      1.51s WALL (      25 calls)

     Called by *egterg:
     h_psi        :    688.00s CPU    716.92s WALL (   20200 calls)
     s_psi        :     35.85s CPU     36.07s WALL (   20200 calls)
     g_psi        :      1.47s CPU      1.49s WALL (   13700 calls)
     cdiaghg      :    701.80s CPU    704.34s WALL (   19700 calls)

     Called by h_psi:
     h_psi:pot    :    683.85s CPU    712.72s WALL (   20200 calls)
     h_psi:calbec :     55.57s CPU     64.47s WALL (   20200 calls)
     vloc_psi     :    591.42s CPU    611.15s WALL (   20200 calls)
     add_vuspsi   :     36.69s CPU     36.97s WALL (   20200 calls)

     General routines
     calbec       :     84.73s CPU     98.48s WALL (   27700 calls)
     fft          :      0.49s CPU      0.52s WALL (     667 calls)
     ffts         :      0.06s CPU      0.25s WALL (     100 calls)
     fftw         :    690.53s CPU    713.08s WALL ( 5178348 calls)
     interpolate  :      0.08s CPU      0.16s WALL (      50 calls)
 
     Parallel routines
     fft_scatt_xy :     45.26s CPU     46.73s WALL ( 5179115 calls)
     fft_scatt_yz :    465.28s CPU    480.85s WALL ( 5179115 calls)
 
     PWSCF        : 31m13.30s CPU    33m 0.71s WALL

 
   This run was terminated on:  16:59:29   2Nov2020            

=------------------------------------------------------------------------------=
   JOB DONE.
=------------------------------------------------------------------------------=
