--------------------------------------------------------------------------
WARNING: No preset parameters were found for the device that Open MPI
detected:

  Local host:            bear-pg0206u26a
  Device name:           mlx5_0
  Device vendor ID:      0x02c9
  Device vendor part ID: 4123

Default device parameters will be used, which may result in lower
performance.  You can edit any of the files specified by the
btl_openib_device_param_files MCA parameter to set values for your
device.

NOTE: You can turn off this warning by setting the MCA parameter
      btl_openib_warn_no_device_params_found to 0.
--------------------------------------------------------------------------
--------------------------------------------------------------------------
WARNING: There was an error initializing an OpenFabrics device.

  Local host:   bear-pg0206u26a
  Local device: mlx5_0
--------------------------------------------------------------------------

     Program PWSCF v.6.3 starts on  2Nov2020 at 18: 5:29 

     This program is part of the open-source Quantum ESPRESSO suite
     for quantum simulation of materials; please cite
         "P. Giannozzi et al., J. Phys.:Condens. Matter 21 395502 (2009);
         "P. Giannozzi et al., J. Phys.:Condens. Matter 29 465901 (2017);
          URL http://www.quantum-espresso.org", 
     in publications or presentations arising from this work. More details at
     http://www.quantum-espresso.org/quote

     Parallel version (MPI & OpenMP), running on      40 processor cores
     Number of MPI processes:                40
     Threads/MPI process:                     1

     MPI processes distributed on     1 nodes
     R & G space division:  proc/nbgrp/npool/nimage =      40
     Reading input from wd/ec/ec_7_005.in
Warning: card &IONS ignored
Warning: card ION_DYNAMICS = 'BFGS', ignored
Warning: card / ignored
Warning: card &CELL ignored
Warning: card CELL_DYNAMICS = 'BFGS', ignored
Warning: card CELL_FACTOR = 2.0, ignored
Warning: card PRESS = 0.0, ignored
Warning: card / ignored

     Current dimensions of program PWSCF are:
     Max number of different atomic species (ntypx) = 10
     Max number of k-points (npk) =  40000
     Max angular momentum in pseudopotentials (lmaxx) =  3
               file Fe.pbe-spn-kjpaw_psl.1.0.0.UPF: wavefunction(s)  3P 3D renormalized
               file Fe.pbe-spn-kjpaw_psl.1.0.0.UPF: wavefunction(s)  3P 3D renormalized

     Subspace diagonalization in iterative solution of the eigenvalue problem:
     a serial algorithm will be used

     Found symmetry operation: I + (  0.0000  0.0000 -0.5000)
     This is a supercell, fractional translations are disabled
 
     Parallelization info
     --------------------
     sticks:   dense  smooth     PW     G-vecs:    dense   smooth      PW
     Min          95      63     17                 4471     2401     355
     Max          96      64     18                 4476     2406     360
     Sum        3835    2549    713               178967    96157   14307
 


     bravais-lattice index     =            0
     lattice parameter (alat)  =      10.5935  a.u.
     unit-cell volume          =    1188.8329 (a.u.)^3
     number of atoms/cell      =           16
     number of atomic types    =            2
     number of electrons       =       256.00
     number of Kohn-Sham states=          154
     kinetic-energy cutoff     =      71.0000  Ry
     charge density cutoff     =     430.0000  Ry
     convergence threshold     =      1.0E-06
     mixing beta               =       0.1000
     number of iterations used =           10  plain     mixing
     Exchange-correlation      = SLA PW PBX PBC ( 1  4  3  4 0 0)

     celldm(1)=  10.593520  celldm(2)=   0.000000  celldm(3)=   0.000000
     celldm(4)=   0.000000  celldm(5)=   0.000000  celldm(6)=   0.000000

     crystal axes: (cart. coord. in units of alat)
               a(1) = (   1.002669   0.000000   0.000000 )  
               a(2) = (   0.000000   0.997336   0.000000 )  
               a(3) = (   0.000000   0.000000   1.000002 )  

     reciprocal axes: (cart. coord. in units 2 pi/alat)
               b(1) = (  0.997338  0.000000  0.000000 )  
               b(2) = (  0.000000  1.002671  0.000000 )  
               b(3) = (  0.000000  0.000000  0.999998 )  


     PseudoPot. # 1 for Fe read from file:
     /rds/homes/b/bxp912/pp/Fe.pbe-spn-kjpaw_psl.1.0.0.UPF
     MD5 check sum: 42f43b795421b414b0dc916aa790dbcb
     Pseudo is Projector augmented-wave + core cor, Zval = 16.0
     Generated using "atomic" code by A. Dal Corso v.6.3
     Shape of augmentation charge: PSQ
     Using radial grid of 1191 points,  6 beta functions with: 
                l(1) =   0
                l(2) =   0
                l(3) =   1
                l(4) =   1
                l(5) =   2
                l(6) =   2
     Q(r) pseudized with 0 coefficients 


     PseudoPot. # 2 for Fe read from file:
     /rds/homes/b/bxp912/pp/Fe.pbe-spn-kjpaw_psl.1.0.0.UPF
     MD5 check sum: 42f43b795421b414b0dc916aa790dbcb
     Pseudo is Projector augmented-wave + core cor, Zval = 16.0
     Generated using "atomic" code by A. Dal Corso v.6.3
     Shape of augmentation charge: PSQ
     Using radial grid of 1191 points,  6 beta functions with: 
                l(1) =   0
                l(2) =   0
                l(3) =   1
                l(4) =   1
                l(5) =   2
                l(6) =   2
     Q(r) pseudized with 0 coefficients 


     atomic species   valence    mass     pseudopotential
        Fe1           16.00    55.84500     Fe( 1.00)
        Fe2           16.00    55.84500     Fe( 1.00)

     Starting magnetic structure 
     atomic species   magnetization
        Fe1          0.100
        Fe2          0.100

      8 Sym. Ops., with inversion, found



   Cartesian axes

     site n.     atom                  positions (alat units)
         1           Fe1 tau(   1) = (   0.0000000   0.0000000   0.0000000  )
         2           Fe2 tau(   2) = (   0.2506677   0.2493344   0.2500010  )
         3           Fe1 tau(   3) = (   0.0000000   0.0000000   0.5000012  )
         4           Fe2 tau(   4) = (   0.2506677   0.2493344   0.7500013  )
         5           Fe1 tau(   5) = (   0.0000000   0.4986678   0.0000000  )
         6           Fe2 tau(   6) = (   0.2506677   0.7480013   0.2500010  )
         7           Fe1 tau(   7) = (   0.0000000   0.4986678   0.5000012  )
         8           Fe2 tau(   8) = (   0.2506677   0.7480013   0.7500013  )
         9           Fe1 tau(   9) = (   0.5013345   0.0000000   0.0000000  )
        10           Fe2 tau(  10) = (   0.7520014   0.2493344   0.2500010  )
        11           Fe1 tau(  11) = (   0.5013345   0.0000000   0.5000012  )
        12           Fe2 tau(  12) = (   0.7520014   0.2493344   0.7500013  )
        13           Fe1 tau(  13) = (   0.5013345   0.4986678   0.0000000  )
        14           Fe2 tau(  14) = (   0.7520014   0.7480013   0.2500010  )
        15           Fe1 tau(  15) = (   0.5013345   0.4986678   0.5000012  )
        16           Fe2 tau(  16) = (   0.7520014   0.7480013   0.7500013  )

     number of k points=   125  Marzari-Vanderbilt smearing, width (Ry)=  0.0400

     Number of k-points >= 100: set verbosity='high' to print them.

     Dense  grid:   178967 G-vectors     FFT dimensions: (  72,  72,  72)

     Smooth grid:    96157 G-vectors     FFT dimensions: (  60,  60,  60)

     Estimated max dynamical RAM per process >     215.38 MB

     Estimated total dynamical RAM >       8.41 GB
     Generating pointlists ...
     new r_m :   0.1786 (alat units)  1.8922 (a.u.) for type    1
     new r_m :   0.1786 (alat units)  1.8922 (a.u.) for type    2

     Check: negative/imaginary core charge=   -0.000006    0.000000

     Initial potential from superposition of free atoms

     starting charge  255.99300, renormalised to  256.00000
     Starting wfcs are  160 randomized atomic wfcs
     Checking if some PAW data can be deallocated... 

     total cpu time spent up to now is       23.7 secs

     Self-consistent Calculation

     iteration #  1     ecut=    71.00 Ry     beta= 0.10
     Davidson diagonalization with overlap
     ethr =  1.00E-02,  avg # of iterations =  3.3

     Threshold (ethr) on eigenvalues was too large:
     Diagonalizing with lowered threshold

     Davidson diagonalization with overlap
     ethr =  2.83E-04,  avg # of iterations =  3.4

     total cpu time spent up to now is      209.1 secs

     total energy              =   -5268.17614229 Ry
     Harris-Foulkes estimate   =   -5268.32782302 Ry
     estimated scf accuracy    <       0.82050691 Ry

     total magnetization       =    28.04 Bohr mag/cell
     absolute magnetization    =    28.41 Bohr mag/cell

     iteration #  2     ecut=    71.00 Ry     beta= 0.10
     Davidson diagonalization with overlap
     ethr =  3.21E-04,  avg # of iterations =  1.0

     total cpu time spent up to now is      267.0 secs

     total energy              =   -5268.06992915 Ry
     Harris-Foulkes estimate   =   -5268.19491088 Ry
     estimated scf accuracy    <       0.49761313 Ry

     total magnetization       =    28.67 Bohr mag/cell
     absolute magnetization    =    28.95 Bohr mag/cell

     iteration #  3     ecut=    71.00 Ry     beta= 0.10
     Davidson diagonalization with overlap
     ethr =  1.94E-04,  avg # of iterations =  2.5

     total cpu time spent up to now is      342.3 secs

     total energy              =   -5268.03740486 Ry
     Harris-Foulkes estimate   =   -5268.11659618 Ry
     estimated scf accuracy    <       0.57121614 Ry

     total magnetization       =    29.37 Bohr mag/cell
     absolute magnetization    =    29.71 Bohr mag/cell

     iteration #  4     ecut=    71.00 Ry     beta= 0.10
     Davidson diagonalization with overlap
     ethr =  1.94E-04,  avg # of iterations =  2.1

     total cpu time spent up to now is      410.7 secs

     total energy              =   -5268.06936024 Ry
     Harris-Foulkes estimate   =   -5268.07299987 Ry
     estimated scf accuracy    <       0.17623263 Ry

     total magnetization       =    30.20 Bohr mag/cell
     absolute magnetization    =    30.58 Bohr mag/cell

     iteration #  5     ecut=    71.00 Ry     beta= 0.10
     Davidson diagonalization with overlap
     ethr =  6.88E-05,  avg # of iterations =  1.4

     total cpu time spent up to now is      470.8 secs

     total energy              =   -5268.08817779 Ry
     Harris-Foulkes estimate   =   -5268.07353281 Ry
     estimated scf accuracy    <       0.11145330 Ry

     total magnetization       =    30.30 Bohr mag/cell
     absolute magnetization    =    30.69 Bohr mag/cell

     iteration #  6     ecut=    71.00 Ry     beta= 0.10
     Davidson diagonalization with overlap
     ethr =  4.35E-05,  avg # of iterations =  3.3

     total cpu time spent up to now is      573.8 secs

     total energy              =   -5268.14477036 Ry
     Harris-Foulkes estimate   =   -5268.12689491 Ry
     estimated scf accuracy    <       0.13284521 Ry

     total magnetization       =    30.92 Bohr mag/cell
     absolute magnetization    =    31.63 Bohr mag/cell

     iteration #  7     ecut=    71.00 Ry     beta= 0.10
     Davidson diagonalization with overlap
     ethr =  4.35E-05,  avg # of iterations =  2.0

     total cpu time spent up to now is      644.7 secs

     total energy              =   -5268.15310234 Ry
     Harris-Foulkes estimate   =   -5268.15273689 Ry
     estimated scf accuracy    <       0.09950871 Ry

     total magnetization       =    31.45 Bohr mag/cell
     absolute magnetization    =    32.36 Bohr mag/cell

     iteration #  8     ecut=    71.00 Ry     beta= 0.10
     Davidson diagonalization with overlap
     ethr =  3.89E-05,  avg # of iterations =  1.0

     negative rho (up, down):  0.000E+00 1.559E-03

     total cpu time spent up to now is      699.7 secs

     total energy              =   -5268.17026023 Ry
     Harris-Foulkes estimate   =   -5268.15440353 Ry
     estimated scf accuracy    <       0.07801960 Ry

     total magnetization       =    31.59 Bohr mag/cell
     absolute magnetization    =    32.57 Bohr mag/cell

     iteration #  9     ecut=    71.00 Ry     beta= 0.10
     Davidson diagonalization with overlap
     ethr =  3.05E-05,  avg # of iterations =  2.7

     negative rho (up, down):  0.000E+00 2.151E-03

     total cpu time spent up to now is      789.2 secs

     total energy              =   -5268.18872264 Ry
     Harris-Foulkes estimate   =   -5268.18485436 Ry
     estimated scf accuracy    <       0.03671898 Ry

     total magnetization       =    32.28 Bohr mag/cell
     absolute magnetization    =    33.64 Bohr mag/cell

     iteration # 10     ecut=    71.00 Ry     beta= 0.10
     Davidson diagonalization with overlap
     ethr =  1.43E-05,  avg # of iterations =  1.0

     negative rho (up, down):  0.000E+00 2.506E-03

     total cpu time spent up to now is      845.0 secs

     total energy              =   -5268.18769184 Ry
     Harris-Foulkes estimate   =   -5268.19010898 Ry
     estimated scf accuracy    <       0.01645844 Ry

     total magnetization       =    32.48 Bohr mag/cell
     absolute magnetization    =    33.92 Bohr mag/cell

     iteration # 11     ecut=    71.00 Ry     beta= 0.10
     Davidson diagonalization with overlap
     ethr =  6.43E-06,  avg # of iterations =  2.9

     negative rho (up, down):  0.000E+00 2.555E-03

     total cpu time spent up to now is      926.5 secs

     total energy              =   -5268.18862567 Ry
     Harris-Foulkes estimate   =   -5268.18881562 Ry
     estimated scf accuracy    <       0.00164526 Ry

     total magnetization       =    32.65 Bohr mag/cell
     absolute magnetization    =    34.26 Bohr mag/cell

     iteration # 12     ecut=    71.00 Ry     beta= 0.10
     Davidson diagonalization with overlap
     ethr =  6.43E-07,  avg # of iterations =  2.9

     negative rho (up, down):  0.000E+00 2.585E-03

     total cpu time spent up to now is     1008.2 secs

     total energy              =   -5268.18892514 Ry
     Harris-Foulkes estimate   =   -5268.18875634 Ry
     estimated scf accuracy    <       0.00082662 Ry

     total magnetization       =    32.69 Bohr mag/cell
     absolute magnetization    =    34.34 Bohr mag/cell

     iteration # 13     ecut=    71.00 Ry     beta= 0.10
     Davidson diagonalization with overlap
     ethr =  3.23E-07,  avg # of iterations =  1.9

     negative rho (up, down):  0.000E+00 2.550E-03

     total cpu time spent up to now is     1074.8 secs

     total energy              =   -5268.18889469 Ry
     Harris-Foulkes estimate   =   -5268.18899147 Ry
     estimated scf accuracy    <       0.00087690 Ry

     total magnetization       =    32.73 Bohr mag/cell
     absolute magnetization    =    34.40 Bohr mag/cell

     iteration # 14     ecut=    71.00 Ry     beta= 0.10
     Davidson diagonalization with overlap
     ethr =  3.23E-07,  avg # of iterations =  2.5

     negative rho (up, down):  0.000E+00 2.455E-03

     total cpu time spent up to now is     1155.1 secs

     total energy              =   -5268.18915312 Ry
     Harris-Foulkes estimate   =   -5268.18899082 Ry
     estimated scf accuracy    <       0.00069284 Ry

     total magnetization       =    32.76 Bohr mag/cell
     absolute magnetization    =    34.47 Bohr mag/cell

     iteration # 15     ecut=    71.00 Ry     beta= 0.10
     Davidson diagonalization with overlap
     ethr =  2.71E-07,  avg # of iterations =  1.9

     negative rho (up, down):  0.000E+00 2.495E-03

     total cpu time spent up to now is     1224.5 secs

     total energy              =   -5268.18925157 Ry
     Harris-Foulkes estimate   =   -5268.18921467 Ry
     estimated scf accuracy    <       0.00019723 Ry

     total magnetization       =    32.78 Bohr mag/cell
     absolute magnetization    =    34.49 Bohr mag/cell

     iteration # 16     ecut=    71.00 Ry     beta= 0.10
     Davidson diagonalization with overlap
     ethr =  7.70E-08,  avg # of iterations =  2.5

     negative rho (up, down):  0.000E+00 2.469E-03

     total cpu time spent up to now is     1302.0 secs

     total energy              =   -5268.18931442 Ry
     Harris-Foulkes estimate   =   -5268.18927435 Ry
     estimated scf accuracy    <       0.00010251 Ry

     total magnetization       =    32.82 Bohr mag/cell
     absolute magnetization    =    34.56 Bohr mag/cell

     iteration # 17     ecut=    71.00 Ry     beta= 0.10
     Davidson diagonalization with overlap
     ethr =  4.00E-08,  avg # of iterations =  1.9

     negative rho (up, down):  0.000E+00 2.460E-03

     total cpu time spent up to now is     1369.8 secs

     total energy              =   -5268.18935848 Ry
     Harris-Foulkes estimate   =   -5268.18932068 Ry
     estimated scf accuracy    <       0.00007259 Ry

     total magnetization       =    32.83 Bohr mag/cell
     absolute magnetization    =    34.57 Bohr mag/cell

     iteration # 18     ecut=    71.00 Ry     beta= 0.10
     Davidson diagonalization with overlap
     ethr =  2.84E-08,  avg # of iterations =  2.7

     negative rho (up, down):  0.000E+00 2.451E-03

     total cpu time spent up to now is     1455.4 secs

     total energy              =   -5268.18937738 Ry
     Harris-Foulkes estimate   =   -5268.18936999 Ry
     estimated scf accuracy    <       0.00004836 Ry

     total magnetization       =    32.85 Bohr mag/cell
     absolute magnetization    =    34.61 Bohr mag/cell

     iteration # 19     ecut=    71.00 Ry     beta= 0.10
     Davidson diagonalization with overlap
     ethr =  1.89E-08,  avg # of iterations =  2.7

     negative rho (up, down):  0.000E+00 2.442E-03

     total cpu time spent up to now is     1537.5 secs

     total energy              =   -5268.18938891 Ry
     Harris-Foulkes estimate   =   -5268.18938505 Ry
     estimated scf accuracy    <       0.00001967 Ry

     total magnetization       =    32.87 Bohr mag/cell
     absolute magnetization    =    34.64 Bohr mag/cell

     iteration # 20     ecut=    71.00 Ry     beta= 0.10
     Davidson diagonalization with overlap
     ethr =  7.68E-09,  avg # of iterations =  1.4

     negative rho (up, down):  0.000E+00 2.426E-03

     total cpu time spent up to now is     1597.5 secs

     total energy              =   -5268.18939367 Ry
     Harris-Foulkes estimate   =   -5268.18938951 Ry
     estimated scf accuracy    <       0.00001430 Ry

     total magnetization       =    32.87 Bohr mag/cell
     absolute magnetization    =    34.64 Bohr mag/cell

     iteration # 21     ecut=    71.00 Ry     beta= 0.10
     Davidson diagonalization with overlap
     ethr =  5.59E-09,  avg # of iterations =  2.7

     negative rho (up, down):  0.000E+00 2.424E-03

     total cpu time spent up to now is     1681.6 secs

     total energy              =   -5268.18939809 Ry
     Harris-Foulkes estimate   =   -5268.18939740 Ry
     estimated scf accuracy    <       0.00000514 Ry

     total magnetization       =    32.89 Bohr mag/cell
     absolute magnetization    =    34.65 Bohr mag/cell

     iteration # 22     ecut=    71.00 Ry     beta= 0.10
     Davidson diagonalization with overlap
     ethr =  2.01E-09,  avg # of iterations =  2.2

     negative rho (up, down):  0.000E+00 2.428E-03

     total cpu time spent up to now is     1751.3 secs

     total energy              =   -5268.18939898 Ry
     Harris-Foulkes estimate   =   -5268.18939875 Ry
     estimated scf accuracy    <       0.00000280 Ry

     total magnetization       =    32.89 Bohr mag/cell
     absolute magnetization    =    34.65 Bohr mag/cell

     iteration # 23     ecut=    71.00 Ry     beta= 0.10
     Davidson diagonalization with overlap
     ethr =  1.09E-09,  avg # of iterations =  1.8

     negative rho (up, down):  0.000E+00 2.447E-03

     total cpu time spent up to now is     1815.9 secs

     total energy              =   -5268.18939893 Ry
     Harris-Foulkes estimate   =   -5268.18939910 Ry
     estimated scf accuracy    <       0.00000181 Ry

     total magnetization       =    32.89 Bohr mag/cell
     absolute magnetization    =    34.66 Bohr mag/cell

     iteration # 24     ecut=    71.00 Ry     beta= 0.10
     Davidson diagonalization with overlap
     ethr =  7.08E-10,  avg # of iterations =  2.4

     negative rho (up, down):  0.000E+00 2.462E-03
 
     Magnetic moment per site:
     atom:    1    charge:   14.3665    magn:    2.0994    constr:    0.0000
     atom:    2    charge:   14.3664    magn:    2.1015    constr:    0.0000
     atom:    3    charge:   14.3664    magn:    2.1001    constr:    0.0000
     atom:    4    charge:   14.3664    magn:    2.1015    constr:    0.0000
     atom:    5    charge:   14.3666    magn:    2.0999    constr:    0.0000
     atom:    6    charge:   14.3664    magn:    2.1015    constr:    0.0000
     atom:    7    charge:   14.3667    magn:    2.1002    constr:    0.0000
     atom:    8    charge:   14.3664    magn:    2.1015    constr:    0.0000
     atom:    9    charge:   14.3667    magn:    2.0984    constr:    0.0000
     atom:   10    charge:   14.3664    magn:    2.1015    constr:    0.0000
     atom:   11    charge:   14.3664    magn:    2.0988    constr:    0.0000
     atom:   12    charge:   14.3664    magn:    2.1015    constr:    0.0000
     atom:   13    charge:   14.3665    magn:    2.0988    constr:    0.0000
     atom:   14    charge:   14.3664    magn:    2.1015    constr:    0.0000
     atom:   15    charge:   14.3664    magn:    2.0993    constr:    0.0000
     atom:   16    charge:   14.3664    magn:    2.1015    constr:    0.0000

     total cpu time spent up to now is     1897.7 secs

     End of self-consistent calculation

     Number of k-points >= 100: set verbosity='high' to print the bands.

     the Fermi energy is    18.9745 ev

!    total energy              =   -5268.18940138 Ry
     Harris-Foulkes estimate   =   -5268.18939949 Ry
     estimated scf accuracy    <       0.00000057 Ry

     total all-electron energy =    -40728.933930 Ry

     The total energy is the sum of the following terms:

     one-electron contribution =   -1707.43241725 Ry
     hartree contribution      =    1022.27848205 Ry
     xc contribution           =    -444.25959324 Ry
     ewald contribution        =   -2814.22888852 Ry
     one-center paw contrib.   =   -1324.67108364 Ry
     smearing contrib. (-TS)   =       0.12409921 Ry

     total magnetization       =    32.90 Bohr mag/cell
     absolute magnetization    =    34.66 Bohr mag/cell

     convergence has been achieved in  24 iterations

     negative rho (up, down):  0.000E+00 2.462E-03

     Forces acting on atoms (cartesian axes, Ry/au):

     atom    1 type  1   force =     0.00000000    0.00000000    0.00000000
     atom    2 type  2   force =    -0.00008612    0.00026416    0.00008709
     atom    3 type  1   force =     0.00000000    0.00000000    0.00000000
     atom    4 type  2   force =    -0.00008612    0.00026416   -0.00008709
     atom    5 type  1   force =     0.00000000    0.00000000    0.00000000
     atom    6 type  2   force =    -0.00008612   -0.00026416    0.00008709
     atom    7 type  1   force =     0.00000000    0.00000000    0.00000000
     atom    8 type  2   force =    -0.00008612   -0.00026416   -0.00008709
     atom    9 type  1   force =     0.00000000    0.00000000    0.00000000
     atom   10 type  2   force =     0.00008612    0.00026416    0.00008709
     atom   11 type  1   force =     0.00000000    0.00000000    0.00000000
     atom   12 type  2   force =     0.00008612    0.00026416   -0.00008709
     atom   13 type  1   force =     0.00000000    0.00000000    0.00000000
     atom   14 type  2   force =     0.00008612   -0.00026416    0.00008709
     atom   15 type  1   force =     0.00000000    0.00000000    0.00000000
     atom   16 type  2   force =     0.00008612   -0.00026416   -0.00008709

     Total force =     0.000824     Total SCF correction =     0.003117
     SCF correction compared to forces is large: reduce conv_thr to get better values


     Computing stress (Cartesian axis) and pressure


     negative rho (up, down):  0.000E+00 2.462E-03
          total   stress  (Ry/bohr**3)                   (kbar)     P=   -2.79
  -0.00004245   0.00000000   0.00000000         -6.24      0.00      0.00
   0.00000000   0.00000460   0.00000000          0.00      0.68      0.00
   0.00000000   0.00000000  -0.00001913          0.00      0.00     -2.81


     Writing output data file tYcwiUbkwkfkYwex.save/
 
     init_run     :     21.39s CPU     22.28s WALL (       1 calls)
     electrons    :   1816.69s CPU   1874.02s WALL (       1 calls)
     forces       :      7.50s CPU      8.20s WALL (       1 calls)
     stress       :     20.89s CPU     21.14s WALL (       1 calls)

     Called by init_run:
     wfcinit      :     20.93s CPU     21.75s WALL (       1 calls)
     potinit      :      0.21s CPU      0.23s WALL (       1 calls)
     hinit0       :      0.15s CPU      0.18s WALL (       1 calls)

     Called by electrons:
     c_bands      :   1640.15s CPU   1687.87s WALL (      25 calls)
     sum_band     :    171.59s CPU    180.51s WALL (      25 calls)
     v_of_rho     :      0.37s CPU      0.38s WALL (      25 calls)
     newd         :      0.77s CPU      1.00s WALL (      25 calls)
     PAW_pot      :      3.73s CPU      4.08s WALL (      25 calls)
     mix_rho      :      0.14s CPU      0.15s WALL (      25 calls)

     Called by c_bands:
     init_us_2    :      8.56s CPU      8.73s WALL (   13250 calls)
     cegterg      :   1594.97s CPU   1642.00s WALL (    6250 calls)

     Called by sum_band:
     sum_band:bec :      2.39s CPU      2.43s WALL (    6250 calls)
     addusdens    :      1.25s CPU      1.43s WALL (      25 calls)

     Called by *egterg:
     h_psi        :    679.61s CPU    708.70s WALL (   20530 calls)
     s_psi        :     35.90s CPU     36.13s WALL (   20530 calls)
     g_psi        :      1.45s CPU      1.47s WALL (   14030 calls)
     cdiaghg      :    719.67s CPU    722.25s WALL (   20030 calls)

     Called by h_psi:
     h_psi:pot    :    676.11s CPU    705.16s WALL (   20530 calls)
     h_psi:calbec :     55.92s CPU     64.83s WALL (   20530 calls)
     vloc_psi     :    583.36s CPU    603.25s WALL (   20530 calls)
     add_vuspsi   :     36.66s CPU     36.96s WALL (   20530 calls)

     General routines
     calbec       :     85.17s CPU     98.95s WALL (   28030 calls)
     fft          :      0.41s CPU      0.43s WALL (     667 calls)
     ffts         :      0.05s CPU      0.25s WALL (     100 calls)
     fftw         :    680.17s CPU    703.08s WALL ( 5188724 calls)
     interpolate  :      0.07s CPU      0.16s WALL (      50 calls)
 
     Parallel routines
     fft_scatt_xy :     44.62s CPU     46.09s WALL ( 5189491 calls)
     fft_scatt_yz :    454.52s CPU    470.27s WALL ( 5189491 calls)
 
     PWSCF        : 31m21.69s CPU    33m 9.37s WALL

 
   This run was terminated on:  18:38:38   2Nov2020            

=------------------------------------------------------------------------------=
   JOB DONE.
=------------------------------------------------------------------------------=
