--------------------------------------------------------------------------
WARNING: No preset parameters were found for the device that Open MPI
detected:

  Local host:            bear-pg0206u26a
  Device name:           mlx5_0
  Device vendor ID:      0x02c9
  Device vendor part ID: 4123

Default device parameters will be used, which may result in lower
performance.  You can edit any of the files specified by the
btl_openib_device_param_files MCA parameter to set values for your
device.

NOTE: You can turn off this warning by setting the MCA parameter
      btl_openib_warn_no_device_params_found to 0.
--------------------------------------------------------------------------
--------------------------------------------------------------------------
WARNING: There was an error initializing an OpenFabrics device.

  Local host:   bear-pg0206u26a
  Local device: mlx5_0
--------------------------------------------------------------------------

     Program PWSCF v.6.3 starts on  2Nov2020 at 23: 4:37 

     This program is part of the open-source Quantum ESPRESSO suite
     for quantum simulation of materials; please cite
         "P. Giannozzi et al., J. Phys.:Condens. Matter 21 395502 (2009);
         "P. Giannozzi et al., J. Phys.:Condens. Matter 29 465901 (2017);
          URL http://www.quantum-espresso.org", 
     in publications or presentations arising from this work. More details at
     http://www.quantum-espresso.org/quote

     Parallel version (MPI & OpenMP), running on      40 processor cores
     Number of MPI processes:                40
     Threads/MPI process:                     1

     MPI processes distributed on     1 nodes
     R & G space division:  proc/nbgrp/npool/nimage =      40
     Reading input from wd/ec/ec_9_004.in
Warning: card &IONS ignored
Warning: card ION_DYNAMICS = 'BFGS', ignored
Warning: card / ignored
Warning: card &CELL ignored
Warning: card CELL_DYNAMICS = 'BFGS', ignored
Warning: card CELL_FACTOR = 2.0, ignored
Warning: card PRESS = 0.0, ignored
Warning: card / ignored

     Current dimensions of program PWSCF are:
     Max number of different atomic species (ntypx) = 10
     Max number of k-points (npk) =  40000
     Max angular momentum in pseudopotentials (lmaxx) =  3
               file Fe.pbe-spn-kjpaw_psl.1.0.0.UPF: wavefunction(s)  3P 3D renormalized
               file Fe.pbe-spn-kjpaw_psl.1.0.0.UPF: wavefunction(s)  3P 3D renormalized

     Subspace diagonalization in iterative solution of the eigenvalue problem:
     a serial algorithm will be used

     Found symmetry operation: I + (  0.0000  0.0000 -0.5000)
     This is a supercell, fractional translations are disabled
 
     Parallelization info
     --------------------
     sticks:   dense  smooth     PW     G-vecs:    dense   smooth      PW
     Min          96      63     17                 4472     2401     355
     Max          97      64     18                 4476     2406     360
     Sum        3847    2553    717               178971    96125   14323
 


     bravais-lattice index     =            0
     lattice parameter (alat)  =      10.5935  a.u.
     unit-cell volume          =    1188.8329 (a.u.)^3
     number of atoms/cell      =           16
     number of atomic types    =            2
     number of electrons       =       256.00
     number of Kohn-Sham states=          154
     kinetic-energy cutoff     =      71.0000  Ry
     charge density cutoff     =     430.0000  Ry
     convergence threshold     =      1.0E-06
     mixing beta               =       0.1000
     number of iterations used =           10  plain     mixing
     Exchange-correlation      = SLA PW PBX PBC ( 1  4  3  4 0 0)

     celldm(1)=  10.593520  celldm(2)=   0.000000  celldm(3)=   0.000000
     celldm(4)=   0.000000  celldm(5)=   0.000000  celldm(6)=   0.000000

     crystal axes: (cart. coord. in units of alat)
               a(1) = (   1.000001   0.000000   0.000000 )  
               a(2) = (   0.000000   1.002001   0.000000 )  
               a(3) = (   0.000000   0.000000   0.998001 )  

     reciprocal axes: (cart. coord. in units 2 pi/alat)
               b(1) = (  0.999999  0.000000  0.000000 )  
               b(2) = (  0.000000  0.998003  0.000000 )  
               b(3) = (  0.000000  0.000000  1.002003 )  


     PseudoPot. # 1 for Fe read from file:
     /rds/homes/b/bxp912/pp/Fe.pbe-spn-kjpaw_psl.1.0.0.UPF
     MD5 check sum: 42f43b795421b414b0dc916aa790dbcb
     Pseudo is Projector augmented-wave + core cor, Zval = 16.0
     Generated using "atomic" code by A. Dal Corso v.6.3
     Shape of augmentation charge: PSQ
     Using radial grid of 1191 points,  6 beta functions with: 
                l(1) =   0
                l(2) =   0
                l(3) =   1
                l(4) =   1
                l(5) =   2
                l(6) =   2
     Q(r) pseudized with 0 coefficients 


     PseudoPot. # 2 for Fe read from file:
     /rds/homes/b/bxp912/pp/Fe.pbe-spn-kjpaw_psl.1.0.0.UPF
     MD5 check sum: 42f43b795421b414b0dc916aa790dbcb
     Pseudo is Projector augmented-wave + core cor, Zval = 16.0
     Generated using "atomic" code by A. Dal Corso v.6.3
     Shape of augmentation charge: PSQ
     Using radial grid of 1191 points,  6 beta functions with: 
                l(1) =   0
                l(2) =   0
                l(3) =   1
                l(4) =   1
                l(5) =   2
                l(6) =   2
     Q(r) pseudized with 0 coefficients 


     atomic species   valence    mass     pseudopotential
        Fe1           16.00    55.84500     Fe( 1.00)
        Fe2           16.00    55.84500     Fe( 1.00)

     Starting magnetic structure 
     atomic species   magnetization
        Fe1          0.100
        Fe2          0.100

      8 Sym. Ops., with inversion, found



   Cartesian axes

     site n.     atom                  positions (alat units)
         1           Fe1 tau(   1) = (   0.0000000   0.0000000   0.0000000  )
         2           Fe2 tau(   2) = (   0.2500008   0.2505008   0.2495008  )
         3           Fe1 tau(   3) = (   0.0000000   0.0000000   0.4990007  )
         4           Fe2 tau(   4) = (   0.2500008   0.2505008   0.7485006  )
         5           Fe1 tau(   5) = (   0.0000000   0.5010007   0.0000000  )
         6           Fe2 tau(   6) = (   0.2500008   0.7515006   0.2495008  )
         7           Fe1 tau(   7) = (   0.0000000   0.5010007   0.4990007  )
         8           Fe2 tau(   8) = (   0.2500008   0.7515006   0.7485006  )
         9           Fe1 tau(   9) = (   0.5000007   0.0000000   0.0000000  )
        10           Fe2 tau(  10) = (   0.7500006   0.2505008   0.2495008  )
        11           Fe1 tau(  11) = (   0.5000007   0.0000000   0.4990007  )
        12           Fe2 tau(  12) = (   0.7500006   0.2505008   0.7485006  )
        13           Fe1 tau(  13) = (   0.5000007   0.5010007   0.0000000  )
        14           Fe2 tau(  14) = (   0.7500006   0.7515006   0.2495008  )
        15           Fe1 tau(  15) = (   0.5000007   0.5010007   0.4990007  )
        16           Fe2 tau(  16) = (   0.7500006   0.7515006   0.7485006  )

     number of k points=   125  Marzari-Vanderbilt smearing, width (Ry)=  0.0400

     Number of k-points >= 100: set verbosity='high' to print them.

     Dense  grid:   178971 G-vectors     FFT dimensions: (  72,  72,  72)

     Smooth grid:    96125 G-vectors     FFT dimensions: (  60,  60,  60)

     Estimated max dynamical RAM per process >     215.38 MB

     Estimated total dynamical RAM >       8.41 GB
     Generating pointlists ...
     new r_m :   0.1786 (alat units)  1.8922 (a.u.) for type    1
     new r_m :   0.1786 (alat units)  1.8922 (a.u.) for type    2

     Check: negative/imaginary core charge=   -0.000006    0.000000

     Initial potential from superposition of free atoms

     starting charge  255.99300, renormalised to  256.00000
     Starting wfcs are  160 randomized atomic wfcs
     Checking if some PAW data can be deallocated... 

     total cpu time spent up to now is       23.3 secs

     Self-consistent Calculation

     iteration #  1     ecut=    71.00 Ry     beta= 0.10
     Davidson diagonalization with overlap
     ethr =  1.00E-02,  avg # of iterations =  3.4

     Threshold (ethr) on eigenvalues was too large:
     Diagonalizing with lowered threshold

     Davidson diagonalization with overlap
     ethr =  2.83E-04,  avg # of iterations =  3.4

     total cpu time spent up to now is      209.2 secs

     total energy              =   -5268.17609965 Ry
     Harris-Foulkes estimate   =   -5268.32783825 Ry
     estimated scf accuracy    <       0.82075631 Ry

     total magnetization       =    28.04 Bohr mag/cell
     absolute magnetization    =    28.41 Bohr mag/cell

     iteration #  2     ecut=    71.00 Ry     beta= 0.10
     Davidson diagonalization with overlap
     ethr =  3.21E-04,  avg # of iterations =  1.0

     total cpu time spent up to now is      264.3 secs

     total energy              =   -5268.07020235 Ry
     Harris-Foulkes estimate   =   -5268.19492209 Ry
     estimated scf accuracy    <       0.49813799 Ry

     total magnetization       =    28.67 Bohr mag/cell
     absolute magnetization    =    28.96 Bohr mag/cell

     iteration #  3     ecut=    71.00 Ry     beta= 0.10
     Davidson diagonalization with overlap
     ethr =  1.95E-04,  avg # of iterations =  2.5

     total cpu time spent up to now is      339.7 secs

     total energy              =   -5268.03714522 Ry
     Harris-Foulkes estimate   =   -5268.11698570 Ry
     estimated scf accuracy    <       0.57952733 Ry

     total magnetization       =    29.37 Bohr mag/cell
     absolute magnetization    =    29.70 Bohr mag/cell

     iteration #  4     ecut=    71.00 Ry     beta= 0.10
     Davidson diagonalization with overlap
     ethr =  1.95E-04,  avg # of iterations =  2.1

     total cpu time spent up to now is      408.8 secs

     total energy              =   -5268.06921196 Ry
     Harris-Foulkes estimate   =   -5268.07318953 Ry
     estimated scf accuracy    <       0.18142632 Ry

     total magnetization       =    30.20 Bohr mag/cell
     absolute magnetization    =    30.58 Bohr mag/cell

     iteration #  5     ecut=    71.00 Ry     beta= 0.10
     Davidson diagonalization with overlap
     ethr =  7.09E-05,  avg # of iterations =  1.4

     total cpu time spent up to now is      467.9 secs

     total energy              =   -5268.08805194 Ry
     Harris-Foulkes estimate   =   -5268.07352958 Ry
     estimated scf accuracy    <       0.11157782 Ry

     total magnetization       =    30.30 Bohr mag/cell
     absolute magnetization    =    30.69 Bohr mag/cell

     iteration #  6     ecut=    71.00 Ry     beta= 0.10
     Davidson diagonalization with overlap
     ethr =  4.36E-05,  avg # of iterations =  3.2

     total cpu time spent up to now is      570.5 secs

     total energy              =   -5268.14444676 Ry
     Harris-Foulkes estimate   =   -5268.12654028 Ry
     estimated scf accuracy    <       0.13281793 Ry

     total magnetization       =    30.91 Bohr mag/cell
     absolute magnetization    =    31.62 Bohr mag/cell

     iteration #  7     ecut=    71.00 Ry     beta= 0.10
     Davidson diagonalization with overlap
     ethr =  4.36E-05,  avg # of iterations =  2.0

     total cpu time spent up to now is      641.2 secs

     total energy              =   -5268.15350331 Ry
     Harris-Foulkes estimate   =   -5268.15252099 Ry
     estimated scf accuracy    <       0.09927394 Ry

     total magnetization       =    31.45 Bohr mag/cell
     absolute magnetization    =    32.36 Bohr mag/cell

     iteration #  8     ecut=    71.00 Ry     beta= 0.10
     Davidson diagonalization with overlap
     ethr =  3.88E-05,  avg # of iterations =  1.0

     negative rho (up, down):  0.000E+00 1.962E-03

     total cpu time spent up to now is      696.4 secs

     total energy              =   -5268.16987418 Ry
     Harris-Foulkes estimate   =   -5268.15490025 Ry
     estimated scf accuracy    <       0.07667507 Ry

     total magnetization       =    31.60 Bohr mag/cell
     absolute magnetization    =    32.58 Bohr mag/cell

     iteration #  9     ecut=    71.00 Ry     beta= 0.10
     Davidson diagonalization with overlap
     ethr =  3.00E-05,  avg # of iterations =  2.7

     negative rho (up, down):  0.000E+00 2.250E-03

     total cpu time spent up to now is      789.0 secs

     total energy              =   -5268.18944946 Ry
     Harris-Foulkes estimate   =   -5268.18935422 Ry
     estimated scf accuracy    <       0.02527017 Ry

     total magnetization       =    32.40 Bohr mag/cell
     absolute magnetization    =    33.84 Bohr mag/cell

     iteration # 10     ecut=    71.00 Ry     beta= 0.10
     Davidson diagonalization with overlap
     ethr =  9.87E-06,  avg # of iterations =  1.3

     negative rho (up, down):  0.000E+00 2.510E-03

     total cpu time spent up to now is      848.8 secs

     total energy              =   -5268.18841687 Ry
     Harris-Foulkes estimate   =   -5268.18996603 Ry
     estimated scf accuracy    <       0.01121340 Ry

     total magnetization       =    32.52 Bohr mag/cell
     absolute magnetization    =    34.02 Bohr mag/cell

     iteration # 11     ecut=    71.00 Ry     beta= 0.10
     Davidson diagonalization with overlap
     ethr =  4.38E-06,  avg # of iterations =  2.4

     negative rho (up, down):  0.000E+00 2.564E-03

     total cpu time spent up to now is      923.7 secs

     total energy              =   -5268.18874255 Ry
     Harris-Foulkes estimate   =   -5268.18899437 Ry
     estimated scf accuracy    <       0.00181712 Ry

     total magnetization       =    32.65 Bohr mag/cell
     absolute magnetization    =    34.27 Bohr mag/cell

     iteration # 12     ecut=    71.00 Ry     beta= 0.10
     Davidson diagonalization with overlap
     ethr =  7.10E-07,  avg # of iterations =  2.2

     negative rho (up, down):  0.000E+00 2.569E-03

     total cpu time spent up to now is      993.2 secs

     total energy              =   -5268.18892417 Ry
     Harris-Foulkes estimate   =   -5268.18883394 Ry
     estimated scf accuracy    <       0.00076420 Ry

     total magnetization       =    32.70 Bohr mag/cell
     absolute magnetization    =    34.34 Bohr mag/cell

     iteration # 13     ecut=    71.00 Ry     beta= 0.10
     Davidson diagonalization with overlap
     ethr =  2.99E-07,  avg # of iterations =  2.5

     negative rho (up, down):  0.000E+00 2.544E-03

     total cpu time spent up to now is     1072.9 secs

     total energy              =   -5268.18895070 Ry
     Harris-Foulkes estimate   =   -5268.18902711 Ry
     estimated scf accuracy    <       0.00125464 Ry

     total magnetization       =    32.75 Bohr mag/cell
     absolute magnetization    =    34.43 Bohr mag/cell

     iteration # 14     ecut=    71.00 Ry     beta= 0.10
     Davidson diagonalization with overlap
     c_bands:  2 eigenvalues not converged
     ethr =  2.99E-07,  avg # of iterations =  2.7

     negative rho (up, down):  0.000E+00 2.487E-03

     total cpu time spent up to now is     1155.8 secs

     total energy              =   -5268.18921313 Ry
     Harris-Foulkes estimate   =   -5268.18907843 Ry
     estimated scf accuracy    <       0.00065125 Ry

     total magnetization       =    32.78 Bohr mag/cell
     absolute magnetization    =    34.51 Bohr mag/cell

     iteration # 15     ecut=    71.00 Ry     beta= 0.10
     Davidson diagonalization with overlap
     ethr =  2.54E-07,  avg # of iterations =  1.6

     negative rho (up, down):  0.000E+00 2.475E-03

     total cpu time spent up to now is     1218.6 secs

     total energy              =   -5268.18930544 Ry
     Harris-Foulkes estimate   =   -5268.18925183 Ry
     estimated scf accuracy    <       0.00013853 Ry

     total magnetization       =    32.80 Bohr mag/cell
     absolute magnetization    =    34.53 Bohr mag/cell

     iteration # 16     ecut=    71.00 Ry     beta= 0.10
     Davidson diagonalization with overlap
     ethr =  5.41E-08,  avg # of iterations =  2.4

     negative rho (up, down):  0.000E+00 2.436E-03

     total cpu time spent up to now is     1292.6 secs

     total energy              =   -5268.18936226 Ry
     Harris-Foulkes estimate   =   -5268.18931613 Ry
     estimated scf accuracy    <       0.00009627 Ry

     total magnetization       =    32.82 Bohr mag/cell
     absolute magnetization    =    34.56 Bohr mag/cell

     iteration # 17     ecut=    71.00 Ry     beta= 0.10
     Davidson diagonalization with overlap
     ethr =  3.76E-08,  avg # of iterations =  2.6

     negative rho (up, down):  0.000E+00 2.389E-03

     total cpu time spent up to now is     1374.7 secs

     total energy              =   -5268.18938903 Ry
     Harris-Foulkes estimate   =   -5268.18937854 Ry
     estimated scf accuracy    <       0.00006828 Ry

     total magnetization       =    32.84 Bohr mag/cell
     absolute magnetization    =    34.59 Bohr mag/cell

     iteration # 18     ecut=    71.00 Ry     beta= 0.10
     Davidson diagonalization with overlap
     ethr =  2.67E-08,  avg # of iterations =  2.1

     negative rho (up, down):  0.000E+00 2.444E-03

     total cpu time spent up to now is     1448.3 secs

     total energy              =   -5268.18940009 Ry
     Harris-Foulkes estimate   =   -5268.18939943 Ry
     estimated scf accuracy    <       0.00005412 Ry

     total magnetization       =    32.85 Bohr mag/cell
     absolute magnetization    =    34.60 Bohr mag/cell

     iteration # 19     ecut=    71.00 Ry     beta= 0.10
     Davidson diagonalization with overlap
     ethr =  2.11E-08,  avg # of iterations =  2.7

     negative rho (up, down):  0.000E+00 2.457E-03

     total cpu time spent up to now is     1531.2 secs

     total energy              =   -5268.18940969 Ry
     Harris-Foulkes estimate   =   -5268.18940971 Ry
     estimated scf accuracy    <       0.00001754 Ry

     total magnetization       =    32.87 Bohr mag/cell
     absolute magnetization    =    34.64 Bohr mag/cell

     iteration # 20     ecut=    71.00 Ry     beta= 0.10
     Davidson diagonalization with overlap
     ethr =  6.85E-09,  avg # of iterations =  1.9

     negative rho (up, down):  0.000E+00 2.462E-03

     total cpu time spent up to now is     1598.9 secs

     total energy              =   -5268.18941390 Ry
     Harris-Foulkes estimate   =   -5268.18941070 Ry
     estimated scf accuracy    <       0.00001156 Ry

     total magnetization       =    32.88 Bohr mag/cell
     absolute magnetization    =    34.65 Bohr mag/cell

     iteration # 21     ecut=    71.00 Ry     beta= 0.10
     Davidson diagonalization with overlap
     ethr =  4.51E-09,  avg # of iterations =  1.0

     negative rho (up, down):  0.000E+00 2.457E-03

     total cpu time spent up to now is     1654.2 secs

     total energy              =   -5268.18941707 Ry
     Harris-Foulkes estimate   =   -5268.18941449 Ry
     estimated scf accuracy    <       0.00000852 Ry

     total magnetization       =    32.89 Bohr mag/cell
     absolute magnetization    =    34.65 Bohr mag/cell

     iteration # 22     ecut=    71.00 Ry     beta= 0.10
     Davidson diagonalization with overlap
     ethr =  3.33E-09,  avg # of iterations =  2.5

     negative rho (up, down):  0.000E+00 2.454E-03

     total cpu time spent up to now is     1731.8 secs

     total energy              =   -5268.18941994 Ry
     Harris-Foulkes estimate   =   -5268.18941869 Ry
     estimated scf accuracy    <       0.00000551 Ry

     total magnetization       =    32.90 Bohr mag/cell
     absolute magnetization    =    34.66 Bohr mag/cell

     iteration # 23     ecut=    71.00 Ry     beta= 0.10
     Davidson diagonalization with overlap
     ethr =  2.15E-09,  avg # of iterations =  1.7

     negative rho (up, down):  0.000E+00 2.454E-03

     total cpu time spent up to now is     1796.2 secs

     total energy              =   -5268.18942111 Ry
     Harris-Foulkes estimate   =   -5268.18942048 Ry
     estimated scf accuracy    <       0.00000182 Ry

     total magnetization       =    32.90 Bohr mag/cell
     absolute magnetization    =    34.67 Bohr mag/cell

     iteration # 24     ecut=    71.00 Ry     beta= 0.10
     Davidson diagonalization with overlap
     ethr =  7.12E-10,  avg # of iterations =  2.2

     negative rho (up, down):  0.000E+00 2.465E-03
 
     Magnetic moment per site:
     atom:    1    charge:   14.3663    magn:    2.0995    constr:    0.0000
     atom:    2    charge:   14.3664    magn:    2.1018    constr:    0.0000
     atom:    3    charge:   14.3665    magn:    2.1001    constr:    0.0000
     atom:    4    charge:   14.3664    magn:    2.1018    constr:    0.0000
     atom:    5    charge:   14.3664    magn:    2.1002    constr:    0.0000
     atom:    6    charge:   14.3664    magn:    2.1018    constr:    0.0000
     atom:    7    charge:   14.3666    magn:    2.1004    constr:    0.0000
     atom:    8    charge:   14.3664    magn:    2.1018    constr:    0.0000
     atom:    9    charge:   14.3666    magn:    2.0985    constr:    0.0000
     atom:   10    charge:   14.3664    magn:    2.1018    constr:    0.0000
     atom:   11    charge:   14.3665    magn:    2.0988    constr:    0.0000
     atom:   12    charge:   14.3664    magn:    2.1018    constr:    0.0000
     atom:   13    charge:   14.3664    magn:    2.0990    constr:    0.0000
     atom:   14    charge:   14.3664    magn:    2.1018    constr:    0.0000
     atom:   15    charge:   14.3664    magn:    2.0995    constr:    0.0000
     atom:   16    charge:   14.3664    magn:    2.1018    constr:    0.0000

     total cpu time spent up to now is     1866.0 secs

     End of self-consistent calculation

     Number of k-points >= 100: set verbosity='high' to print the bands.

     the Fermi energy is    18.9743 ev

!    total energy              =   -5268.18942313 Ry
     Harris-Foulkes estimate   =   -5268.18942121 Ry
     estimated scf accuracy    <       0.00000090 Ry

     total all-electron energy =    -40728.933952 Ry

     The total energy is the sum of the following terms:

     one-electron contribution =   -1707.43287051 Ry
     hartree contribution      =    1022.28029728 Ry
     xc contribution           =    -444.26053241 Ry
     ewald contribution        =   -2814.22936729 Ry
     one-center paw contrib.   =   -1324.67108276 Ry
     smearing contrib. (-TS)   =       0.12413256 Ry

     total magnetization       =    32.90 Bohr mag/cell
     absolute magnetization    =    34.67 Bohr mag/cell

     convergence has been achieved in  24 iterations

     negative rho (up, down):  0.000E+00 2.465E-03

     Forces acting on atoms (cartesian axes, Ry/au):

     atom    1 type  1   force =     0.00000000    0.00000000    0.00000000
     atom    2 type  2   force =     0.00000365    0.00019863    0.00001946
     atom    3 type  1   force =     0.00000000    0.00000000    0.00000000
     atom    4 type  2   force =     0.00000365    0.00019863   -0.00001946
     atom    5 type  1   force =     0.00000000    0.00000000    0.00000000
     atom    6 type  2   force =     0.00000365   -0.00019863    0.00001946
     atom    7 type  1   force =     0.00000000    0.00000000    0.00000000
     atom    8 type  2   force =     0.00000365   -0.00019863   -0.00001946
     atom    9 type  1   force =     0.00000000    0.00000000    0.00000000
     atom   10 type  2   force =    -0.00000365    0.00019863    0.00001946
     atom   11 type  1   force =     0.00000000    0.00000000    0.00000000
     atom   12 type  2   force =    -0.00000365    0.00019863   -0.00001946
     atom   13 type  1   force =     0.00000000    0.00000000    0.00000000
     atom   14 type  2   force =    -0.00000365   -0.00019863    0.00001946
     atom   15 type  1   force =     0.00000000    0.00000000    0.00000000
     atom   16 type  2   force =    -0.00000365   -0.00019863   -0.00001946

     Total force =     0.000565     Total SCF correction =     0.006392
     SCF correction compared to forces is large: reduce conv_thr to get better values


     Computing stress (Cartesian axis) and pressure


     negative rho (up, down):  0.000E+00 2.465E-03
          total   stress  (Ry/bohr**3)                   (kbar)     P=   -2.27
  -0.00001564   0.00000000   0.00000000         -2.30      0.00      0.00
   0.00000000  -0.00003317   0.00000000          0.00     -4.88      0.00
   0.00000000   0.00000000   0.00000248          0.00      0.00      0.37


     Writing output data file gQIQLcwayDTNFoUk.save/
 
     init_run     :     20.97s CPU     21.97s WALL (       1 calls)
     electrons    :   1787.16s CPU   1842.85s WALL (       1 calls)
     forces       :      7.43s CPU      8.09s WALL (       1 calls)
     stress       :     20.63s CPU     20.84s WALL (       1 calls)

     Called by init_run:
     wfcinit      :     20.55s CPU     21.44s WALL (       1 calls)
     potinit      :      0.22s CPU      0.23s WALL (       1 calls)
     hinit0       :      0.11s CPU      0.12s WALL (       1 calls)

     Called by electrons:
     c_bands      :   1610.39s CPU   1656.65s WALL (      25 calls)
     sum_band     :    171.66s CPU    180.49s WALL (      25 calls)
     v_of_rho     :      0.38s CPU      0.38s WALL (      25 calls)
     newd         :      0.80s CPU      1.02s WALL (      25 calls)
     PAW_pot      :      3.81s CPU      4.09s WALL (      25 calls)
     mix_rho      :      0.15s CPU      0.16s WALL (      25 calls)

     Called by c_bands:
     init_us_2    :      8.62s CPU      8.73s WALL (   13250 calls)
     cegterg      :   1565.61s CPU   1611.36s WALL (    6250 calls)

     Called by sum_band:
     sum_band:bec :      2.26s CPU      2.29s WALL (    6250 calls)
     addusdens    :      1.24s CPU      1.43s WALL (      25 calls)

     Called by *egterg:
     h_psi        :    674.51s CPU    703.01s WALL (   20098 calls)
     s_psi        :     35.97s CPU     36.22s WALL (   20098 calls)
     g_psi        :      1.43s CPU      1.45s WALL (   13598 calls)
     cdiaghg      :    696.17s CPU    698.66s WALL (   19598 calls)

     Called by h_psi:
     h_psi:pot    :    670.70s CPU    699.16s WALL (   20098 calls)
     h_psi:calbec :     55.90s CPU     64.55s WALL (   20098 calls)
     vloc_psi     :    578.34s CPU    597.93s WALL (   20098 calls)
     add_vuspsi   :     36.30s CPU     36.56s WALL (   20098 calls)

     General routines
     calbec       :     84.93s CPU     98.48s WALL (   27598 calls)
     fft          :      0.46s CPU      0.48s WALL (     667 calls)
     ffts         :      0.05s CPU      0.24s WALL (     100 calls)
     fftw         :    675.15s CPU    697.72s WALL ( 5169356 calls)
     interpolate  :      0.12s CPU      0.19s WALL (      50 calls)
 
     Parallel routines
     fft_scatt_xy :     44.08s CPU     45.52s WALL ( 5170123 calls)
     fft_scatt_yz :    455.06s CPU    470.77s WALL ( 5170123 calls)
 
     PWSCF        : 30m51.15s CPU    32m37.03s WALL

 
   This run was terminated on:  23:37:14   2Nov2020            

=------------------------------------------------------------------------------=
   JOB DONE.
=------------------------------------------------------------------------------=
