--------------------------------------------------------------------------
WARNING: No preset parameters were found for the device that Open MPI
detected:

  Local host:            bear-pg0206u36b
  Device name:           mlx5_0
  Device vendor ID:      0x02c9
  Device vendor part ID: 4123

Default device parameters will be used, which may result in lower
performance.  You can edit any of the files specified by the
btl_openib_device_param_files MCA parameter to set values for your
device.

NOTE: You can turn off this warning by setting the MCA parameter
      btl_openib_warn_no_device_params_found to 0.
--------------------------------------------------------------------------
--------------------------------------------------------------------------
WARNING: There was an error initializing an OpenFabrics device.

  Local host:   bear-pg0206u36b
  Local device: mlx5_0
--------------------------------------------------------------------------

     Program PWSCF v.6.3 starts on 13Jun2020 at 22: 6:50 

     This program is part of the open-source Quantum ESPRESSO suite
     for quantum simulation of materials; please cite
         "P. Giannozzi et al., J. Phys.:Condens. Matter 21 395502 (2009);
         "P. Giannozzi et al., J. Phys.:Condens. Matter 29 465901 (2017);
          URL http://www.quantum-espresso.org", 
     in publications or presentations arising from this work. More details at
     http://www.quantum-espresso.org/quote

     Parallel version (MPI & OpenMP), running on      20 processor cores
     Number of MPI processes:                20
     Threads/MPI process:                     1

     MPI processes distributed on     1 nodes
     R & G space division:  proc/nbgrp/npool/nimage =      20
     Reading input from wd/eos/eos_002.in
Warning: card &IONS ignored
Warning: card ION_DYNAMICS = 'BFGS', ignored
Warning: card / ignored
Warning: card &CELL ignored
Warning: card CELL_DYNAMICS = 'BFGS', ignored
Warning: card CELL_FACTOR = 2.0, ignored
Warning: card PRESS = 0.0, ignored
Warning: card / ignored

     Current dimensions of program PWSCF are:
     Max number of different atomic species (ntypx) = 10
     Max number of k-points (npk) =  40000
     Max angular momentum in pseudopotentials (lmaxx) =  3
               file Fe.pbe-spn-kjpaw_psl.1.0.0.UPF: wavefunction(s)  3P 3D renormalized
               file Fe.pbe-spn-kjpaw_psl.1.0.0.UPF: wavefunction(s)  3P 3D renormalized

     Subspace diagonalization in iterative solution of the eigenvalue problem:
     a serial algorithm will be used

     Found symmetry operation: I + (  0.0000  0.0000 -0.5000)
     This is a supercell, fractional translations are disabled
 
     Parallelization info
     --------------------
     sticks:   dense  smooth     PW     G-vecs:    dense   smooth      PW
     Min         185     122     34                 8489     4562     680
     Max         186     123     35                 8494     4565     683
     Sum        3705    2449    681               169797    91287   13613
 


     bravais-lattice index     =            0
     lattice parameter (alat)  =      10.5935  a.u.
     unit-cell volume          =    1128.7351 (a.u.)^3
     number of atoms/cell      =           16
     number of atomic types    =            2
     number of electrons       =       256.00
     number of Kohn-Sham states=          154
     kinetic-energy cutoff     =      71.0000  Ry
     charge density cutoff     =     430.0000  Ry
     convergence threshold     =      1.0E-06
     mixing beta               =       0.1000
     number of iterations used =           10  plain     mixing
     Exchange-correlation      = SLA PW PBX PBC ( 1  4  3  4 0 0)

     celldm(1)=  10.593520  celldm(2)=   0.000000  celldm(3)=   0.000000
     celldm(4)=   0.000000  celldm(5)=   0.000000  celldm(6)=   0.000000

     crystal axes: (cart. coord. in units of alat)
               a(1) = (   0.982857   0.000000   0.000000 )  
               a(2) = (   0.000000   0.982857   0.000000 )  
               a(3) = (   0.000000   0.000000   0.982857 )  

     reciprocal axes: (cart. coord. in units 2 pi/alat)
               b(1) = (  1.017442  0.000000  0.000000 )  
               b(2) = (  0.000000  1.017442  0.000000 )  
               b(3) = (  0.000000  0.000000  1.017442 )  


     PseudoPot. # 1 for Fe read from file:
     /rds/homes/b/bxp912/pp/Fe.pbe-spn-kjpaw_psl.1.0.0.UPF
     MD5 check sum: 42f43b795421b414b0dc916aa790dbcb
     Pseudo is Projector augmented-wave + core cor, Zval = 16.0
     Generated using "atomic" code by A. Dal Corso v.6.3
     Shape of augmentation charge: PSQ
     Using radial grid of 1191 points,  6 beta functions with: 
                l(1) =   0
                l(2) =   0
                l(3) =   1
                l(4) =   1
                l(5) =   2
                l(6) =   2
     Q(r) pseudized with 0 coefficients 


     PseudoPot. # 2 for Fe read from file:
     /rds/homes/b/bxp912/pp/Fe.pbe-spn-kjpaw_psl.1.0.0.UPF
     MD5 check sum: 42f43b795421b414b0dc916aa790dbcb
     Pseudo is Projector augmented-wave + core cor, Zval = 16.0
     Generated using "atomic" code by A. Dal Corso v.6.3
     Shape of augmentation charge: PSQ
     Using radial grid of 1191 points,  6 beta functions with: 
                l(1) =   0
                l(2) =   0
                l(3) =   1
                l(4) =   1
                l(5) =   2
                l(6) =   2
     Q(r) pseudized with 0 coefficients 


     atomic species   valence    mass     pseudopotential
        Fe1           16.00    55.84500     Fe( 1.00)
        Fe2           16.00    55.84500     Fe( 1.00)

     Starting magnetic structure 
     atomic species   magnetization
        Fe1          0.100
        Fe2          0.100

     48 Sym. Ops., with inversion, found



   Cartesian axes

     site n.     atom                  positions (alat units)
         1           Fe1 tau(   1) = (   0.0000000   0.0000000   0.0000000  )
         2           Fe2 tau(   2) = (   0.2457147   0.2457147   0.2457147  )
         3           Fe1 tau(   3) = (   0.0000000   0.0000000   0.4914286  )
         4           Fe2 tau(   4) = (   0.2457147   0.2457147   0.7371424  )
         5           Fe1 tau(   5) = (   0.0000000   0.4914286   0.0000000  )
         6           Fe2 tau(   6) = (   0.2457147   0.7371424   0.2457147  )
         7           Fe1 tau(   7) = (   0.0000000   0.4914286   0.4914286  )
         8           Fe2 tau(   8) = (   0.2457147   0.7371424   0.7371424  )
         9           Fe1 tau(   9) = (   0.4914286   0.0000000   0.0000000  )
        10           Fe2 tau(  10) = (   0.7371424   0.2457147   0.2457147  )
        11           Fe1 tau(  11) = (   0.4914286   0.0000000   0.4914286  )
        12           Fe2 tau(  12) = (   0.7371424   0.2457147   0.7371424  )
        13           Fe1 tau(  13) = (   0.4914286   0.4914286   0.0000000  )
        14           Fe2 tau(  14) = (   0.7371424   0.7371424   0.2457147  )
        15           Fe1 tau(  15) = (   0.4914286   0.4914286   0.4914286  )
        16           Fe2 tau(  16) = (   0.7371424   0.7371424   0.7371424  )

     number of k points=    35  Marzari-Vanderbilt smearing, width (Ry)=  0.0400
                       cart. coord. in units 2pi/alat
        k(    1) = (   0.0565245   0.0565245   0.0565245), wk =   0.0109739
        k(    2) = (   0.0565245   0.0565245   0.1695736), wk =   0.0329218
        k(    3) = (   0.0565245   0.0565245   0.2826227), wk =   0.0329218
        k(    4) = (   0.0565245   0.0565245   0.3956718), wk =   0.0329218
        k(    5) = (   0.0565245   0.0565245  -0.5087209), wk =   0.0164609
        k(    6) = (   0.0565245   0.1695736   0.1695736), wk =   0.0329218
        k(    7) = (   0.0565245   0.1695736   0.2826227), wk =   0.0658436
        k(    8) = (   0.0565245   0.1695736   0.3956718), wk =   0.0658436
        k(    9) = (   0.0565245   0.1695736  -0.5087209), wk =   0.0329218
        k(   10) = (   0.0565245   0.2826227   0.2826227), wk =   0.0329218
        k(   11) = (   0.0565245   0.2826227   0.3956718), wk =   0.0658436
        k(   12) = (   0.0565245   0.2826227  -0.5087209), wk =   0.0329218
        k(   13) = (   0.0565245   0.3956718   0.3956718), wk =   0.0329218
        k(   14) = (   0.0565245   0.3956718  -0.5087209), wk =   0.0329218
        k(   15) = (   0.0565245  -0.5087209  -0.5087209), wk =   0.0082305
        k(   16) = (   0.1695736   0.1695736   0.1695736), wk =   0.0109739
        k(   17) = (   0.1695736   0.1695736   0.2826227), wk =   0.0329218
        k(   18) = (   0.1695736   0.1695736   0.3956718), wk =   0.0329218
        k(   19) = (   0.1695736   0.1695736  -0.5087209), wk =   0.0164609
        k(   20) = (   0.1695736   0.2826227   0.2826227), wk =   0.0329218
        k(   21) = (   0.1695736   0.2826227   0.3956718), wk =   0.0658436
        k(   22) = (   0.1695736   0.2826227  -0.5087209), wk =   0.0329218
        k(   23) = (   0.1695736   0.3956718   0.3956718), wk =   0.0329218
        k(   24) = (   0.1695736   0.3956718  -0.5087209), wk =   0.0329218
        k(   25) = (   0.1695736  -0.5087209  -0.5087209), wk =   0.0082305
        k(   26) = (   0.2826227   0.2826227   0.2826227), wk =   0.0109739
        k(   27) = (   0.2826227   0.2826227   0.3956718), wk =   0.0329218
        k(   28) = (   0.2826227   0.2826227  -0.5087209), wk =   0.0164609
        k(   29) = (   0.2826227   0.3956718   0.3956718), wk =   0.0329218
        k(   30) = (   0.2826227   0.3956718  -0.5087209), wk =   0.0329218
        k(   31) = (   0.2826227  -0.5087209  -0.5087209), wk =   0.0082305
        k(   32) = (   0.3956718   0.3956718   0.3956718), wk =   0.0109739
        k(   33) = (   0.3956718   0.3956718  -0.5087209), wk =   0.0164609
        k(   34) = (   0.3956718  -0.5087209  -0.5087209), wk =   0.0082305
        k(   35) = (  -0.5087209  -0.5087209  -0.5087209), wk =   0.0013717

     Dense  grid:   169797 G-vectors     FFT dimensions: (  72,  72,  72)

     Smooth grid:    91287 G-vectors     FFT dimensions: (  60,  60,  60)

     Estimated max dynamical RAM per process >     146.94 MB

     Estimated total dynamical RAM >       2.87 GB
     Generating pointlists ...
     new r_m :   0.1756 (alat units)  1.8597 (a.u.) for type    1
     new r_m :   0.1756 (alat units)  1.8597 (a.u.) for type    2

     Check: negative/imaginary core charge=   -0.000006    0.000000

     Initial potential from superposition of free atoms

     starting charge  255.99300, renormalised to  256.00000
     Starting wfcs are  160 randomized atomic wfcs
     Checking if some PAW data can be deallocated... 

     total cpu time spent up to now is        8.7 secs

     Self-consistent Calculation

     iteration #  1     ecut=    71.00 Ry     beta= 0.10
     Davidson diagonalization with overlap
     ethr =  1.00E-02,  avg # of iterations =  3.3

     Threshold (ethr) on eigenvalues was too large:
     Diagonalizing with lowered threshold

     Davidson diagonalization with overlap
     ethr =  2.22E-04,  avg # of iterations =  3.3

     total cpu time spent up to now is       65.4 secs

     total energy              =   -5267.95741153 Ry
     Harris-Foulkes estimate   =   -5268.01906134 Ry
     estimated scf accuracy    <       0.64636715 Ry

     total magnetization       =    27.05 Bohr mag/cell
     absolute magnetization    =    27.14 Bohr mag/cell

     iteration #  2     ecut=    71.00 Ry     beta= 0.10
     Davidson diagonalization with overlap
     ethr =  2.52E-04,  avg # of iterations =  1.0

     total cpu time spent up to now is       82.9 secs

     total energy              =   -5267.92361705 Ry
     Harris-Foulkes estimate   =   -5267.96992999 Ry
     estimated scf accuracy    <       0.36499016 Ry

     total magnetization       =    27.68 Bohr mag/cell
     absolute magnetization    =    27.79 Bohr mag/cell

     iteration #  3     ecut=    71.00 Ry     beta= 0.10
     Davidson diagonalization with overlap
     ethr =  1.43E-04,  avg # of iterations =  3.2

     total cpu time spent up to now is      112.9 secs

     total energy              =   -5267.99227241 Ry
     Harris-Foulkes estimate   =   -5267.99642046 Ry
     estimated scf accuracy    <       0.30771606 Ry

     total magnetization       =    29.02 Bohr mag/cell
     absolute magnetization    =    29.29 Bohr mag/cell

     iteration #  4     ecut=    71.00 Ry     beta= 0.10
     Davidson diagonalization with overlap
     ethr =  1.20E-04,  avg # of iterations =  1.0

     total cpu time spent up to now is      130.4 secs

     total energy              =   -5268.00734740 Ry
     Harris-Foulkes estimate   =   -5267.99987701 Ry
     estimated scf accuracy    <       0.10192899 Ry

     total magnetization       =    29.21 Bohr mag/cell
     absolute magnetization    =    29.50 Bohr mag/cell

     iteration #  5     ecut=    71.00 Ry     beta= 0.10
     Davidson diagonalization with overlap
     ethr =  3.98E-05,  avg # of iterations =  1.5

     total cpu time spent up to now is      149.8 secs

     total energy              =   -5268.08032893 Ry
     Harris-Foulkes estimate   =   -5268.01175521 Ry
     estimated scf accuracy    <       0.08943107 Ry

     total magnetization       =    29.26 Bohr mag/cell
     absolute magnetization    =    29.60 Bohr mag/cell

     iteration #  6     ecut=    71.00 Ry     beta= 0.10
     Davidson diagonalization with overlap
     ethr =  3.49E-05,  avg # of iterations =  3.2

     negative rho (up, down):  0.000E+00 2.654E-03

     total cpu time spent up to now is      179.5 secs

     total energy              =   -5268.10252954 Ry
     Harris-Foulkes estimate   =   -5268.10703921 Ry
     estimated scf accuracy    <       0.16975896 Ry

     total magnetization       =    29.94 Bohr mag/cell
     absolute magnetization    =    30.54 Bohr mag/cell

     iteration #  7     ecut=    71.00 Ry     beta= 0.10
     Davidson diagonalization with overlap
     ethr =  3.49E-05,  avg # of iterations =  2.9

     negative rho (up, down):  0.000E+00 1.545E-03

     total cpu time spent up to now is      208.0 secs

     total energy              =   -5268.13504829 Ry
     Harris-Foulkes estimate   =   -5268.14037656 Ry
     estimated scf accuracy    <       0.01166868 Ry

     total magnetization       =    31.34 Bohr mag/cell
     absolute magnetization    =    32.61 Bohr mag/cell

     iteration #  8     ecut=    71.00 Ry     beta= 0.10
     Davidson diagonalization with overlap
     ethr =  4.56E-06,  avg # of iterations =  2.3

     negative rho (up, down):  0.000E+00 1.726E-03

     total cpu time spent up to now is      231.7 secs

     total energy              =   -5268.13890443 Ry
     Harris-Foulkes estimate   =   -5268.13641480 Ry
     estimated scf accuracy    <       0.00800883 Ry

     total magnetization       =    31.30 Bohr mag/cell
     absolute magnetization    =    32.44 Bohr mag/cell

     iteration #  9     ecut=    71.00 Ry     beta= 0.10
     Davidson diagonalization with overlap
     ethr =  3.13E-06,  avg # of iterations =  1.7

     negative rho (up, down):  0.000E+00 2.062E-03

     total cpu time spent up to now is      251.7 secs

     total energy              =   -5268.14170265 Ry
     Harris-Foulkes estimate   =   -5268.13927610 Ry
     estimated scf accuracy    <       0.00471641 Ry

     total magnetization       =    31.47 Bohr mag/cell
     absolute magnetization    =    32.69 Bohr mag/cell

     iteration # 10     ecut=    71.00 Ry     beta= 0.10
     Davidson diagonalization with overlap
     ethr =  1.84E-06,  avg # of iterations =  3.1

     negative rho (up, down):  0.000E+00 1.847E-03

     total cpu time spent up to now is      278.7 secs

     total energy              =   -5268.14283750 Ry
     Harris-Foulkes estimate   =   -5268.14267442 Ry
     estimated scf accuracy    <       0.00101419 Ry

     total magnetization       =    31.75 Bohr mag/cell
     absolute magnetization    =    33.14 Bohr mag/cell

     iteration # 11     ecut=    71.00 Ry     beta= 0.10
     Davidson diagonalization with overlap
     ethr =  3.96E-07,  avg # of iterations =  1.6

     negative rho (up, down):  0.000E+00 2.031E-03

     total cpu time spent up to now is      298.3 secs

     total energy              =   -5268.14312147 Ry
     Harris-Foulkes estimate   =   -5268.14288548 Ry
     estimated scf accuracy    <       0.00078308 Ry

     total magnetization       =    31.79 Bohr mag/cell
     absolute magnetization    =    33.17 Bohr mag/cell

     iteration # 12     ecut=    71.00 Ry     beta= 0.10
     Davidson diagonalization with overlap
     ethr =  3.06E-07,  avg # of iterations =  3.2

     negative rho (up, down):  0.000E+00 2.072E-03

     total cpu time spent up to now is      328.6 secs

     total energy              =   -5268.14352507 Ry
     Harris-Foulkes estimate   =   -5268.14352572 Ry
     estimated scf accuracy    <       0.00016213 Ry

     total magnetization       =    32.00 Bohr mag/cell
     absolute magnetization    =    33.50 Bohr mag/cell

     iteration # 13     ecut=    71.00 Ry     beta= 0.10
     Davidson diagonalization with overlap
     ethr =  6.33E-08,  avg # of iterations =  1.0

     negative rho (up, down):  0.000E+00 2.148E-03

     total cpu time spent up to now is      346.1 secs

     total energy              =   -5268.14351495 Ry
     Harris-Foulkes estimate   =   -5268.14353017 Ry
     estimated scf accuracy    <       0.00008148 Ry

     total magnetization       =    32.01 Bohr mag/cell
     absolute magnetization    =    33.51 Bohr mag/cell

     iteration # 14     ecut=    71.00 Ry     beta= 0.10
     Davidson diagonalization with overlap
     ethr =  3.18E-08,  avg # of iterations =  2.6

     negative rho (up, down):  0.000E+00 2.153E-03

     total cpu time spent up to now is      372.8 secs

     total energy              =   -5268.14351805 Ry
     Harris-Foulkes estimate   =   -5268.14353626 Ry
     estimated scf accuracy    <       0.00008760 Ry

     total magnetization       =    32.04 Bohr mag/cell
     absolute magnetization    =    33.55 Bohr mag/cell

     iteration # 15     ecut=    71.00 Ry     beta= 0.10
     Davidson diagonalization with overlap
     ethr =  3.18E-08,  avg # of iterations =  2.0

     negative rho (up, down):  0.000E+00 2.161E-03

     total cpu time spent up to now is      395.1 secs

     total energy              =   -5268.14354344 Ry
     Harris-Foulkes estimate   =   -5268.14352654 Ry
     estimated scf accuracy    <       0.00003380 Ry

     total magnetization       =    32.05 Bohr mag/cell
     absolute magnetization    =    33.57 Bohr mag/cell

     iteration # 16     ecut=    71.00 Ry     beta= 0.10
     Davidson diagonalization with overlap
     ethr =  1.32E-08,  avg # of iterations =  1.6

     negative rho (up, down):  0.000E+00 2.136E-03

     total cpu time spent up to now is      414.7 secs

     total energy              =   -5268.14355256 Ry
     Harris-Foulkes estimate   =   -5268.14354555 Ry
     estimated scf accuracy    <       0.00001651 Ry

     total magnetization       =    32.05 Bohr mag/cell
     absolute magnetization    =    33.57 Bohr mag/cell

     iteration # 17     ecut=    71.00 Ry     beta= 0.10
     Davidson diagonalization with overlap
     ethr =  6.45E-09,  avg # of iterations =  3.5

     negative rho (up, down):  0.000E+00 2.162E-03

     total cpu time spent up to now is      445.0 secs

     total energy              =   -5268.14355967 Ry
     Harris-Foulkes estimate   =   -5268.14355979 Ry
     estimated scf accuracy    <       0.00000720 Ry

     total magnetization       =    32.04 Bohr mag/cell
     absolute magnetization    =    33.54 Bohr mag/cell

     iteration # 18     ecut=    71.00 Ry     beta= 0.10
     Davidson diagonalization with overlap
     ethr =  2.81E-09,  avg # of iterations =  2.7

     negative rho (up, down):  0.000E+00 2.178E-03
 
     Magnetic moment per site:
     atom:    1    charge:   14.3243    magn:    2.0356    constr:    0.0000
     atom:    2    charge:   14.3242    magn:    2.0373    constr:    0.0000
     atom:    3    charge:   14.3243    magn:    2.0362    constr:    0.0000
     atom:    4    charge:   14.3242    magn:    2.0373    constr:    0.0000
     atom:    5    charge:   14.3243    magn:    2.0362    constr:    0.0000
     atom:    6    charge:   14.3242    magn:    2.0373    constr:    0.0000
     atom:    7    charge:   14.3244    magn:    2.0365    constr:    0.0000
     atom:    8    charge:   14.3242    magn:    2.0373    constr:    0.0000
     atom:    9    charge:   14.3243    magn:    2.0362    constr:    0.0000
     atom:   10    charge:   14.3242    magn:    2.0373    constr:    0.0000
     atom:   11    charge:   14.3244    magn:    2.0365    constr:    0.0000
     atom:   12    charge:   14.3242    magn:    2.0373    constr:    0.0000
     atom:   13    charge:   14.3244    magn:    2.0365    constr:    0.0000
     atom:   14    charge:   14.3242    magn:    2.0373    constr:    0.0000
     atom:   15    charge:   14.3243    magn:    2.0368    constr:    0.0000
     atom:   16    charge:   14.3242    magn:    2.0373    constr:    0.0000

     total cpu time spent up to now is      470.7 secs

     End of self-consistent calculation

 ------ SPIN UP ------------


          k = 0.0565 0.0565 0.0565 ( 11366 PWs)   bands (ev):

   -67.8976 -67.8030 -67.8030 -67.8029 -67.7875 -67.7875 -67.7875 -67.7862
   -67.7862 -67.7862 -67.7857 -67.7857 -67.7854 -67.7794 -67.7782 -67.7061
   -34.1600 -34.1600 -34.1600 -34.1571 -34.1571 -34.1570 -34.0020 -34.0020
   -33.9962 -33.9282 -33.9251 -33.9251 -33.9251 -33.9050 -33.9050 -33.8914
   -33.8914 -33.8914 -33.8564 -33.8564 -33.8331 -33.8186 -33.8185 -33.8185
   -33.8076 -33.8076 -33.8076 -33.7952 -33.7952 -33.7952 -33.7921 -33.7921
   -33.7921 -33.7843 -33.7843 -33.7843 -33.7740 -33.7740 -33.7739 -33.6177
   -33.6160 -33.6160 -33.6159 -33.6131 -33.6131 -33.6131 -33.6113 -33.6113
    11.2821  14.8611  14.8612  14.8612  14.8800  14.8800  14.8800  14.8840
    14.8840  14.9940  14.9941  14.9941  15.3995  15.3995  15.3995  16.5963
    16.6030  16.6030  16.6030  16.6167  16.6167  16.6168  16.6883  16.6883
    16.7639  16.7639  16.7639  16.8436  16.8436  16.9046  17.1322  17.1322
    17.1322  17.8373  17.8373  17.8825  18.1845  18.1845  18.1846  18.2706
    18.2707  18.2707  18.3707  18.3707  18.3707  18.4586  18.4586  18.4586
    19.1478  19.1479  19.1479  19.1750  19.1750  19.2158  19.2159  19.2159
    19.2701  19.2701  19.2701  19.2772  19.2772  19.2772  19.3879  19.3879
    19.3879  19.4085  19.4085  19.4085  19.4519  19.4519  19.4530  19.4530
    20.3463  20.3463  20.3463  20.3827  20.3828  20.3828  20.5364  20.5803
    20.5803  20.5803  20.6087  20.6087  20.9861  20.9862  20.9862  21.1471
    21.1471  21.1471

          k = 0.0565 0.0565 0.1696 ( 11379 PWs)   bands (ev):

   -67.8942 -67.8199 -67.8023 -67.8022 -67.7893 -67.7893 -67.7870 -67.7860
   -67.7860 -67.7852 -67.7849 -67.7848 -67.7799 -67.7787 -67.7701 -67.7085
   -34.1524 -34.1523 -34.1513 -34.1486 -34.1438 -34.1438 -34.0051 -33.9958
   -33.9864 -33.9634 -33.9550 -33.9550 -33.9528 -33.9524 -33.9225 -33.9225
   -33.8895 -33.8630 -33.8527 -33.8527 -33.8410 -33.8184 -33.8184 -33.8097
   -33.8009 -33.7987 -33.7987 -33.7972 -33.7970 -33.7896 -33.7896 -33.7848
   -33.7848 -33.7806 -33.7806 -33.7511 -33.7482 -33.7481 -33.7415 -33.6319
   -33.6251 -33.6250 -33.6236 -33.6209 -33.6168 -33.6161 -33.6161 -33.6137
    11.4191  14.4387  14.8846  14.8846  14.9425  14.9425  14.9448  14.9497
    14.9601  14.9777  15.0412  15.0412  15.4353  15.4353  15.6152  16.4013
    16.4821  16.5853  16.5889  16.6011  16.6117  16.6513  16.6513  16.6922
    16.6922  16.7235  16.7457  16.7457  17.0574  17.0576  17.0786  17.0786
    17.4863  17.8138  17.8340  17.9434  17.9756  17.9756  18.0378  18.1398
    18.1502  18.1502  18.3996  18.3997  18.5330  18.5330  18.5986  18.6954
    18.7941  18.7941  18.9132  19.0866  19.0867  19.1093  19.1488  19.2023
    19.2224  19.2225  19.2841  19.2864  19.3069  19.3069  19.3683  19.3683
    19.4112  19.4458  19.4482  19.4490  19.4524  19.6014  19.6015  19.6265
    19.7032  19.9867  19.9882  20.2893  20.2893  20.3759  20.4049  20.4049
    20.4821  20.6016  20.7151  20.7151  21.0237  21.0238  21.0497  21.0497
    21.4529  21.4529

          k = 0.0565 0.0565 0.2826 ( 11383 PWs)   bands (ev):

   -67.8878 -67.8365 -67.8009 -67.8008 -67.7916 -67.7915 -67.7861 -67.7856
   -67.7855 -67.7844 -67.7844 -67.7842 -67.7808 -67.7795 -67.7552 -67.7135
   -34.1348 -34.1348 -34.1340 -34.1321 -34.1209 -34.1209 -34.0059 -34.0034
   -33.9979 -33.9949 -33.9948 -33.9838 -33.9741 -33.9723 -33.9649 -33.9649
   -33.8855 -33.8749 -33.8735 -33.8583 -33.8165 -33.8165 -33.8112 -33.8106
   -33.8068 -33.8024 -33.8024 -33.7875 -33.7875 -33.7849 -33.7849 -33.7655
   -33.7580 -33.7469 -33.7469 -33.7197 -33.7164 -33.7163 -33.7108 -33.6566
   -33.6396 -33.6396 -33.6382 -33.6366 -33.6280 -33.6251 -33.6251 -33.6231
    11.6888  13.8071  14.9432  14.9432  15.0442  15.0442  15.0646  15.0727
    15.1027  15.1027  15.1502  15.1653  15.4612  15.4612  15.6553  16.0578
    16.3248  16.3782  16.5279  16.5642  16.5745  16.5836  16.7592  16.7592
    16.7838  16.7838  16.8267  16.8267  17.0670  17.0670  17.3214  17.3328
    17.6948  17.6949  17.7684  17.8004  17.8298  17.8529  17.8529  17.9292
    18.0330  18.1087  18.2882  18.2882  18.5586  18.5586  18.6035  18.6035
    18.6583  18.6583  18.6906  18.8687  18.9146  18.9757  18.9801  19.0822
    19.1486  19.1487  19.2407  19.2407  19.2546  19.3105  19.3264  19.4163
    19.4322  19.4351  19.4441  19.4517  19.6219  19.6540  19.6540  19.7324
    19.8562  19.8796  19.8797  20.1328  20.2520  20.3225  20.3225  20.4496
    20.4496  20.5327  20.6959  20.6959  20.8878  20.8879  21.1664  21.1664
    21.5616  21.5616

          k = 0.0565 0.0565 0.3957 ( 11393 PWs)   bands (ev):

   -67.8783 -67.8522 -67.7989 -67.7989 -67.7940 -67.7940 -67.7851 -67.7851
   -67.7849 -67.7843 -67.7843 -67.7832 -67.7821 -67.7806 -67.7419 -67.7207
   -34.1094 -34.1084 -34.1084 -34.1083 -34.0893 -34.0893 -34.0424 -34.0402
   -34.0362 -34.0362 -34.0092 -34.0092 -34.0042 -33.9893 -33.9659 -33.9536
   -33.9161 -33.9037 -33.8594 -33.8479 -33.8258 -33.8198 -33.8136 -33.8136
   -33.8063 -33.8063 -33.7862 -33.7861 -33.7851 -33.7851 -33.7677 -33.7249
   -33.7209 -33.7140 -33.7140 -33.6910 -33.6884 -33.6864 -33.6864 -33.6827
   -33.6598 -33.6596 -33.6596 -33.6595 -33.6445 -33.6398 -33.6398 -33.6382
    12.0821  13.1709  15.0221  15.0222  15.1289  15.1289  15.1740  15.1741
    15.2360  15.2409  15.4158  15.4202  15.4203  15.4266  15.5696  15.7439
    16.0556  16.0677  16.5071  16.5252  16.5360  16.5444  16.9218  16.9218
    16.9616  16.9617  17.0142  17.0142  17.1795  17.1795  17.4322  17.4322
    17.5549  17.5550  17.6610  17.6698  17.7801  17.7801  17.7993  17.8296
    17.8468  17.8571  18.0030  18.0030  18.1543  18.2920  18.4865  18.5010
    18.5466  18.7923  18.7985  18.7985  18.8148  18.8148  19.0510  19.0510
    19.1427  19.1427  19.1749  19.2898  19.3312  19.3440  19.3492  19.4098
    19.4114  19.4228  19.4378  19.4532  19.4980  19.5595  19.8318  19.9298
    19.9298  19.9539  20.0693  20.1517  20.1517  20.2889  20.2889  20.4153
    20.5182  20.5182  20.5772  20.5772  20.7433  20.7433  21.3140  21.3140
    21.5566  21.5566

          k = 0.0565 0.0565-0.5087 ( 11388 PWs)   bands (ev):

   -67.8664 -67.8662 -67.7966 -67.7966 -67.7965 -67.7964 -67.7847 -67.7846
   -67.7845 -67.7844 -67.7835 -67.7835 -67.7821 -67.7818 -67.7304 -67.7302
   -34.0781 -34.0779 -34.0778 -34.0777 -34.0747 -34.0747 -34.0747 -34.0747
   -34.0515 -34.0515 -34.0515 -34.0515 -33.9989 -33.9988 -33.9432 -33.9430
   -33.9308 -33.9307 -33.8428 -33.8426 -33.8343 -33.8341 -33.8102 -33.8102
   -33.8101 -33.8101 -33.7855 -33.7855 -33.7853 -33.7853 -33.7257 -33.7256
   -33.6893 -33.6891 -33.6879 -33.6877 -33.6846 -33.6846 -33.6846 -33.6845
   -33.6659 -33.6657 -33.6605 -33.6605 -33.6605 -33.6604 -33.6583 -33.6582
    12.5840  12.5840  15.0953  15.0953  15.0953  15.0954  15.3112  15.3112
    15.3113  15.3113  15.4139  15.4139  15.4693  15.4693  15.7328  15.7328
    15.7359  15.7359  16.5135  16.5136  16.5225  16.5226  17.1260  17.1260
    17.1260  17.1260  17.2030  17.2030  17.2031  17.2031  17.3759  17.3760
    17.3760  17.3760  17.5444  17.5444  17.5444  17.5444  17.8160  17.8161
    17.8377  17.8379  18.0644  18.0646  18.0702  18.0704  18.3062  18.3063
    18.5553  18.5553  18.9328  18.9328  18.9328  18.9328  18.9997  18.9997
    18.9997  18.9997  19.3792  19.3794  19.3805  19.3806  19.4303  19.4304
    19.4316  19.4317  19.4631  19.4632  19.5031  19.5032  19.6231  19.6232
    20.1538  20.1538  20.1538  20.1538  20.2581  20.2582  20.3899  20.3899
    20.3899  20.3899  20.6149  20.6149  20.6149  20.6149  21.4587  21.4587
    21.4587  21.4587

          k = 0.0565 0.1696 0.1696 ( 11389 PWs)   bands (ev):

   -67.8910 -67.8187 -67.8187 -67.8015 -67.7940 -67.7888 -67.7887 -67.7857
   -67.7844 -67.7843 -67.7810 -67.7805 -67.7790 -67.7704 -67.7703 -67.7110
   -34.1504 -34.1441 -34.1440 -34.1363 -34.1363 -34.1251 -34.0118 -33.9921
   -33.9858 -33.9809 -33.9808 -33.9735 -33.9714 -33.9668 -33.9430 -33.8995
   -33.8848 -33.8847 -33.8524 -33.8518 -33.8518 -33.8240 -33.8133 -33.8132
   -33.8079 -33.8051 -33.8051 -33.7945 -33.7945 -33.7911 -33.7889 -33.7811
   -33.7706 -33.7591 -33.7523 -33.7523 -33.7294 -33.7172 -33.7172 -33.6523
   -33.6394 -33.6310 -33.6309 -33.6235 -33.6235 -33.6216 -33.6128 -33.6114
    11.5545  14.5060  14.5060  14.8578  14.9849  14.9849  15.0043  15.0149
    15.0357  15.0394  15.0394  15.0970  15.4835  15.6519  15.6519  16.3798
    16.4087  16.4087  16.4911  16.6340  16.6341  16.6643  16.6705  16.6705
    16.6716  16.7077  16.7909  16.7941  17.0068  17.0584  17.0693  17.3801
    17.3801  17.7558  17.8196  17.8405  17.8406  17.8970  18.0268  18.0429
    18.3199  18.3200  18.3640  18.3640  18.3961  18.4445  18.5810  18.7136
    18.7137  18.7162  18.7162  19.0032  19.0033  19.0998  19.1346  19.1366
    19.1367  19.1457  19.1831  19.2392  19.2392  19.3005  19.3005  19.3878
    19.4372  19.4445  19.4471  19.4566  19.5148  19.7084  19.7158  19.8046
    19.8046  19.8310  19.8310  19.9786  19.9787  20.1634  20.2100  20.2100
    20.3877  20.4651  20.6271  20.7958  20.8311  21.1511  21.7145  21.7145
    21.9347  21.9347

          k = 0.0565 0.1696 0.2826 ( 11388 PWs)   bands (ev):

   -67.8847 -67.8348 -67.8163 -67.8001 -67.7989 -67.7910 -67.7878 -67.7853
   -67.7840 -67.7836 -67.7817 -67.7796 -67.7779 -67.7710 -67.7559 -67.7156
   -34.1386 -34.1278 -34.1275 -34.1218 -34.1151 -34.0973 -34.0180 -34.0174
   -34.0144 -34.0036 -34.0017 -34.0000 -33.9803 -33.9758 -33.9525 -33.9283
   -33.8889 -33.8840 -33.8487 -33.8480 -33.8455 -33.8426 -33.8255 -33.8173
   -33.8172 -33.8101 -33.8040 -33.7932 -33.7911 -33.7788 -33.7734 -33.7557
   -33.7543 -33.7402 -33.7319 -33.7215 -33.7049 -33.6882 -33.6879 -33.6811
   -33.6591 -33.6430 -33.6428 -33.6379 -33.6325 -33.6307 -33.6158 -33.6151
    11.8207  13.8953  14.6179  14.8514  15.0449  15.1177  15.1408  15.1414
    15.1611  15.1746  15.1777  15.2248  15.5315  15.6660  15.6988  16.0851
    16.2641  16.3525  16.4886  16.5885  16.6041  16.6333  16.6812  16.7083
    16.7328  16.7516  16.7907  16.9540  16.9579  17.2254  17.2612  17.3111
    17.5841  17.6030  17.7025  17.7035  17.7482  17.8043  17.8092  17.9470
    18.0543  18.1712  18.2245  18.3290  18.4584  18.5245  18.5692  18.6074
    18.6182  18.6927  18.7007  18.7231  18.7466  18.9108  18.9535  19.0032
    19.0405  19.1686  19.2229  19.2382  19.2714  19.2940  19.3035  19.4195
    19.4268  19.4290  19.4463  19.4665  19.5475  19.6687  19.6941  19.7103
    19.8410  19.8789  19.8839  19.9189  19.9655  20.0490  20.0955  20.1651
    20.2962  20.5858  20.5943  20.6116  20.8166  21.3352  21.5039  22.1155
    22.1399  22.4334

          k = 0.0565 0.1696 0.3957 ( 11400 PWs)   bands (ev):

   -67.8755 -67.8500 -67.8129 -67.8039 -67.7982 -67.7934 -67.7864 -67.7848
   -67.7840 -67.7832 -67.7827 -67.7805 -67.7753 -67.7719 -67.7430 -67.7227
   -34.1178 -34.1043 -34.1031 -34.1008 -34.0859 -34.0616 -34.0551 -34.0451
   -34.0394 -34.0382 -34.0204 -34.0136 -34.0125 -33.9748 -33.9629 -33.9305
   -33.9140 -33.8763 -33.8717 -33.8422 -33.8412 -33.8339 -33.8263 -33.8237
   -33.8163 -33.8153 -33.7993 -33.7922 -33.7918 -33.7670 -33.7575 -33.7442
   -33.7195 -33.7162 -33.7101 -33.7050 -33.6935 -33.6833 -33.6810 -33.6627
   -33.6616 -33.6603 -33.6598 -33.6592 -33.6485 -33.6430 -33.6253 -33.6250
    12.2083  13.2762  14.7331  14.8451  15.1243  15.2180  15.2706  15.2782
    15.3100  15.3148  15.4465  15.4807  15.5090  15.5984  15.6178  15.7880
    16.0624  16.0904  16.5389  16.5698  16.5829  16.5925  16.7080  16.8344
    16.8729  16.8867  16.9412  17.0004  17.1618  17.2706  17.4397  17.4951
    17.5143  17.5193  17.5486  17.5768  17.6700  17.6746  17.7339  17.7369
    17.7566  17.7874  17.9357  18.1170  18.2276  18.3050  18.3235  18.4558
    18.6963  18.7960  18.8073  18.8162  18.8284  18.8444  18.9109  18.9480
    19.0746  19.1374  19.1891  19.2387  19.3007  19.3141  19.3260  19.3924
    19.4001  19.4468  19.4725  19.4875  19.5328  19.5647  19.6329  19.6983
    19.7560  19.8342  19.8736  19.9520  19.9676  20.0431  20.2458  20.2759
    20.3491  20.3531  20.5372  20.7227  20.7912  21.2735  21.5680  22.0130
    22.3290  22.5794

          k = 0.0565 0.1696-0.5087 ( 11404 PWs)   bands (ev):

   -67.8638 -67.8636 -67.8088 -67.8086 -67.7960 -67.7958 -67.7849 -67.7848
   -67.7844 -67.7842 -67.7817 -67.7814 -67.7735 -67.7733 -67.7319 -67.7318
   -34.0895 -34.0895 -34.0749 -34.0747 -34.0744 -34.0743 -34.0723 -34.0723
   -34.0512 -34.0512 -34.0199 -34.0199 -34.0190 -34.0189 -33.9406 -33.9405
   -33.9049 -33.9048 -33.8529 -33.8527 -33.8350 -33.8348 -33.8297 -33.8295
   -33.8201 -33.8200 -33.7920 -33.7919 -33.7617 -33.7616 -33.7564 -33.7563
   -33.7121 -33.7121 -33.6869 -33.6868 -33.6831 -33.6829 -33.6805 -33.6805
   -33.6689 -33.6688 -33.6600 -33.6599 -33.6415 -33.6415 -33.6404 -33.6403
    12.7016  12.7017  14.8123  14.8123  15.1948  15.1948  15.4066  15.4067
    15.4610  15.4610  15.4654  15.4654  15.5290  15.5290  15.7645  15.7645
    15.7769  15.7770  16.5425  16.5426  16.5659  16.5660  17.0078  17.0078
    17.0093  17.0094  17.0488  17.0488  17.0695  17.0695  17.4444  17.4444
    17.4714  17.4715  17.5577  17.5578  17.6605  17.6605  17.6715  17.6715
    17.7679  17.7680  17.8826  17.8827  17.8871  17.8873  18.4990  18.4991
    18.6503  18.6503  18.8643  18.8643  18.9598  18.9598  18.9914  18.9914
    19.0292  19.0292  19.2325  19.2326  19.3589  19.3590  19.3596  19.3597
    19.4028  19.4029  19.4519  19.4520  19.5333  19.5333  19.5538  19.5540
    19.8010  19.8011  19.9203  19.9203  20.1095  20.1095  20.1828  20.1828
    20.4119  20.4120  20.5631  20.5631  21.0289  21.0289  21.8084  21.8084
    22.5117  22.5118

          k = 0.0565 0.2826 0.2826 ( 11379 PWs)   bands (ev):

   -67.8787 -67.8315 -67.8314 -67.8065 -67.7988 -67.7899 -67.7898 -67.7849
   -67.7833 -67.7833 -67.7831 -67.7799 -67.7721 -67.7575 -67.7574 -67.7200
   -34.1327 -34.1134 -34.1134 -34.1035 -34.1035 -34.0651 -34.0332 -34.0331
   -34.0299 -34.0297 -34.0205 -34.0175 -33.9961 -33.9694 -33.9287 -33.8898
   -33.8868 -33.8867 -33.8782 -33.8782 -33.8443 -33.8340 -33.8321 -33.8239
   -33.8238 -33.8109 -33.8108 -33.8026 -33.8026 -33.7974 -33.7604 -33.7330
   -33.7255 -33.7254 -33.7182 -33.7149 -33.7121 -33.6892 -33.6829 -33.6626
   -33.6626 -33.6501 -33.6501 -33.6425 -33.6421 -33.6421 -33.6129 -33.6120
    12.0796  14.0562  14.0562  14.7535  15.2159  15.2399  15.2399  15.2759
    15.2860  15.2925  15.3244  15.3244  15.6282  15.7185  15.7185  16.2003
    16.2003  16.2031  16.2751  16.6333  16.6358  16.6873  16.6873  16.7095
    16.7296  16.7296  16.8023  16.8498  17.1376  17.1780  17.2375  17.4586
    17.4586  17.5510  17.5511  17.5613  17.6055  17.6256  17.6973  17.7706
    18.0851  18.0851  18.2382  18.2382  18.2981  18.2981  18.3435  18.4964
    18.5798  18.5799  18.6918  18.7776  18.8961  18.8961  18.9408  19.0057
    19.1977  19.1978  19.1997  19.2084  19.2084  19.2445  19.2445  19.2734
    19.3508  19.3928  19.4089  19.4569  19.4912  19.5732  19.6670  19.6670
    19.6726  19.6726  19.7338  19.8947  19.9522  19.9584  19.9585  20.2915
    20.2916  20.3438  20.6615  20.8431  20.8524  21.6172  22.1776  22.1776
    22.8364  22.8364

          k = 0.0565 0.2826 0.3957 ( 11399 PWs)   bands (ev):

   -67.8699 -67.8458 -67.8267 -67.8139 -67.7969 -67.7922 -67.7884 -67.7848
   -67.7843 -67.7834 -67.7825 -67.7806 -67.7671 -67.7598 -67.7454 -67.7265
   -34.1177 -34.0936 -34.0930 -34.0877 -34.0794 -34.0659 -34.0488 -34.0429
   -34.0421 -34.0413 -34.0388 -34.0261 -34.0226 -33.9529 -33.9344 -33.9066
   -33.9023 -33.8789 -33.8697 -33.8461 -33.8431 -33.8422 -33.8420 -33.8376
   -33.8369 -33.8305 -33.8150 -33.8023 -33.8009 -33.7756 -33.7542 -33.7491
   -33.7315 -33.7108 -33.7062 -33.6992 -33.6967 -33.6924 -33.6735 -33.6618
   -33.6612 -33.6591 -33.6573 -33.6495 -33.6415 -33.6410 -33.6157 -33.6155
    12.4549  13.4761  14.2585  14.6283  15.3182  15.3522  15.3720  15.4304
    15.4523  15.4614  15.5086  15.5739  15.6486  15.6596  15.6656  15.9302
    16.0804  16.1010  16.4412  16.5965  16.6355  16.6393  16.6628  16.6754
    16.7908  16.8253  16.8260  16.9079  17.1572  17.2563  17.3298  17.3757
    17.3843  17.4642  17.5089  17.5287  17.5365  17.5520  17.6296  17.6860
    17.7316  17.7898  17.8725  17.9304  17.9676  18.0470  18.5356  18.5820
    18.6598  18.8172  18.8435  18.8485  18.8683  18.8956  18.9222  18.9678
    19.1144  19.1225  19.1446  19.1701  19.2366  19.2511  19.2621  19.2698
    19.3548  19.3719  19.4052  19.4734  19.4803  19.4815  19.5313  19.5541
    19.6189  19.6769  19.7338  19.7379  19.7569  19.9312  19.9916  20.0865
    20.4562  20.5127  20.6504  20.7977  21.1734  21.8553  21.9526  22.6027
    22.8813  23.5134

          k = 0.0565 0.2826-0.5087 ( 11394 PWs)   bands (ev):

   -67.8589 -67.8587 -67.8208 -67.8206 -67.7947 -67.7946 -67.7867 -67.7866
   -67.7839 -67.7837 -67.7816 -67.7814 -67.7631 -67.7629 -67.7351 -67.7349
   -34.0950 -34.0950 -34.0689 -34.0688 -34.0688 -34.0687 -34.0685 -34.0684
   -34.0514 -34.0514 -34.0428 -34.0428 -33.9815 -33.9815 -33.9319 -33.9318
   -33.8733 -33.8733 -33.8618 -33.8617 -33.8588 -33.8586 -33.8354 -33.8353
   -33.8276 -33.8274 -33.8021 -33.8020 -33.7976 -33.7976 -33.7420 -33.7420
   -33.7394 -33.7393 -33.6808 -33.6807 -33.6774 -33.6773 -33.6764 -33.6762
   -33.6753 -33.6753 -33.6601 -33.6601 -33.6256 -33.6255 -33.6250 -33.6250
    12.9293  12.9294  14.4606  14.4607  15.3781  15.3782  15.5085  15.5086
    15.5608  15.5609  15.5819  15.5819  15.6830  15.6830  15.8168  15.8168
    15.8497  15.8497  16.5961  16.5962  16.6192  16.6193  16.7735  16.7735
    16.8099  16.8100  16.8508  16.8508  17.0624  17.0624  17.4805  17.4805
    17.4872  17.4872  17.5145  17.5145  17.6069  17.6071  17.6213  17.6214
    17.6546  17.6546  17.6882  17.6883  17.7025  17.7025  18.7418  18.7419
    18.7924  18.7925  18.8362  18.8363  18.8993  18.8994  19.0060  19.0060
    19.0162  19.0162  19.0197  19.0197  19.3104  19.3105  19.3201  19.3203
    19.3503  19.3504  19.3849  19.3850  19.4959  19.4960  19.5005  19.5006
    19.6032  19.6032  19.7608  19.7609  19.8121  19.8121  19.9719  19.9719
    20.5792  20.5792  20.6856  20.6857  21.5163  21.5163  22.2943  22.2943
    23.5996  23.5997

          k = 0.0565 0.3957 0.3957 ( 11388 PWs)   bands (ev):

   -67.8618 -67.8398 -67.8397 -67.8234 -67.7951 -67.7907 -67.7906 -67.7867
   -67.7837 -67.7827 -67.7826 -67.7811 -67.7599 -67.7491 -67.7490 -67.7323
   -34.1087 -34.0793 -34.0793 -34.0709 -34.0709 -34.0687 -34.0687 -34.0544
   -34.0540 -34.0517 -34.0508 -34.0360 -33.9838 -33.9378 -33.8953 -33.8953
   -33.8898 -33.8897 -33.8768 -33.8720 -33.8645 -33.8486 -33.8486 -33.8470
   -33.8332 -33.8143 -33.8143 -33.8085 -33.8079 -33.8078 -33.7976 -33.7411
   -33.7329 -33.7080 -33.7079 -33.6895 -33.6837 -33.6807 -33.6704 -33.6668
   -33.6653 -33.6653 -33.6598 -33.6598 -33.6254 -33.6253 -33.6122 -33.6121
    12.8094  13.7481  13.7481  14.3621  15.4508  15.5293  15.5300  15.5781
    15.5781  15.6402  15.6402  15.6650  15.6914  15.6914  15.7922  16.0433
    16.0643  16.1714  16.1714  16.5890  16.6194  16.6323  16.7009  16.7009
    16.7055  16.7055  16.7218  16.8152  16.9822  17.2580  17.2682  17.2683
    17.3252  17.4088  17.4378  17.4784  17.5617  17.5617  17.5841  17.5841
    17.5956  17.5956  17.6240  17.6769  17.8380  18.2421  18.2422  18.7648
    18.8410  18.8565  18.8565  18.8911  18.9394  18.9697  18.9797  18.9798
    18.9924  19.1232  19.1795  19.1795  19.1888  19.1888  19.2270  19.2527
    19.2528  19.3006  19.3073  19.3247  19.4124  19.4125  19.4299  19.5075
    19.5841  19.6181  19.6182  19.7059  19.7892  19.7892  19.8196  19.8597
    20.6330  20.6330  20.7075  20.8083  21.5975  22.3868  22.4644  22.4644
    23.2397  23.2397

          k = 0.0565 0.3957-0.5087 ( 11420 PWs)   bands (ev):

   -67.8517 -67.8515 -67.8323 -67.8321 -67.7931 -67.7929 -67.7889 -67.7887
   -67.7832 -67.7830 -67.7820 -67.7817 -67.7540 -67.7538 -67.7399 -67.7397
   -34.0920 -34.0920 -34.0646 -34.0646 -34.0645 -34.0645 -34.0644 -34.0643
   -34.0623 -34.0622 -34.0528 -34.0528 -33.9378 -33.9378 -33.9186 -33.9185
   -33.8814 -33.8812 -33.8657 -33.8657 -33.8509 -33.8509 -33.8435 -33.8435
   -33.8400 -33.8400 -33.8257 -33.8256 -33.8128 -33.8128 -33.7737 -33.7737
   -33.7193 -33.7191 -33.6874 -33.6872 -33.6736 -33.6735 -33.6732 -33.6731
   -33.6715 -33.6715 -33.6622 -33.6621 -33.6155 -33.6155 -33.6154 -33.6154
    13.2508  13.2508  14.0573  14.0574  15.5562  15.5562  15.6001  15.6002
    15.6051  15.6052  15.7933  15.7933  15.8512  15.8512  15.9078  15.9079
    15.9285  15.9286  16.4761  16.4761  16.6272  16.6272  16.6349  16.6349
    16.6467  16.6467  16.7130  16.7130  17.1045  17.1045  17.3201  17.3201
    17.3767  17.3768  17.4141  17.4141  17.4163  17.4164  17.4350  17.4351
    17.6337  17.6338  17.6627  17.6627  17.9176  17.9176  18.5536  18.5537
    18.8798  18.8799  18.9254  18.9254  19.0094  19.0094  19.0205  19.0206
    19.0628  19.0629  19.0961  19.0962  19.1835  19.1836  19.2370  19.2371
    19.2606  19.2607  19.2889  19.2890  19.3352  19.3353  19.5425  19.5425
    19.5508  19.5508  19.6615  19.6615  19.6647  19.6647  19.8211  19.8211
    20.7003  20.7003  20.7529  20.7529  22.0332  22.0333  22.8272  22.8272
    23.0842  23.0843

          k = 0.0565-0.5087-0.5087 ( 11428 PWs)   bands (ev):

   -67.8428 -67.8426 -67.8426 -67.8424 -67.7911 -67.7910 -67.7910 -67.7908
   -67.7826 -67.7825 -67.7825 -67.7822 -67.7463 -67.7462 -67.7462 -67.7459
   -34.0815 -34.0815 -34.0815 -34.0815 -34.0628 -34.0627 -34.0627 -34.0626
   -34.0566 -34.0565 -34.0565 -34.0565 -33.9016 -33.9015 -33.9015 -33.9013
   -33.8910 -33.8909 -33.8909 -33.8909 -33.8619 -33.8619 -33.8619 -33.8619
   -33.8210 -33.8210 -33.8209 -33.8209 -33.8068 -33.8068 -33.8067 -33.8067
   -33.7019 -33.7018 -33.7018 -33.7015 -33.6709 -33.6708 -33.6708 -33.6708
   -33.6671 -33.6670 -33.6670 -33.6669 -33.6121 -33.6121 -33.6120 -33.6120
    13.6393  13.6394  13.6394  13.6395  15.5928  15.5928  15.5928  15.5929
    15.7917  15.7918  15.7918  15.7918  15.9376  15.9377  15.9377  15.9377
    16.1797  16.1797  16.1798  16.1798  16.5870  16.5870  16.5870  16.5870
    16.6445  16.6445  16.6445  16.6445  17.1922  17.1922  17.1923  17.1923
    17.3278  17.3279  17.3279  17.3280  17.3750  17.3751  17.3751  17.3752
    17.6255  17.6255  17.6255  17.6257  18.2210  18.2211  18.2211  18.2211
    19.0020  19.0020  19.0020  19.0022  19.0156  19.0156  19.0156  19.0156
    19.1483  19.1483  19.1483  19.1484  19.1832  19.1833  19.1833  19.1833
    19.2638  19.2638  19.2638  19.2640  19.2747  19.2747  19.2748  19.2748
    19.6017  19.6017  19.6017  19.6018  19.7255  19.7255  19.7255  19.7256
    20.7592  20.7592  20.7592  20.7592  22.5598  22.5598  22.5598  22.5599
    23.3691  23.3691

          k = 0.1696 0.1696 0.1696 ( 11392 PWs)   bands (ev):

   -67.8879 -67.8175 -67.8175 -67.8174 -67.7934 -67.7934 -67.7933 -67.7820
   -67.7808 -67.7808 -67.7807 -67.7785 -67.7707 -67.7707 -67.7706 -67.7132
   -34.1420 -34.1419 -34.1419 -34.1191 -34.1191 -34.1191 -34.0055 -34.0051
   -34.0051 -33.9972 -33.9972 -33.9971 -33.9528 -33.9465 -33.9465 -33.9065
   -33.9064 -33.9064 -33.8588 -33.8587 -33.8587 -33.8162 -33.8162 -33.8162
   -33.8062 -33.8062 -33.7899 -33.7898 -33.7898 -33.7854 -33.7854 -33.7854
   -33.7547 -33.7547 -33.7547 -33.7465 -33.7014 -33.7014 -33.7013 -33.6725
   -33.6430 -33.6430 -33.6430 -33.6207 -33.6207 -33.6207 -33.6173 -33.6173
    11.6884  14.5789  14.5789  14.5789  14.9623  14.9623  14.9623  15.0715
    15.0715  15.1301  15.1301  15.1301  15.7051  15.7051  15.7051  16.2946
    16.3963  16.3963  16.3963  16.5837  16.5837  16.6546  16.6547  16.6547
    16.7623  16.7623  16.7623  16.9656  16.9656  16.9818  17.2675  17.2676
    17.2676  17.7436  17.7436  17.7765  17.7765  17.7766  18.1550  18.1763
    18.1763  18.1763  18.3305  18.3305  18.3305  18.3882  18.3882  18.3882
    18.7831  18.7831  18.7831  19.0216  19.0216  19.0216  19.1309  19.1309
    19.1653  19.1653  19.1653  19.3162  19.3163  19.3163  19.3700  19.3700
    19.3700  19.3909  19.3909  19.3909  19.4320  19.4320  19.4578  19.4578
    19.9074  19.9198  19.9198  19.9199  19.9951  19.9951  19.9951  20.4384
    20.4384  20.4384  20.5008  20.5008  21.3542  21.3542  21.3542  22.0657
    22.0657  22.0657

          k = 0.1696 0.1696 0.2826 ( 11408 PWs)   bands (ev):

   -67.8817 -67.8331 -67.8152 -67.8151 -67.7983 -67.7982 -67.7921 -67.7839
   -67.7803 -67.7784 -67.7778 -67.7776 -67.7712 -67.7712 -67.7567 -67.7178
   -34.1306 -34.1306 -34.1252 -34.1076 -34.0932 -34.0932 -34.0267 -34.0242
   -34.0241 -34.0162 -34.0137 -33.9926 -33.9913 -33.9412 -33.9412 -33.9308
   -33.9242 -33.8923 -33.8656 -33.8600 -33.8600 -33.8316 -33.8275 -33.8275
   -33.8204 -33.8141 -33.7925 -33.7773 -33.7773 -33.7628 -33.7607 -33.7606
   -33.7575 -33.7575 -33.7225 -33.7219 -33.7025 -33.6802 -33.6801 -33.6760
   -33.6595 -33.6595 -33.6504 -33.6363 -33.6287 -33.6231 -33.6231 -33.6178
    11.9516  13.9868  14.7014  14.7014  14.9598  14.9598  15.1637  15.1831
    15.1970  15.2545  15.2545  15.3100  15.7467  15.7467  15.7628  16.0919
    16.2137  16.4415  16.4415  16.4537  16.5437  16.6244  16.7086  16.7297
    16.7297  16.7925  16.9019  16.9019  17.0755  17.1685  17.1686  17.1858
    17.4607  17.6029  17.6030  17.6696  17.6784  17.7208  17.9023  17.9024
    17.9261  17.9261  18.1914  18.3049  18.3719  18.4263  18.5172  18.5172
    18.5779  18.5779  18.5992  18.8356  18.8356  19.0301  19.0385  19.0844
    19.0844  19.1064  19.1902  19.2197  19.2650  19.2650  19.2983  19.3967
    19.4109  19.4266  19.4426  19.4838  19.5069  19.5070  19.5273  19.5273
    19.5967  19.6977  20.0582  20.0582  20.0637  20.0693  20.0693  20.1156
    20.2722  20.5170  20.5171  20.5426  21.0507  21.0507  22.0371  22.2924
    22.2924  22.8981

          k = 0.1696 0.1696 0.3957 ( 11408 PWs)   bands (ev):

   -67.8727 -67.8479 -67.8118 -67.8118 -67.8031 -67.8030 -67.7904 -67.7860
   -67.7797 -67.7786 -67.7753 -67.7753 -67.7721 -67.7720 -67.7442 -67.7245
   -34.1112 -34.1112 -34.1009 -34.0908 -34.0603 -34.0603 -34.0548 -34.0548
   -34.0487 -34.0329 -34.0235 -34.0230 -33.9814 -33.9814 -33.9744 -33.9235
   -33.9064 -33.9002 -33.8559 -33.8559 -33.8523 -33.8506 -33.8386 -33.8386
   -33.8224 -33.8146 -33.8013 -33.7704 -33.7704 -33.7607 -33.7607 -33.7387
   -33.7313 -33.7313 -33.7228 -33.6990 -33.6930 -33.6801 -33.6801 -33.6622
   -33.6597 -33.6597 -33.6589 -33.6539 -33.6456 -33.6305 -33.6304 -33.6243
    12.3341  13.3830  14.8299  14.8299  14.9553  14.9553  15.3466  15.3625
    15.4038  15.4038  15.4462  15.5555  15.6906  15.6930  15.6930  15.8085
    16.0712  16.1404  16.5377  16.5885  16.6328  16.6329  16.6508  16.6520
    16.8523  16.8523  17.0515  17.0515  17.1147  17.1147  17.3488  17.4426
    17.4748  17.4749  17.5012  17.5012  17.5785  17.6176  17.6181  17.6642
    17.6642  17.6887  17.9792  17.9834  17.9834  18.1322  18.4788  18.5506
    18.6261  18.7992  18.7992  18.8819  18.8819  18.8868  18.8879  19.0061
    19.0061  19.1603  19.1603  19.2620  19.2735  19.2861  19.3156  19.3348
    19.3822  19.4043  19.4067  19.4203  19.5105  19.5340  19.6016  19.6016
    19.6437  19.6437  19.7947  19.9781  20.2268  20.2268  20.2378  20.2378
    20.2889  20.4895  20.4896  20.5145  20.7646  20.7646  22.5609  22.5609
    22.7603  22.9500

          k = 0.1696 0.1696-0.5087 ( 11380 PWs)   bands (ev):

   -67.8613 -67.8611 -67.8078 -67.8077 -67.8076 -67.8076 -67.7883 -67.7882
   -67.7792 -67.7790 -67.7735 -67.7734 -67.7733 -67.7732 -67.7335 -67.7333
   -34.0849 -34.0849 -34.0849 -34.0849 -34.0707 -34.0706 -34.0698 -34.0697
   -34.0260 -34.0259 -34.0222 -34.0222 -34.0222 -34.0222 -33.9513 -33.9511
   -33.8795 -33.8794 -33.8760 -33.8759 -33.8482 -33.8481 -33.8480 -33.8480
   -33.8096 -33.8094 -33.7794 -33.7793 -33.7650 -33.7650 -33.7648 -33.7648
   -33.7040 -33.7040 -33.7040 -33.7040 -33.6879 -33.6877 -33.6787 -33.6786
   -33.6672 -33.6670 -33.6428 -33.6428 -33.6428 -33.6428 -33.6364 -33.6364
    12.8197  12.8197  14.9191  14.9191  14.9192  14.9192  15.5404  15.5405
    15.5572  15.5573  15.5609  15.5609  15.5610  15.5610  15.7843  15.7843
    15.8304  15.8304  16.5562  16.5563  16.6166  16.6167  16.9338  16.9338
    16.9338  16.9339  17.0020  17.0021  17.0021  17.0021  17.4385  17.4385
    17.4385  17.4385  17.5986  17.5986  17.6003  17.6003  17.6003  17.6004
    17.6454  17.6455  17.7086  17.7088  17.7173  17.7174  18.6741  18.6741
    18.7190  18.7191  18.9300  18.9301  18.9374  18.9374  18.9375  18.9375
    19.0016  19.0016  19.0016  19.0016  19.3482  19.3483  19.3519  19.3520
    19.3780  19.3782  19.4127  19.4128  19.6283  19.6283  19.6530  19.6530
    19.6530  19.6530  19.6556  19.6557  20.3879  20.3879  20.3879  20.3880
    20.4259  20.4260  20.4829  20.4829  20.4829  20.4829  22.8068  22.8068
    22.8068  22.8068

          k = 0.1696 0.2826 0.2826 ( 11422 PWs)   bands (ev):

   -67.8758 -67.8299 -67.8298 -67.8129 -67.8056 -67.7967 -67.7967 -67.7865
   -67.7777 -67.7775 -67.7774 -67.7721 -67.7716 -67.7582 -67.7581 -67.7220
   -34.1244 -34.1149 -34.1149 -34.0855 -34.0855 -34.0636 -34.0385 -34.0368
   -34.0368 -34.0367 -34.0232 -34.0005 -33.9897 -33.9646 -33.9350 -33.9056
   -33.9017 -33.9016 -33.8930 -33.8929 -33.8702 -33.8460 -33.8460 -33.8449
   -33.7999 -33.7902 -33.7902 -33.7829 -33.7829 -33.7630 -33.7616 -33.7466
   -33.7372 -33.7347 -33.7260 -33.7259 -33.7043 -33.6799 -33.6689 -33.6617
   -33.6616 -33.6586 -33.6586 -33.6372 -33.6372 -33.6358 -33.6204 -33.6179
    12.2082  14.1540  14.1540  14.8460  14.8680  15.1689  15.1689  15.2868
    15.3241  15.3850  15.4316  15.4316  15.8111  15.8111  15.8571  16.1778
    16.1778  16.1822  16.4036  16.4058  16.5917  16.6913  16.6913  16.7802
    16.8149  16.8150  16.8183  16.9606  17.0342  17.0603  17.1456  17.3219
    17.3219  17.5222  17.5303  17.5303  17.5307  17.5827  17.6646  17.7431
    17.8077  17.8077  18.0826  18.0826  18.1776  18.1776  18.2555  18.4872
    18.6122  18.6122  18.6757  18.9321  19.0108  19.0398  19.0411  19.0411
    19.1609  19.1609  19.1671  19.2287  19.2487  19.2487  19.2627  19.3545
    19.3609  19.3609  19.3860  19.4206  19.4421  19.4435  19.4436  19.5122
    19.5967  19.6918  19.6918  20.0631  20.1564  20.1763  20.1763  20.2457
    20.2458  20.2776  20.5344  20.6087  20.7045  21.6478  21.6478  22.5889
    23.4417  23.4417

          k = 0.1696 0.2826 0.3957 ( 11415 PWs)   bands (ev):

   -67.8673 -67.8438 -67.8252 -67.8128 -67.8097 -67.8013 -67.7946 -67.7893
   -67.7773 -67.7771 -67.7752 -67.7724 -67.7674 -67.7603 -67.7465 -67.7283
   -34.1101 -34.0981 -34.0921 -34.0751 -34.0633 -34.0580 -34.0554 -34.0507
   -34.0419 -34.0336 -34.0309 -34.0271 -33.9943 -33.9736 -33.9433 -33.9237
   -33.9191 -33.8865 -33.8783 -33.8728 -33.8695 -33.8614 -33.8588 -33.8586
   -33.8200 -33.7982 -33.7897 -33.7755 -33.7731 -33.7657 -33.7594 -33.7502
   -33.7317 -33.7152 -33.7141 -33.7036 -33.6972 -33.6883 -33.6759 -33.6668
   -33.6579 -33.6574 -33.6514 -33.6425 -33.6412 -33.6410 -33.6226 -33.6205
    12.5797  13.5861  14.3650  14.7457  15.0047  15.1665  15.4272  15.4619
    15.5025  15.5239  15.5808  15.6694  15.7421  15.7639  15.8615  15.9321
    16.1099  16.1630  16.4109  16.5125  16.5823  16.6451  16.7024  16.7222
    16.7923  16.8802  16.8939  16.9567  17.1059  17.1217  17.1800  17.2855
    17.2960  17.4059  17.4192  17.4606  17.4717  17.4993  17.5163  17.5513
    17.6149  17.6620  17.7421  17.7904  17.7940  17.8599  18.3044  18.6936
    18.7055  18.8169  18.8368  18.9178  18.9565  18.9672  18.9979  19.0014
    19.1044  19.1446  19.1495  19.1536  19.2294  19.2515  19.2676  19.3004
    19.3484  19.3883  19.4056  19.4208  19.4267  19.4700  19.4927  19.5175
    19.5807  19.6046  19.8152  19.8945  19.8986  20.1010  20.1980  20.3911
    20.3941  20.3985  20.5389  20.5871  20.6051  21.2848  22.2881  22.9366
    23.5145  23.6130

          k = 0.1696 0.2826-0.5087 ( 11402 PWs)   bands (ev):

   -67.8565 -67.8563 -67.8195 -67.8193 -67.8059 -67.8057 -67.7921 -67.7920
   -67.7772 -67.7770 -67.7737 -67.7735 -67.7636 -67.7634 -67.7365 -67.7363
   -34.0891 -34.0891 -34.0771 -34.0770 -34.0635 -34.0634 -34.0631 -34.0629
   -34.0404 -34.0404 -34.0268 -34.0268 -33.9861 -33.9861 -33.9509 -33.9508
   -33.8952 -33.8951 -33.8756 -33.8755 -33.8683 -33.8682 -33.8493 -33.8493
   -33.8152 -33.8152 -33.7954 -33.7953 -33.7701 -33.7700 -33.7398 -33.7397
   -33.7303 -33.7303 -33.6934 -33.6934 -33.6845 -33.6843 -33.6757 -33.6756
   -33.6720 -33.6719 -33.6480 -33.6480 -33.6298 -33.6298 -33.6281 -33.6281
    13.0481  13.0482  14.5749  14.5750  15.1197  15.1197  15.5922  15.5922
    15.6569  15.6569  15.7088  15.7088  15.7390  15.7391  15.8104  15.8104
    15.9232  15.9232  16.6032  16.6032  16.6643  16.6644  16.7403  16.7404
    16.7605  16.7606  16.8945  16.8946  17.0205  17.0205  17.4031  17.4032
    17.4255  17.4257  17.4443  17.4443  17.4595  17.4595  17.4782  17.4783
    17.5237  17.5237  17.5611  17.5611  17.5708  17.5708  18.5898  18.5899
    18.8291  18.8291  18.9219  18.9219  18.9641  18.9642  19.0023  19.0023
    19.0060  19.0060  19.0533  19.0533  19.3056  19.3057  19.3325  19.3326
    19.3381  19.3382  19.4221  19.4222  19.4575  19.4576  19.5741  19.5742
    19.5944  19.5945  19.7035  19.7035  20.0922  20.0922  20.1600  20.1600
    20.4920  20.4921  20.5282  20.5282  20.9309  20.9310  22.9460  22.9460
    23.2705  23.2705

          k = 0.1696 0.3957 0.3957 ( 11395 PWs)   bands (ev):

   -67.8594 -67.8379 -67.8378 -67.8220 -67.8067 -67.7989 -67.7989 -67.7927
   -67.7762 -67.7754 -67.7753 -67.7730 -67.7605 -67.7500 -67.7499 -67.7338
   -34.1009 -34.0801 -34.0801 -34.0641 -34.0641 -34.0595 -34.0554 -34.0554
   -34.0520 -34.0471 -34.0404 -34.0122 -33.9878 -33.9607 -33.9199 -33.9153
   -33.9152 -33.9009 -33.9008 -33.8852 -33.8827 -33.8826 -33.8823 -33.8487
   -33.8135 -33.7910 -33.7886 -33.7886 -33.7814 -33.7814 -33.7706 -33.7322
   -33.7299 -33.7054 -33.7054 -33.6976 -33.6972 -33.6800 -33.6737 -33.6737
   -33.6644 -33.6566 -33.6566 -33.6558 -33.6292 -33.6292 -33.6194 -33.6184
    12.9323  13.8625  13.8625  14.4827  15.2127  15.4576  15.4576  15.5298
    15.6233  15.7011  15.7340  15.7340  15.8139  15.8139  16.0126  16.0584
    16.1365  16.1752  16.1752  16.4443  16.6275  16.6615  16.7220  16.7220
    16.7373  16.7373  16.8128  16.8432  16.9551  17.0376  17.2267  17.2267
    17.2282  17.3195  17.3794  17.3975  17.3975  17.4287  17.4563  17.4563
    17.4568  17.4715  17.4716  17.5550  17.6578  17.9896  17.9896  18.5727
    18.8738  18.8739  18.9290  18.9366  18.9840  19.0025  19.1045  19.1180
    19.1787  19.1787  19.1839  19.1839  19.2117  19.2156  19.2156  19.2948
    19.3092  19.3692  19.3693  19.3796  19.4354  19.4778  19.4778  19.4908
    19.4908  19.5685  19.6456  19.6774  19.9449  19.9450  20.0060  20.0751
    20.5130  20.5130  20.5768  20.6400  20.9920  21.8448  21.8448  23.0092
    23.3728  24.1641

          k = 0.1696 0.3957-0.5087 ( 11416 PWs)   bands (ev):

   -67.8496 -67.8494 -67.8306 -67.8305 -67.8031 -67.8030 -67.7960 -67.7958
   -67.7757 -67.7755 -67.7740 -67.7738 -67.7547 -67.7546 -67.7411 -67.7410
   -34.0850 -34.0850 -34.0680 -34.0679 -34.0595 -34.0594 -34.0582 -34.0582
   -34.0531 -34.0530 -34.0336 -34.0336 -33.9451 -33.9451 -33.9405 -33.9403
   -33.9051 -33.9051 -33.9010 -33.9009 -33.8887 -33.8886 -33.8570 -33.8570
   -33.8187 -33.8186 -33.7865 -33.7865 -33.7756 -33.7756 -33.7585 -33.7585
   -33.7174 -33.7173 -33.6839 -33.6839 -33.6828 -33.6826 -33.6761 -33.6760
   -33.6752 -33.6752 -33.6559 -33.6558 -33.6220 -33.6219 -33.6213 -33.6213
    13.3705  13.3705  14.1761  14.1761  15.3814  15.3814  15.6418  15.6418
    15.6942  15.6942  15.7855  15.7855  15.9330  15.9330  15.9624  15.9624
    16.0396  16.0396  16.4798  16.4798  16.5893  16.5893  16.6360  16.6360
    16.6614  16.6615  16.7843  16.7843  17.0724  17.0724  17.1932  17.1933
    17.2877  17.2877  17.2885  17.2886  17.2983  17.2984  17.3394  17.3394
    17.5047  17.5048  17.5131  17.5132  17.7025  17.7025  18.2548  18.2548
    18.9495  18.9495  19.0233  19.0234  19.0614  19.0615  19.0623  19.0624
    19.1722  19.1722  19.1927  19.1927  19.2336  19.2337  19.2799  19.2800
    19.3139  19.3140  19.3296  19.3296  19.4220  19.4221  19.4540  19.4540
    19.5269  19.5270  19.7606  19.7606  19.7707  19.7708  19.9654  19.9654
    20.5732  20.5732  20.6048  20.6048  21.4143  21.4143  22.4219  22.4220
    23.8058  23.8058

          k = 0.1696-0.5087-0.5087 ( 11400 PWs)   bands (ev):

   -67.8408 -67.8407 -67.8407 -67.8405 -67.7998 -67.7997 -67.7997 -67.7995
   -67.7747 -67.7746 -67.7746 -67.7743 -67.7473 -67.7472 -67.7472 -67.7469
   -34.0742 -34.0741 -34.0741 -34.0741 -34.0609 -34.0608 -34.0608 -34.0607
   -34.0428 -34.0427 -34.0427 -34.0427 -33.9232 -33.9231 -33.9231 -33.9229
   -33.9025 -33.9025 -33.9024 -33.9024 -33.9012 -33.9012 -33.9011 -33.9011
   -33.7881 -33.7880 -33.7880 -33.7880 -33.7810 -33.7810 -33.7809 -33.7809
   -33.6982 -33.6981 -33.6981 -33.6979 -33.6777 -33.6776 -33.6776 -33.6776
   -33.6658 -33.6657 -33.6657 -33.6657 -33.6190 -33.6189 -33.6189 -33.6189
    13.7594  13.7595  13.7595  13.7595  15.6358  15.6359  15.6359  15.6359
    15.6827  15.6827  15.6827  15.6827  16.1048  16.1049  16.1049  16.1049
    16.1993  16.1993  16.1993  16.1993  16.5310  16.5310  16.5310  16.5310
    16.7077  16.7077  16.7077  16.7077  17.1612  17.1612  17.1612  17.1614
    17.1617  17.1617  17.1617  17.1617  17.2777  17.2777  17.2777  17.2778
    17.4852  17.4852  17.4852  17.4853  17.9521  17.9522  17.9522  17.9522
    19.0286  19.0286  19.0286  19.0287  19.1459  19.1460  19.1460  19.1461
    19.2255  19.2256  19.2256  19.2257  19.2598  19.2598  19.2598  19.2600
    19.2628  19.2629  19.2629  19.2629  19.4764  19.4764  19.4765  19.4765
    19.4894  19.4895  19.4895  19.4896  19.8355  19.8355  19.8355  19.8356
    20.6178  20.6178  20.6179  20.6179  21.9133  21.9133  21.9133  21.9134
    24.3517  24.3517

          k = 0.2826 0.2826 0.2826 ( 11419 PWs)   bands (ev):

   -67.8701 -67.8268 -67.8268 -67.8267 -67.8037 -67.8037 -67.8036 -67.7903
   -67.7756 -67.7723 -67.7723 -67.7722 -67.7595 -67.7595 -67.7594 -67.7259
   -34.1083 -34.1083 -34.1083 -34.0604 -34.0604 -34.0604 -34.0454 -34.0454
   -34.0454 -34.0446 -34.0098 -34.0098 -33.9787 -33.9787 -33.9276 -33.9276
   -33.9276 -33.9050 -33.9049 -33.9049 -33.8783 -33.8671 -33.8671 -33.8670
   -33.7657 -33.7656 -33.7656 -33.7655 -33.7639 -33.7639 -33.7639 -33.7578
   -33.7578 -33.7279 -33.7279 -33.7279 -33.6917 -33.6760 -33.6760 -33.6760
   -33.6520 -33.6520 -33.6519 -33.6354 -33.6353 -33.6353 -33.6298 -33.6298
    12.4599  14.3344  14.3344  14.3344  15.0902  15.0902  15.0902  15.4193
    15.4193  15.5604  15.5604  15.5604  15.9533  15.9533  15.9533  16.1671
    16.1672  16.1672  16.1941  16.5831  16.5831  16.6341  16.7408  16.7409
    16.7409  16.9338  16.9338  16.9338  16.9526  16.9526  17.1840  17.1840
    17.1840  17.4248  17.4248  17.4249  17.4677  17.4677  17.4677  17.5390
    17.5390  17.8200  17.8201  17.8201  17.8942  17.8942  17.8943  18.6932
    18.7200  18.7200  18.7200  18.9107  19.1044  19.1044  19.1261  19.1261
    19.1261  19.1482  19.1482  19.1482  19.2253  19.2254  19.2254  19.3607
    19.3608  19.3608  19.3823  19.3823  19.4811  19.4811  19.4811  19.5044
    19.5044  19.8440  19.8440  19.8440  20.2145  20.2145  20.2146  20.2944
    20.2945  20.2945  20.3075  20.3075  21.2185  21.2185  21.2185  23.6182
    23.7466  23.7466

          k = 0.2826 0.2826 0.3957 ( 11401 PWs)   bands (ev):

   -67.8621 -67.8399 -67.8223 -67.8223 -67.8105 -67.8104 -67.8010 -67.7940
   -67.7742 -67.7726 -67.7679 -67.7679 -67.7615 -67.7614 -67.7485 -67.7317
   -34.0952 -34.0951 -34.0847 -34.0598 -34.0598 -34.0564 -34.0486 -34.0459
   -34.0295 -34.0295 -34.0273 -34.0189 -33.9907 -33.9600 -33.9600 -33.9525
   -33.9373 -33.9074 -33.9073 -33.8944 -33.8866 -33.8858 -33.8858 -33.8498
   -33.8035 -33.7919 -33.7681 -33.7652 -33.7512 -33.7512 -33.7382 -33.7381
   -33.7324 -33.7324 -33.7191 -33.6971 -33.6937 -33.6937 -33.6821 -33.6743
   -33.6570 -33.6474 -33.6450 -33.6450 -33.6394 -33.6360 -33.6360 -33.6279
    12.8230  13.7955  14.5643  14.5643  14.9730  14.9730  15.4054  15.5575
    15.5927  15.7019  15.7019  15.7951  15.9134  15.9400  15.9511  15.9512
    16.1822  16.2089  16.3483  16.3483  16.6027  16.6915  16.7581  16.7987
    16.8306  16.8307  16.8523  16.9766  16.9766  17.0661  17.0661  17.1001
    17.2099  17.2099  17.3032  17.3292  17.3292  17.3711  17.3717  17.4365
    17.4770  17.5140  17.5676  17.5676  17.5685  17.5685  17.9837  18.5591
    18.8063  18.8704  18.8704  18.9266  19.0161  19.1191  19.1191  19.1498
    19.1498  19.1682  19.1682  19.1925  19.2530  19.2544  19.3399  19.3675
    19.3680  19.3791  19.3803  19.3803  19.4137  19.4569  19.4778  19.4778
    19.5066  19.6098  20.0033  20.0206  20.1432  20.1432  20.2397  20.2398
    20.3254  20.3255  20.3285  20.3847  20.8412  20.8412  21.7880  22.9877
    24.0988  24.0988

          k = 0.2826 0.2826-0.5087 ( 11420 PWs)   bands (ev):

   -67.8520 -67.8518 -67.8169 -67.8168 -67.8167 -67.8166 -67.7978 -67.7976
   -67.7733 -67.7731 -67.7644 -67.7644 -67.7643 -67.7642 -67.7393 -67.7392
   -34.0780 -34.0779 -34.0779 -34.0779 -34.0547 -34.0545 -34.0527 -34.0526
   -34.0397 -34.0396 -33.9951 -33.9951 -33.9951 -33.9951 -33.9664 -33.9663
   -33.9241 -33.9240 -33.9003 -33.9003 -33.9002 -33.9002 -33.8448 -33.8448
   -33.8206 -33.8205 -33.7686 -33.7684 -33.7401 -33.7401 -33.7400 -33.7400
   -33.7146 -33.7146 -33.7146 -33.7146 -33.6854 -33.6853 -33.6763 -33.6762
   -33.6701 -33.6699 -33.6392 -33.6392 -33.6392 -33.6392 -33.6313 -33.6312
    13.2779  13.2780  14.7932  14.7932  14.7933  14.7933  15.7335  15.7335
    15.7739  15.7739  15.7897  15.7897  15.8402  15.8403  15.8403  15.8403
    16.0381  16.0382  16.6419  16.6419  16.6664  16.6664  16.6664  16.6664
    16.7085  16.7086  16.9473  16.9473  16.9473  16.9474  17.1598  17.1599
    17.2449  17.2449  17.3454  17.3454  17.3454  17.3454  17.3609  17.3609
    17.3609  17.3610  17.3767  17.3767  17.3989  17.3990  18.2392  18.2393
    18.9117  18.9117  19.0231  19.0232  19.0232  19.0232  19.1409  19.1409
    19.1410  19.1410  19.1770  19.1771  19.2946  19.2947  19.3008  19.3009
    19.3703  19.3704  19.3742  19.3742  19.4332  19.4333  19.4333  19.4333
    19.7122  19.7123  19.7729  19.7730  20.2943  20.2943  20.2943  20.2943
    20.3891  20.3891  20.4852  20.4852  20.4852  20.4852  22.3802  22.3803
    24.3984  24.3984

          k = 0.2826 0.3957 0.3957 ( 11418 PWs)   bands (ev):

   -67.8546 -67.8344 -67.8343 -67.8193 -67.8182 -67.8073 -67.8072 -67.7988
   -67.7718 -67.7688 -67.7687 -67.7632 -67.7615 -67.7518 -67.7517 -67.7367
   -34.0855 -34.0739 -34.0739 -34.0588 -34.0564 -34.0563 -34.0439 -34.0334
   -34.0334 -34.0333 -34.0232 -33.9958 -33.9874 -33.9824 -33.9613 -33.9393
   -33.9392 -33.9221 -33.9215 -33.9215 -33.9145 -33.9144 -33.9101 -33.8407
   -33.8201 -33.7643 -33.7642 -33.7516 -33.7515 -33.7507 -33.7350 -33.7303
   -33.7177 -33.7146 -33.7060 -33.7024 -33.7023 -33.6853 -33.6852 -33.6792
   -33.6563 -33.6555 -33.6555 -33.6487 -33.6367 -33.6366 -33.6339 -33.6310
    13.1712  14.0812  14.0812  14.7162  14.8247  15.2929  15.2929  15.6779
    15.7715  15.8037  15.9140  15.9140  15.9414  15.9414  16.0412  16.1699
    16.1785  16.1785  16.2597  16.2925  16.6582  16.6998  16.7688  16.7688
    16.7765  16.8015  16.8015  16.8065  16.9052  16.9548  17.0090  17.1369
    17.1369  17.1544  17.1544  17.1959  17.2101  17.2544  17.2544  17.2919
    17.2919  17.3237  17.3547  17.3866  17.3924  17.6776  17.6776  18.2096
    18.9336  18.9336  18.9692  19.0544  19.1386  19.1812  19.1826  19.1871
    19.1872  19.1913  19.2765  19.2765  19.2775  19.2986  19.3113  19.3641
    19.3642  19.3695  19.3764  19.3765  19.3909  19.3910  19.4494  19.4773
    19.6658  19.7857  19.7857  19.9048  20.0480  20.0481  20.1166  20.3299
    20.3299  20.3487  20.3762  20.4647  20.5237  21.3437  21.3437  22.4153
    24.5331  25.1581

          k = 0.2826 0.3957-0.5087 ( 11422 PWs)   bands (ev):

   -67.8454 -67.8452 -67.8274 -67.8273 -67.8132 -67.8130 -67.8034 -67.8032
   -67.7701 -67.7699 -67.7657 -67.7655 -67.7562 -67.7560 -67.7436 -67.7434
   -34.0713 -34.0713 -34.0636 -34.0635 -34.0479 -34.0478 -34.0465 -34.0464
   -34.0386 -34.0385 -34.0077 -34.0077 -33.9671 -33.9669 -33.9589 -33.9589
   -33.9420 -33.9419 -33.9290 -33.9289 -33.9248 -33.9248 -33.8809 -33.8809
   -33.7916 -33.7915 -33.7507 -33.7506 -33.7407 -33.7406 -33.7383 -33.7383
   -33.7138 -33.7137 -33.6996 -33.6996 -33.6803 -33.6802 -33.6801 -33.6799
   -33.6766 -33.6765 -33.6526 -33.6526 -33.6345 -33.6344 -33.6323 -33.6323
    13.6018  13.6019  14.4047  14.4048  15.0904  15.0904  15.6734  15.6734
    15.8030  15.8030  15.8751  15.8751  15.9819  15.9820  16.0897  16.0897
    16.1841  16.1841  16.4836  16.4837  16.5489  16.5489  16.6624  16.6624
    16.7071  16.7072  16.8605  16.8605  16.9702  16.9703  17.0144  17.0145
    17.0626  17.0626  17.1421  17.1422  17.1863  17.1863  17.2294  17.2294
    17.2901  17.2902  17.3248  17.3248  17.4126  17.4126  17.9025  17.9025
    19.0066  19.0066  19.0573  19.0573  19.0835  19.0836  19.2414  19.2415
    19.2579  19.2580  19.2872  19.2872  19.3006  19.3006  19.3224  19.3225
    19.3727  19.3728  19.4060  19.4060  19.4127  19.4128  19.4754  19.4754
    19.6506  19.6507  19.8192  19.8192  20.0659  20.0659  20.1172  20.1172
    20.3629  20.3629  20.3662  20.3662  20.9263  20.9263  21.8706  21.8707
    24.9388  24.9389

          k = 0.2826-0.5087-0.5087 ( 11408 PWs)   bands (ev):

   -67.8371 -67.8370 -67.8370 -67.8367 -67.8087 -67.8085 -67.8085 -67.8083
   -67.7676 -67.7675 -67.7675 -67.7673 -67.7493 -67.7492 -67.7492 -67.7489
   -34.0595 -34.0595 -34.0594 -34.0594 -34.0511 -34.0510 -34.0510 -34.0509
   -34.0228 -34.0228 -34.0228 -34.0227 -33.9526 -33.9525 -33.9525 -33.9524
   -33.9417 -33.9416 -33.9416 -33.9416 -33.9199 -33.9199 -33.9198 -33.9198
   -33.7641 -33.7640 -33.7640 -33.7640 -33.7430 -33.7429 -33.7429 -33.7429
   -33.6920 -33.6919 -33.6919 -33.6917 -33.6881 -33.6880 -33.6880 -33.6880
   -33.6677 -33.6676 -33.6676 -33.6676 -33.6324 -33.6323 -33.6323 -33.6323
    13.9913  13.9913  13.9913  13.9914  15.4147  15.4148  15.4148  15.4148
    15.8541  15.8541  15.8542  15.8542  16.2364  16.2364  16.2364  16.2364
    16.2987  16.2988  16.2988  16.2988  16.4723  16.4723  16.4723  16.4723
    16.7796  16.7796  16.7796  16.7796  16.9808  16.9808  16.9808  16.9809
    17.0760  17.0760  17.0760  17.0761  17.1051  17.1051  17.1052  17.1052
    17.2826  17.2826  17.2826  17.2827  17.6134  17.6135  17.6135  17.6135
    19.0705  19.0705  19.0705  19.0705  19.1630  19.1631  19.1631  19.1632
    19.2511  19.2511  19.2511  19.2513  19.3914  19.3915  19.3915  19.3916
    19.3963  19.3964  19.3964  19.3964  19.4741  19.4742  19.4742  19.4743
    19.7867  19.7868  19.7868  19.7868  19.9003  19.9003  19.9003  19.9004
    20.3800  20.3800  20.3800  20.3800  21.3899  21.3899  21.3899  21.3900
    25.4843  25.4843

          k = 0.3957 0.3957 0.3957 ( 11446 PWs)   bands (ev):

   -67.8478 -67.8293 -67.8293 -67.8291 -67.8154 -67.8154 -67.8152 -67.8048
   -67.7682 -67.7631 -67.7631 -67.7630 -67.7546 -67.7546 -67.7545 -67.7413
   -34.0632 -34.0631 -34.0631 -34.0502 -34.0502 -34.0501 -34.0325 -34.0131
   -34.0131 -34.0067 -34.0066 -34.0066 -34.0000 -34.0000 -33.9563 -33.9562
   -33.9562 -33.9481 -33.9480 -33.9480 -33.9411 -33.9411 -33.9410 -33.8744
   -33.7919 -33.7403 -33.7403 -33.7403 -33.7266 -33.7266 -33.7265 -33.7141
   -33.7141 -33.7024 -33.7024 -33.7024 -33.7003 -33.7003 -33.7003 -33.6822
   -33.6549 -33.6549 -33.6549 -33.6497 -33.6497 -33.6455 -33.6455 -33.6454
    13.5113  14.3815  14.3815  14.3815  15.0457  15.0457  15.0457  15.8235
    15.8723  15.8723  16.0534  16.0534  16.0534  16.1408  16.1408  16.1408
    16.1965  16.1965  16.1965  16.4117  16.7083  16.7083  16.7384  16.7384
    16.7933  16.7933  16.7933  16.8410  16.8410  16.8410  16.9479  16.9479
    16.9479  17.0595  17.0595  17.0595  17.1032  17.1032  17.1032  17.1336
    17.1336  17.1336  17.2477  17.2477  17.3774  17.3774  17.3774  17.8590
    19.0222  19.0223  19.0223  19.1367  19.1367  19.1827  19.1827  19.1827
    19.3051  19.3051  19.3122  19.3122  19.3122  19.3391  19.3392  19.3392
    19.3747  19.3747  19.3747  19.4844  19.5063  19.5063  19.5063  19.6278
    19.6278  20.0681  20.0681  20.0921  20.0921  20.0921  20.1394  20.1394
    20.1394  20.1711  20.1711  20.1712  20.9130  20.9130  20.9130  21.8848
    25.8255  25.8255

          k = 0.3957 0.3957-0.5087 ( 11422 PWs)   bands (ev):

   -67.8393 -67.8391 -67.8229 -67.8228 -67.8227 -67.8226 -67.8105 -67.8103
   -67.7654 -67.7652 -67.7585 -67.7584 -67.7583 -67.7582 -67.7473 -67.7471
   -34.0525 -34.0524 -34.0524 -34.0524 -34.0344 -34.0343 -34.0343 -34.0341
   -34.0194 -34.0193 -33.9870 -33.9869 -33.9774 -33.9773 -33.9773 -33.9773
   -33.9718 -33.9717 -33.9575 -33.9574 -33.9574 -33.9574 -33.9110 -33.9110
   -33.7651 -33.7650 -33.7212 -33.7211 -33.7187 -33.7187 -33.7187 -33.7187
   -33.7096 -33.7096 -33.7095 -33.7095 -33.6893 -33.6892 -33.6819 -33.6817
   -33.6736 -33.6734 -33.6520 -33.6520 -33.6520 -33.6519 -33.6457 -33.6457
    13.9274  13.9274  14.7230  14.7230  14.7230  14.7230  15.4386  15.4387
    15.9979  15.9979  16.0707  16.0707  16.1279  16.1279  16.1279  16.1279
    16.3353  16.3354  16.4785  16.4785  16.4785  16.4785  16.7162  16.7162
    16.7706  16.7707  16.7720  16.7721  16.8577  16.8577  16.9407  16.9407
    16.9407  16.9407  17.0665  17.0665  17.0666  17.0666  17.1231  17.1231
    17.1232  17.1232  17.1542  17.1543  17.1580  17.1581  17.5620  17.5621
    19.0816  19.0816  19.1173  19.1173  19.1174  19.1174  19.2338  19.2339
    19.2412  19.2413  19.3103  19.3103  19.3122  19.3123  19.3123  19.3123
    19.4800  19.4800  19.4800  19.4801  19.5285  19.5286  19.7768  19.7769
    19.8000  19.8000  19.8351  19.8352  20.1072  20.1073  20.1073  20.1073
    20.1571  20.1572  20.5167  20.5167  20.5167  20.5167  21.3883  21.3884
    26.1508  26.1508

          k = 0.3957-0.5087-0.5087 ( 11432 PWs)   bands (ev):

   -67.8318 -67.8317 -67.8317 -67.8314 -67.8171 -67.8170 -67.8170 -67.8168
   -67.7615 -67.7614 -67.7614 -67.7611 -67.7523 -67.7522 -67.7522 -67.7520
   -34.0382 -34.0381 -34.0381 -34.0381 -34.0341 -34.0340 -34.0340 -34.0339
   -33.9983 -33.9982 -33.9982 -33.9981 -33.9827 -33.9826 -33.9826 -33.9825
   -33.9781 -33.9780 -33.9780 -33.9780 -33.9444 -33.9443 -33.9443 -33.9443
   -33.7407 -33.7406 -33.7406 -33.7406 -33.7080 -33.7080 -33.7079 -33.7079
   -33.7021 -33.7020 -33.7020 -33.7020 -33.6849 -33.6849 -33.6849 -33.6847
   -33.6718 -33.6717 -33.6717 -33.6716 -33.6523 -33.6523 -33.6523 -33.6523
    14.3165  14.3166  14.3166  14.3166  15.0914  15.0915  15.0915  15.0916
    16.0892  16.0892  16.0892  16.0892  16.2873  16.2873  16.2873  16.2873
    16.4102  16.4102  16.4102  16.4103  16.4622  16.4622  16.4622  16.4622
    16.8601  16.8601  16.8601  16.8601  16.8802  16.8803  16.8803  16.8803
    16.8994  16.8994  16.8994  16.8995  17.0299  17.0299  17.0300  17.0300
    17.0869  17.0869  17.0869  17.0870  17.2759  17.2760  17.2760  17.2760
    19.1351  19.1351  19.1351  19.1352  19.1886  19.1887  19.1887  19.1888
    19.2359  19.2359  19.2359  19.2361  19.3011  19.3012  19.3012  19.3013
    19.5863  19.5864  19.5864  19.5864  19.6819  19.6820  19.6820  19.6821
    19.8999  19.9000  19.9000  19.9001  20.1013  20.1014  20.1014  20.1014
    20.1471  20.1472  20.1472  20.1472  20.9420  20.9421  20.9421  20.9421
    26.7106  26.7106

          k =-0.5087-0.5087-0.5087 ( 11536 PWs)   bands (ev):

   -67.8250 -67.8250 -67.8250 -67.8250 -67.8248 -67.8248 -67.8248 -67.8244
   -67.7566 -67.7565 -67.7565 -67.7565 -67.7563 -67.7563 -67.7563 -67.7560
   -34.0112 -34.0112 -34.0112 -34.0112 -34.0112 -34.0112 -34.0112 -34.0112
   -34.0111 -34.0111 -34.0110 -34.0110 -34.0110 -34.0109 -34.0109 -34.0109
   -33.9713 -33.9712 -33.9712 -33.9712 -33.9712 -33.9712 -33.9712 -33.9712
   -33.7204 -33.7203 -33.7203 -33.7203 -33.7203 -33.7202 -33.7202 -33.7202
   -33.6777 -33.6777 -33.6777 -33.6777 -33.6777 -33.6777 -33.6777 -33.6777
   -33.6776 -33.6776 -33.6775 -33.6775 -33.6775 -33.6774 -33.6774 -33.6774
    14.7017  14.7017  14.7017  14.7017  14.7018  14.7018  14.7018  14.7019
    16.3468  16.3468  16.3468  16.3468  16.3468  16.3468  16.3469  16.3469
    16.3469  16.3469  16.3469  16.3469  16.3469  16.3469  16.3469  16.3469
    16.9455  16.9455  16.9455  16.9455  16.9455  16.9455  16.9455  16.9455
    16.9456  16.9456  16.9456  16.9456  16.9456  16.9457  16.9457  16.9457
    16.9815  16.9816  16.9816  16.9816  16.9817  16.9817  16.9817  16.9817
    19.2144  19.2144  19.2144  19.2145  19.2145  19.2145  19.2145  19.2145
    19.2145  19.2145  19.2145  19.2146  19.2146  19.2146  19.2147  19.2147
    19.8262  19.8262  19.8262  19.8263  19.8263  19.8263  19.8263  19.8263
    19.8264  19.8264  19.8264  19.8264  19.8264  19.8265  19.8265  19.8265
    20.5333  20.5334  20.5334  20.5334  20.5334  20.5334  20.5334  20.5334
    27.8989  27.8989

 ------ SPIN DOWN ----------


          k = 0.0565 0.0565 0.0565 ( 11366 PWs)   bands (ev):

   -65.4785 -65.3766 -65.3765 -65.3765 -65.3597 -65.3596 -65.3596 -65.3585
   -65.3585 -65.3585 -65.3580 -65.3580 -65.3580 -65.3506 -65.3501 -65.2722
   -31.8298 -31.8298 -31.8298 -31.8266 -31.8266 -31.8266 -31.6538 -31.6538
   -31.6475 -31.5757 -31.5731 -31.5731 -31.5731 -31.5503 -31.5503 -31.5364
   -31.5364 -31.5364 -31.4969 -31.4969 -31.4714 -31.4537 -31.4537 -31.4537
   -31.4420 -31.4419 -31.4419 -31.4277 -31.4277 -31.4277 -31.4244 -31.4244
   -31.4244 -31.4164 -31.4164 -31.4164 -31.4054 -31.4053 -31.4053 -31.2353
   -31.2338 -31.2337 -31.2337 -31.2306 -31.2306 -31.2306 -31.2283 -31.2283
    11.4493  15.4929  15.4929  15.4929  16.0089  16.0089  16.0089  16.0463
    16.0463  16.0463  16.1225  16.1225  16.1225  16.6305  16.6305  17.8296
    17.9130  17.9130  18.0273  18.0273  18.0513  18.0790  18.0790  18.0790
    18.0930  18.0930  18.0930  18.8395  18.8395  18.8395  19.2540  19.2540
    19.2540  19.4969  19.4969  19.5468  19.7829  19.7830  19.7830  19.9323
    19.9323  19.9324  19.9794  19.9794  19.9794  20.0911  20.0911  20.0911
    20.6184  20.6184  20.6184  20.6783  20.6783  20.6783  20.9204  20.9204
    20.9205  21.1836  21.1837  21.1837  21.6767  21.6767  21.6767  21.7036
    21.7036  21.7036  21.8674  21.8674  22.1684  22.1684  22.1684  22.2185
    22.2185  22.2196  22.2196  22.3298  22.3298  22.3298  22.4410  22.5288
    22.5288  22.7995  22.7995  22.7995  22.9216  22.9216  22.9216  22.9710
    22.9710  22.9710

          k = 0.0565 0.0565 0.1696 ( 11379 PWs)   bands (ev):

   -65.4748 -65.3948 -65.3758 -65.3758 -65.3617 -65.3617 -65.3591 -65.3583
   -65.3583 -65.3575 -65.3570 -65.3570 -65.3512 -65.3506 -65.3412 -65.2749
   -31.8214 -31.8214 -31.8203 -31.8173 -31.8121 -31.8121 -31.6573 -31.6471
   -31.6368 -31.6143 -31.6054 -31.6054 -31.6030 -31.6022 -31.5701 -31.5701
   -31.5331 -31.5041 -31.4942 -31.4910 -31.4784 -31.4535 -31.4535 -31.4458
   -31.4341 -31.4319 -31.4315 -31.4315 -31.4301 -31.4217 -31.4217 -31.4169
   -31.4169 -31.4129 -31.4129 -31.3802 -31.3775 -31.3775 -31.3699 -31.2509
   -31.2437 -31.2437 -31.2422 -31.2392 -31.2343 -31.2340 -31.2340 -31.2309
    11.5873  14.7862  15.5609  15.5609  15.9940  15.9940  16.1098  16.1098
    16.1117  16.1476  16.1771  16.1771  16.6075  16.6861  16.7009  17.7278
    17.8220  17.8513  17.9417  18.0546  18.0670  18.1321  18.1321  18.1738
    18.1739  18.1746  18.2004  18.4122  18.7444  18.7444  19.0733  19.0733
    19.4681  19.4894  19.5166  19.5631  19.5631  19.6119  19.6339  19.7475
    19.7475  19.9787  20.1877  20.1877  20.2234  20.2246  20.2246  20.2547
    20.2547  20.3219  20.3219  20.3312  20.3321  20.3560  20.6636  21.1586
    21.1586  21.4163  21.4163  21.4454  21.5911  21.5911  21.6654  21.6654
    21.7040  21.7271  21.7827  21.9008  22.1717  22.1771  22.1800  22.2146
    22.2173  22.2449  22.2454  22.2710  22.2711  22.3700  22.5219  22.5783
    22.5994  22.5994  22.7984  22.7984  22.8280  22.8280  23.0135  23.0135
    23.1635  23.1635

          k = 0.0565 0.0565 0.2826 ( 11383 PWs)   bands (ev):

   -65.4680 -65.4127 -65.3743 -65.3743 -65.3642 -65.3641 -65.3581 -65.3578
   -65.3578 -65.3565 -65.3565 -65.3565 -65.3522 -65.3514 -65.3252 -65.2802
   -31.8021 -31.8021 -31.8013 -31.7993 -31.7870 -31.7870 -31.6585 -31.6581
   -31.6521 -31.6488 -31.6488 -31.6339 -31.6258 -31.6215 -31.6163 -31.6162
   -31.5267 -31.5169 -31.5138 -31.4987 -31.4514 -31.4514 -31.4480 -31.4456
   -31.4409 -31.4357 -31.4357 -31.4195 -31.4195 -31.4170 -31.4170 -31.3973
   -31.3891 -31.3764 -31.3764 -31.3461 -31.3431 -31.3431 -31.3365 -31.2782
   -31.2596 -31.2596 -31.2581 -31.2564 -31.2464 -31.2438 -31.2438 -31.2411
    11.8596  14.0665  15.6781  15.6781  15.9886  15.9886  16.1924  16.1924
    16.2598  16.2598  16.3093  16.3421  16.7851  16.8402  16.9046  17.5481
    17.5776  17.8350  17.8687  18.0056  18.0102  18.0206  18.2499  18.2499
    18.3190  18.3190  18.4035  18.4346  18.6600  18.6600  18.9212  18.9212
    19.2626  19.2627  19.4273  19.4273  19.4464  19.4777  19.5230  19.5304
    19.7080  19.7298  19.7298  19.8199  19.8199  19.9146  19.9179  20.3149
    20.4207  20.5077  20.5077  20.5143  20.5157  20.5157  20.6299  21.4531
    21.4531  21.4799  21.4799  21.5580  21.5580  21.6161  21.6975  21.7276
    21.7276  21.7571  21.7756  21.9508  21.9638  22.0879  22.1044  22.1093
    22.1780  22.2066  22.2085  22.2120  22.4071  22.4071  22.4167  22.4448
    22.6554  22.6554  22.7112  22.7112  22.7931  22.7931  23.1433  23.1433
    23.2131  23.2131

          k = 0.0565 0.0565 0.3957 ( 11393 PWs)   bands (ev):

   -65.4578 -65.4295 -65.3722 -65.3721 -65.3668 -65.3667 -65.3573 -65.3573
   -65.3568 -65.3564 -65.3564 -65.3554 -65.3537 -65.3527 -65.3108 -65.2881
   -31.7744 -31.7732 -31.7731 -31.7731 -31.7524 -31.7524 -31.7009 -31.6985
   -31.6940 -31.6940 -31.6646 -31.6646 -31.6571 -31.6419 -31.6144 -31.6011
   -31.5600 -31.5467 -31.4995 -31.4869 -31.4619 -31.4556 -31.4482 -31.4482
   -31.4400 -31.4399 -31.4181 -31.4181 -31.4171 -31.4171 -31.4008 -31.3529
   -31.3486 -31.3407 -31.3407 -31.3149 -31.3133 -31.3106 -31.3105 -31.3059
   -31.2817 -31.2815 -31.2814 -31.2813 -31.2644 -31.2598 -31.2598 -31.2576
    12.2586  13.3833  15.8089  15.8089  15.9701  15.9701  16.2755  16.2755
    16.3238  16.3238  16.5849  16.6122  16.9020  17.0190  17.0456  17.2581
    17.2606  17.6353  17.8542  17.8673  17.9543  17.9627  18.4275  18.4276
    18.5225  18.5225  18.6835  18.6835  18.6998  18.7299  18.8565  18.8565
    18.9927  18.9927  19.1049  19.1049  19.2633  19.2633  19.3661  19.3661
    19.4344  19.4677  19.4680  19.4684  19.4858  19.4883  19.8388  20.1987
    20.7039  20.7807  20.7807  20.8423  20.8423  20.8491  20.9747  21.2672
[...]
   -31.2728 -31.2727 -31.2727 -31.2550 -31.2550 -31.2549 -31.2485 -31.2485
    12.6422  14.6591  14.6591  14.6591  15.8574  15.8574  15.8574  16.8588
    16.8588  16.8588  17.1557  17.1557  17.2228  17.2228  17.2228  17.3442
    17.4890  17.9547  17.9547  17.9669  17.9669  17.9670  18.2194  18.2194
    18.2195  18.2507  18.2507  18.4246  18.4246  18.4246  18.8453  18.8453
    18.8453  18.9289  18.9289  18.9289  18.9468  18.9468  18.9468  18.9802
    18.9802  18.9802  19.1563  19.1563  19.4073  19.4073  19.4073  20.4051
    20.5299  20.9785  20.9785  20.9786  21.0407  21.0407  21.0407  21.3468
    21.3468  21.3468  21.4543  21.4543  21.4544  21.6784  21.6784  21.6784
    21.7475  21.7475  21.9915  21.9915  22.0663  22.0663  22.0918  22.0918
    22.0919  22.1600  22.1601  22.1601  22.1721  22.1721  22.2981  22.2981
    22.2981  22.3832  22.3832  22.3832  22.8835  22.8835  22.8835  25.0108
    25.1474  25.1474

          k = 0.2826 0.2826 0.3957 ( 11401 PWs)   bands (ev):

   -65.4403 -65.4164 -65.3974 -65.3974 -65.3846 -65.3846 -65.3743 -65.3669
   -65.3456 -65.3439 -65.3388 -65.3388 -65.3319 -65.3319 -65.3180 -65.2998
   -31.7581 -31.7581 -31.7468 -31.7191 -31.7191 -31.7162 -31.7075 -31.7034
   -31.6869 -31.6869 -31.6823 -31.6746 -31.6421 -31.6108 -31.6108 -31.6017
   -31.5838 -31.5512 -31.5512 -31.5374 -31.5304 -31.5276 -31.5276 -31.4880
   -31.4392 -31.4250 -31.3992 -31.3967 -31.3805 -31.3805 -31.3665 -31.3665
   -31.3602 -31.3602 -31.3464 -31.3217 -31.3182 -31.3181 -31.3056 -31.2970
   -31.2786 -31.2677 -31.2652 -31.2652 -31.2590 -31.2556 -31.2556 -31.2465
    13.0150  14.0475  14.9326  14.9326  15.5699  15.5699  16.1760  16.9789
    17.0490  17.0490  17.0905  17.2865  17.2865  17.2893  17.3097  17.3857
    17.4744  17.7278  18.0035  18.0279  18.0279  18.1031  18.1375  18.1479
    18.2681  18.3270  18.3270  18.4190  18.4968  18.4968  18.6569  18.6590
    18.6590  18.7310  18.7310  18.7866  18.8128  18.8129  18.8272  18.8272
    18.9103  18.9368  19.0329  19.0930  19.1327  19.1327  19.5505  20.1359
    20.6489  21.0802  21.0803  21.1847  21.2223  21.2368  21.2387  21.2387
    21.2424  21.2424  21.5178  21.5974  21.5974  21.6073  21.7595  21.7756
    21.7757  21.8515  21.8542  21.8597  21.9664  22.0192  22.0773  22.0773
    22.0805  22.0923  22.1315  22.2050  22.2183  22.2183  22.2463  22.2696
    22.2696  22.2719  22.3656  22.3656  22.5588  22.5588  23.3845  24.4590
    25.4580  25.4580

          k = 0.2826 0.2826-0.5087 ( 11420 PWs)   bands (ev):

   -65.4294 -65.4293 -65.3914 -65.3914 -65.3913 -65.3913 -65.3709 -65.3708
   -65.3446 -65.3445 -65.3351 -65.3350 -65.3349 -65.3349 -65.3080 -65.3079
   -31.7391 -31.7391 -31.7391 -31.7390 -31.7139 -31.7138 -31.7121 -31.7120
   -31.6963 -31.6963 -31.6492 -31.6492 -31.6492 -31.6491 -31.6155 -31.6154
   -31.5702 -31.5702 -31.5435 -31.5435 -31.5434 -31.5434 -31.4845 -31.4844
   -31.4562 -31.4562 -31.4000 -31.4000 -31.3685 -31.3685 -31.3684 -31.3684
   -31.3409 -31.3409 -31.3409 -31.3408 -31.3096 -31.3095 -31.2992 -31.2991
   -31.2924 -31.2922 -31.2590 -31.2590 -31.2590 -31.2590 -31.2502 -31.2502
    13.4902  13.4903  15.2495  15.2495  15.2495  15.2495  16.5631  16.5633
    17.2114  17.2114  17.2114  17.2114  17.3266  17.3267  17.3894  17.3895
    17.5038  17.5039  18.0716  18.0718  18.1470  18.1471  18.2446  18.2446
    18.2447  18.2447  18.3537  18.3538  18.4770  18.4770  18.4770  18.4771
    18.6036  18.6037  18.7721  18.7722  18.7722  18.7722  18.8861  18.8861
    18.8862  18.8862  18.9469  18.9469  19.0187  19.0188  19.7962  19.7962
    20.9111  20.9111  21.1569  21.1569  21.1569  21.1569  21.4324  21.4325
    21.4369  21.4369  21.4370  21.4370  21.5225  21.5227  21.6925  21.6926
    21.8592  21.8592  21.9894  21.9895  22.0277  22.0277  22.0277  22.0278
    22.0860  22.0860  22.0887  22.0889  22.2913  22.2914  22.3013  22.3013
    22.3013  22.3013  22.3109  22.3109  22.3109  22.3109  23.9167  23.9168
    25.6976  25.6976

          k = 0.2826 0.3957 0.3957 ( 11418 PWs)   bands (ev):

   -65.4323 -65.4104 -65.4103 -65.3941 -65.3930 -65.3812 -65.3811 -65.3720
   -65.3430 -65.3398 -65.3397 -65.3338 -65.3320 -65.3215 -65.3215 -65.3053
   -31.7473 -31.7348 -31.7348 -31.7180 -31.7150 -31.7150 -31.7024 -31.6910
   -31.6910 -31.6891 -31.6792 -31.6499 -31.6387 -31.6352 -31.6112 -31.5860
   -31.5860 -31.5685 -31.5685 -31.5676 -31.5594 -31.5594 -31.5542 -31.4799
   -31.4556 -31.3949 -31.3949 -31.3813 -31.3812 -31.3808 -31.3632 -31.3578
   -31.3442 -31.3409 -31.3321 -31.3275 -31.3275 -31.3088 -31.3088 -31.3023
   -31.2774 -31.2769 -31.2769 -31.2693 -31.2562 -31.2562 -31.2533 -31.2499
    13.3750  14.3601  14.3601  15.1569  15.2192  15.8860  15.8860  16.6562
    17.2503  17.2784  17.2784  17.4028  17.4468  17.4632  17.4632  17.4693
    17.5604  17.8423  17.8423  17.9777  18.0878  18.1242  18.1294  18.2469
    18.2469  18.2956  18.2956  18.3834  18.3891  18.4142  18.5333  18.5493
    18.5493  18.6159  18.6159  18.6369  18.7189  18.7190  18.7278  18.7712
    18.8396  18.8396  18.8993  18.9075  18.9929  19.2184  19.2184  19.7451
    20.9218  21.2128  21.2499  21.2567  21.2568  21.3905  21.3934  21.3934
    21.4436  21.4436  21.5100  21.5100  21.6181  21.6387  21.6895  21.6895
    21.7432  21.7846  21.8404  21.9076  21.9859  22.0180  22.0207  22.0568
    22.0745  22.0745  22.0784  22.0784  22.1493  22.1776  22.1776  22.1962
    22.2419  22.2678  22.2678  22.3572  22.3694  23.0028  23.0028  23.9619
    25.8561  26.3565

          k = 0.2826 0.3957-0.5087 ( 11422 PWs)   bands (ev):

   -65.4223 -65.4221 -65.4029 -65.4028 -65.3875 -65.3873 -65.3769 -65.3768
   -65.3412 -65.3411 -65.3364 -65.3363 -65.3262 -65.3261 -65.3126 -65.3125
   -31.7316 -31.7315 -31.7234 -31.7233 -31.7063 -31.7062 -31.7039 -31.7039
   -31.6966 -31.6965 -31.6629 -31.6628 -31.6164 -31.6163 -31.6095 -31.6095
   -31.5898 -31.5898 -31.5749 -31.5748 -31.5707 -31.5706 -31.5240 -31.5240
   -31.4246 -31.4245 -31.3805 -31.3805 -31.3694 -31.3694 -31.3666 -31.3666
   -31.3398 -31.3397 -31.3244 -31.3244 -31.3037 -31.3036 -31.3034 -31.3034
   -31.2995 -31.2993 -31.2736 -31.2736 -31.2539 -31.2538 -31.2515 -31.2514
    13.8309  13.8310  14.7408  14.7409  15.5520  15.5521  16.2646  16.2647
    17.3997  17.3997  17.4348  17.4348  17.4825  17.4826  17.4951  17.4952
    17.6552  17.6552  18.0947  18.0948  18.1027  18.1028  18.1386  18.1386
    18.1630  18.1631  18.3004  18.3004  18.3822  18.3823  18.4915  18.4915
    18.5446  18.5448  18.5456  18.5457  18.7039  18.7039  18.7799  18.7800
    18.7945  18.7945  18.9099  18.9100  18.9377  18.9378  19.4230  19.4230
    21.2118  21.2118  21.2281  21.2281  21.3636  21.3636  21.4933  21.4934
    21.5406  21.5406  21.5421  21.5422  21.5522  21.5523  21.6338  21.6339
    21.7994  21.7995  21.8426  21.8426  21.9372  21.9373  22.0324  22.0324
    22.0467  22.0467  22.0653  22.0654  22.0785  22.0786  22.1458  22.1458
    22.2759  22.2759  22.3284  22.3284  22.6434  22.6434  23.4772  23.4772
    26.2066  26.2066

          k = 0.2826-0.5087-0.5087 ( 11408 PWs)   bands (ev):

   -65.4133 -65.4132 -65.4132 -65.4131 -65.3826 -65.3825 -65.3825 -65.3824
   -65.3385 -65.3383 -65.3383 -65.3382 -65.3188 -65.3187 -65.3187 -65.3186
   -31.7183 -31.7183 -31.7183 -31.7182 -31.7097 -31.7096 -31.7096 -31.7095
   -31.6793 -31.6792 -31.6792 -31.6792 -31.6007 -31.6005 -31.6005 -31.6005
   -31.5893 -31.5893 -31.5893 -31.5893 -31.5668 -31.5667 -31.5667 -31.5667
   -31.3946 -31.3946 -31.3946 -31.3945 -31.3721 -31.3721 -31.3721 -31.3721
   -31.3162 -31.3160 -31.3160 -31.3159 -31.3118 -31.3117 -31.3117 -31.3117
   -31.2901 -31.2900 -31.2900 -31.2900 -31.2515 -31.2515 -31.2515 -31.2515
    14.2566  14.2567  14.2567  14.2568  15.9073  15.9074  15.9074  15.9074
    17.4845  17.4846  17.4846  17.4846  17.5826  17.5826  17.5826  17.5827
    17.8822  17.8823  17.8823  17.8824  18.0323  18.0324  18.0324  18.0325
    18.2794  18.2794  18.2794  18.2794  18.3660  18.3661  18.3661  18.3662
    18.5568  18.5568  18.5568  18.5568  18.6507  18.6507  18.6507  18.6508
    18.8311  18.8312  18.8312  18.8313  19.1212  19.1212  19.1212  19.1212
    21.3567  21.3568  21.3568  21.3568  21.5280  21.5280  21.5280  21.5281
    21.5295  21.5296  21.5296  21.5296  21.5960  21.5961  21.5961  21.5962
    21.6826  21.6827  21.6827  21.6828  21.9326  21.9327  21.9327  21.9328
    22.0573  22.0573  22.0573  22.0573  22.0727  22.0728  22.0728  22.0729
    22.3139  22.3139  22.3139  22.3139  23.0521  23.0522  23.0522  23.0522
    26.7045  26.7045

          k = 0.3957 0.3957 0.3957 ( 11446 PWs)   bands (ev):

   -65.4250 -65.4049 -65.4049 -65.4049 -65.3899 -65.3899 -65.3899 -65.3785
   -65.3392 -65.3337 -65.3337 -65.3337 -65.3245 -65.3245 -65.3245 -65.3102
   -31.7228 -31.7228 -31.7228 -31.7082 -31.7082 -31.7082 -31.6899 -31.6670
   -31.6670 -31.6617 -31.6617 -31.6617 -31.6536 -31.6536 -31.6049 -31.6049
   -31.6049 -31.5976 -31.5976 -31.5976 -31.5885 -31.5885 -31.5885 -31.5168
   -31.4248 -31.3687 -31.3687 -31.3687 -31.3541 -31.3540 -31.3540 -31.3408
   -31.3408 -31.3277 -31.3277 -31.3277 -31.3251 -31.3251 -31.3251 -31.3055
   -31.2762 -31.2762 -31.2762 -31.2703 -31.2703 -31.2658 -31.2657 -31.2657
    13.7264  14.6768  14.6768  14.6768  15.4792  15.4792  15.4792  16.2827
    17.4898  17.4898  17.4898  17.5732  17.5732  17.6703  17.6704  17.6704
    17.7430  17.8379  17.8379  17.8379  18.1581  18.1581  18.1997  18.1997
    18.3327  18.3327  18.3327  18.3345  18.3345  18.3345  18.4375  18.4375
    18.4375  18.5194  18.5194  18.5194  18.6325  18.6325  18.6325  18.6343
    18.6343  18.6343  18.8259  18.8259  18.8872  18.8872  18.8872  19.3458
    21.2193  21.4261  21.4261  21.4262  21.4536  21.4536  21.4536  21.5223
    21.5223  21.5224  21.7132  21.7132  21.7132  21.7560  21.7560  21.8413
    21.8413  21.8414  21.8488  21.8488  21.9482  21.9482  21.9507  21.9507
    22.0035  22.0035  22.0035  22.0539  22.0539  22.0539  22.1393  22.1393
    22.1393  22.1467  22.1467  22.1467  22.6080  22.6080  22.6080  23.4950
    27.0016  27.0016

          k = 0.3957 0.3957-0.5087 ( 11422 PWs)   bands (ev):

   -65.4157 -65.4156 -65.3979 -65.3979 -65.3978 -65.3978 -65.3846 -65.3845
   -65.3361 -65.3360 -65.3286 -65.3286 -65.3285 -65.3285 -65.3166 -65.3165
   -31.7109 -31.7109 -31.7108 -31.7108 -31.6911 -31.6910 -31.6906 -31.6906
   -31.6755 -31.6755 -31.6385 -31.6384 -31.6296 -31.6296 -31.6296 -31.6295
   -31.6224 -31.6224 -31.6064 -31.6064 -31.6063 -31.6063 -31.5569 -31.5569
   -31.3956 -31.3956 -31.3484 -31.3484 -31.3452 -31.3451 -31.3451 -31.3451
   -31.3356 -31.3356 -31.3355 -31.3355 -31.3131 -31.3131 -31.3057 -31.3056
   -31.2963 -31.2962 -31.2730 -31.2730 -31.2729 -31.2729 -31.2660 -31.2660
    14.1685  14.1686  15.0617  15.0617  15.0618  15.0618  15.8689  15.8690
    17.6486  17.6486  17.6486  17.6486  17.6994  17.6995  17.7006  17.7007
    17.7295  17.7296  18.0524  18.0525  18.0526  18.0526  18.1929  18.1930
    18.2432  18.2434  18.2712  18.2713  18.3024  18.3025  18.4601  18.4602
    18.4602  18.4602  18.5572  18.5572  18.5573  18.5573  18.6159  18.6160
    18.6160  18.6160  18.7004  18.7005  18.7317  18.7318  19.0322  19.0322
    21.4727  21.4727  21.4727  21.4727  21.5354  21.5354  21.6474  21.6474
    21.6475  21.6475  21.6478  21.6479  21.6671  21.6672  21.6703  21.6704
    21.8278  21.8279  21.8912  21.8913  21.9689  21.9689  21.9805  21.9806
    21.9835  21.9836  21.9836  21.9837  22.0801  22.0802  22.1126  22.1126
    22.1126  22.1126  22.2430  22.2431  22.2431  22.2431  23.0460  23.0461
    27.2964  27.2964

          k = 0.3957-0.5087-0.5087 ( 11432 PWs)   bands (ev):

   -65.4076 -65.4074 -65.4074 -65.4073 -65.3917 -65.3916 -65.3916 -65.3915
   -65.3319 -65.3318 -65.3318 -65.3317 -65.3220 -65.3219 -65.3219 -65.3218
   -31.6949 -31.6949 -31.6949 -31.6949 -31.6908 -31.6907 -31.6907 -31.6906
   -31.6524 -31.6523 -31.6523 -31.6522 -31.6340 -31.6339 -31.6339 -31.6338
   -31.6292 -31.6292 -31.6292 -31.6291 -31.5934 -31.5934 -31.5934 -31.5933
   -31.3690 -31.3690 -31.3690 -31.3689 -31.3340 -31.3340 -31.3340 -31.3339
   -31.3271 -31.3270 -31.3270 -31.3270 -31.3087 -31.3086 -31.3086 -31.3085
   -31.2946 -31.2945 -31.2945 -31.2944 -31.2733 -31.2733 -31.2733 -31.2732
    14.5882  14.5883  14.5883  14.5884  15.4508  15.4509  15.4509  15.4509
    17.7205  17.7206  17.7206  17.7207  17.8856  17.8857  17.8857  17.8858
    17.9194  17.9194  17.9194  17.9195  17.9978  17.9979  17.9979  17.9980
    18.3619  18.3619  18.3619  18.3619  18.3690  18.3690  18.3690  18.3690
    18.3732  18.3733  18.3733  18.3734  18.5640  18.5640  18.5640  18.5640
    18.6281  18.6282  18.6282  18.6283  18.7232  18.7232  18.7233  18.7233
    21.6190  21.6190  21.6190  21.6191  21.6437  21.6437  21.6437  21.6437
    21.7047  21.7048  21.7048  21.7049  21.7627  21.7627  21.7627  21.7628
    21.8788  21.8788  21.8788  21.8789  21.8906  21.8907  21.8907  21.8908
    21.9635  21.9636  21.9636  21.9637  21.9657  21.9657  21.9657  21.9657
    22.0557  22.0557  22.0557  22.0557  22.6367  22.6368  22.6368  22.6368
    27.8313  27.8313

          k =-0.5087-0.5087-0.5087 ( 11536 PWs)   bands (ev):

   -65.4003 -65.4001 -65.4001 -65.4001 -65.4000 -65.4000 -65.4000 -65.3999
   -65.3268 -65.3266 -65.3266 -65.3266 -65.3265 -65.3265 -65.3265 -65.3264
   -31.6655 -31.6655 -31.6655 -31.6654 -31.6654 -31.6654 -31.6654 -31.6654
   -31.6653 -31.6653 -31.6653 -31.6653 -31.6653 -31.6652 -31.6652 -31.6652
   -31.6228 -31.6228 -31.6228 -31.6228 -31.6227 -31.6227 -31.6227 -31.6227
   -31.3469 -31.3468 -31.3468 -31.3468 -31.3467 -31.3467 -31.3467 -31.3467
   -31.3010 -31.3010 -31.3010 -31.3010 -31.3010 -31.3009 -31.3009 -31.3009
   -31.3008 -31.3008 -31.3008 -31.3008 -31.3008 -31.3008 -31.3008 -31.3008
    14.9970  14.9971  14.9971  14.9971  14.9972  14.9972  14.9972  14.9973
    17.9593  17.9593  17.9594  17.9594  17.9594  17.9594  17.9594  17.9594
    17.9595  17.9595  17.9595  17.9595  17.9595  17.9595  17.9596  17.9596
    18.3740  18.3740  18.3740  18.3740  18.3740  18.3740  18.3740  18.3740
    18.4665  18.4665  18.4665  18.4666  18.4666  18.4666  18.4666  18.4666
    18.4667  18.4667  18.4667  18.4667  18.4667  18.4668  18.4668  18.4668
    21.8223  21.8223  21.8223  21.8224  21.8224  21.8224  21.8224  21.8224
    21.8225  21.8225  21.8225  21.8225  21.8225  21.8225  21.8225  21.8225
    21.8334  21.8334  21.8335  21.8335  21.8335  21.8335  21.8335  21.8335
    21.8335  21.8335  21.8335  21.8336  21.8336  21.8336  21.8336  21.8336
    22.2505  22.2505  22.2505  22.2505  22.2506  22.2506  22.2506  22.2506
    28.9509  28.9510

     the Fermi energy is    20.2549 ev

!    total energy              =   -5268.14356253 Ry
     Harris-Foulkes estimate   =   -5268.14356148 Ry
     estimated scf accuracy    <       0.00000040 Ry

     total all-electron energy =    -40728.888091 Ry

     The total energy is the sum of the following terms:

     one-electron contribution =   -1630.09807301 Ry
     hartree contribution      =     994.71675817 Ry
     xc contribution           =    -444.86562585 Ry
     ewald contribution        =   -2863.31538941 Ry
     one-center paw contrib.   =   -1324.67920772 Ry
     smearing contrib. (-TS)   =       0.09797529 Ry

     total magnetization       =    32.05 Bohr mag/cell
     absolute magnetization    =    33.56 Bohr mag/cell

     convergence has been achieved in  18 iterations

     negative rho (up, down):  0.000E+00 2.178E-03

     Forces acting on atoms (cartesian axes, Ry/au):

     atom    1 type  1   force =     0.00000000    0.00000000    0.00000000
     atom    2 type  2   force =     0.00008226    0.00008226    0.00008226
     atom    3 type  1   force =     0.00000000    0.00000000    0.00000000
     atom    4 type  2   force =     0.00008226    0.00008226   -0.00008226
     atom    5 type  1   force =     0.00000000    0.00000000    0.00000000
     atom    6 type  2   force =     0.00008226   -0.00008226    0.00008226
     atom    7 type  1   force =     0.00000000    0.00000000    0.00000000
     atom    8 type  2   force =     0.00008226   -0.00008226   -0.00008226
     atom    9 type  1   force =     0.00000000    0.00000000    0.00000000
     atom   10 type  2   force =    -0.00008226    0.00008226    0.00008226
     atom   11 type  1   force =     0.00000000    0.00000000    0.00000000
     atom   12 type  2   force =    -0.00008226    0.00008226   -0.00008226
     atom   13 type  1   force =     0.00000000    0.00000000   -0.00000000
     atom   14 type  2   force =    -0.00008226   -0.00008226    0.00008226
     atom   15 type  1   force =     0.00000000    0.00000000    0.00000000
     atom   16 type  2   force =    -0.00008226   -0.00008226   -0.00008226

     Total force =     0.000403     Total SCF correction =     0.000881
     SCF correction compared to forces is large: reduce conv_thr to get better values


     Computing stress (Cartesian axis) and pressure


     negative rho (up, down):  0.000E+00 2.178E-03
          total   stress  (Ry/bohr**3)                   (kbar)     P=  136.95
   0.00093095   0.00000000   0.00000000        136.95      0.00      0.00
   0.00000000   0.00093095   0.00000000          0.00    136.95      0.00
   0.00000000   0.00000000   0.00093095          0.00      0.00    136.95


     Writing output data file fNqbLXHECWFMcRqC.save/
 
     init_run     :      7.12s CPU      7.43s WALL (       1 calls)
     electrons    :    452.45s CPU    461.99s WALL (       1 calls)
     forces       :      2.35s CPU      2.48s WALL (       1 calls)
     stress       :      9.55s CPU      9.60s WALL (       1 calls)

     Called by init_run:
     wfcinit      :      6.55s CPU      6.78s WALL (       1 calls)
     potinit      :      0.31s CPU      0.33s WALL (       1 calls)
     hinit0       :      0.11s CPU      0.12s WALL (       1 calls)

     Called by electrons:
     c_bands      :    402.66s CPU    410.07s WALL (      19 calls)
     sum_band     :     43.74s CPU     45.40s WALL (      19 calls)
     v_of_rho     :      0.47s CPU      0.50s WALL (      19 calls)
     newd         :      0.91s CPU      1.13s WALL (      19 calls)
     PAW_pot      :      4.79s CPU      4.99s WALL (      19 calls)
     mix_rho      :      0.12s CPU      0.13s WALL (      19 calls)

     Called by c_bands:
     init_us_2    :      2.85s CPU      2.89s WALL (    2870 calls)
     cegterg      :    387.87s CPU    395.14s WALL (    1330 calls)

     Called by sum_band:
     sum_band:bec :      0.49s CPU      0.50s WALL (    1330 calls)
     addusdens    :      1.83s CPU      2.06s WALL (      19 calls)

     Called by *egterg:
     h_psi        :    171.21s CPU    176.22s WALL (    4531 calls)
     s_psi        :     12.11s CPU     12.16s WALL (    4531 calls)
     g_psi        :      0.59s CPU      0.59s WALL (    3131 calls)
     cdiaghg      :    163.60s CPU    164.02s WALL (    4391 calls)

     Called by h_psi:
     h_psi:pot    :    169.99s CPU    174.99s WALL (    4531 calls)
     h_psi:calbec :     14.35s CPU     15.43s WALL (    4531 calls)
     vloc_psi     :    143.25s CPU    147.11s WALL (    4531 calls)
     add_vuspsi   :     12.36s CPU     12.43s WALL (    4531 calls)

     General routines
     calbec       :     22.37s CPU     24.10s WALL (    6211 calls)
     fft          :      0.37s CPU      0.41s WALL (     517 calls)
     ffts         :      0.03s CPU      0.04s WALL (      76 calls)
     fftw         :    163.58s CPU    167.95s WALL ( 1136584 calls)
     interpolate  :      0.05s CPU      0.05s WALL (      38 calls)
 
     Parallel routines
     fft_scatt_xy :     14.15s CPU     14.53s WALL ( 1137177 calls)
     fft_scatt_yz :     92.97s CPU     95.51s WALL ( 1137177 calls)
 
     PWSCF        :  7m54.88s CPU     8m12.17s WALL

 
   This run was terminated on:  22:15: 2  13Jun2020            

=------------------------------------------------------------------------------=
   JOB DONE.
=------------------------------------------------------------------------------=
