--------------------------------------------------------------------------
WARNING: No preset parameters were found for the device that Open MPI
detected:

  Local host:            bear-pg0206u37a
  Device name:           mlx5_0
  Device vendor ID:      0x02c9
  Device vendor part ID: 4123

Default device parameters will be used, which may result in lower
performance.  You can edit any of the files specified by the
btl_openib_device_param_files MCA parameter to set values for your
device.

NOTE: You can turn off this warning by setting the MCA parameter
      btl_openib_warn_no_device_params_found to 0.
--------------------------------------------------------------------------
--------------------------------------------------------------------------
WARNING: There was an error initializing an OpenFabrics device.

  Local host:   bear-pg0206u37a
  Local device: mlx5_0
--------------------------------------------------------------------------

     Program PWSCF v.6.3 starts on 14Jun2020 at  1:39: 9 

     This program is part of the open-source Quantum ESPRESSO suite
     for quantum simulation of materials; please cite
         "P. Giannozzi et al., J. Phys.:Condens. Matter 21 395502 (2009);
         "P. Giannozzi et al., J. Phys.:Condens. Matter 29 465901 (2017);
          URL http://www.quantum-espresso.org", 
     in publications or presentations arising from this work. More details at
     http://www.quantum-espresso.org/quote

     Parallel version (MPI & OpenMP), running on      20 processor cores
     Number of MPI processes:                20
     Threads/MPI process:                     1

     MPI processes distributed on     1 nodes
     R & G space division:  proc/nbgrp/npool/nimage =      20
     Reading input from wd/eos/eos_015.in
Warning: card &IONS ignored
Warning: card ION_DYNAMICS = 'BFGS', ignored
Warning: card / ignored
Warning: card &CELL ignored
Warning: card CELL_DYNAMICS = 'BFGS', ignored
Warning: card CELL_FACTOR = 2.0, ignored
Warning: card PRESS = 0.0, ignored
Warning: card / ignored

     Current dimensions of program PWSCF are:
     Max number of different atomic species (ntypx) = 10
     Max number of k-points (npk) =  40000
     Max angular momentum in pseudopotentials (lmaxx) =  3
               file Fe.pbe-spn-kjpaw_psl.1.0.0.UPF: wavefunction(s)  3P 3D renormalized
               file Fe.pbe-spn-kjpaw_psl.1.0.0.UPF: wavefunction(s)  3P 3D renormalized

     Subspace diagonalization in iterative solution of the eigenvalue problem:
     a serial algorithm will be used

     Found symmetry operation: I + (  0.0000  0.0000 -0.5000)
     This is a supercell, fractional translations are disabled
 
     Parallelization info
     --------------------
     sticks:   dense  smooth     PW     G-vecs:    dense   smooth      PW
     Min         199     130     37                 9495     5080     759
     Max         200     131     38                 9500     5085     762
     Sum        3993    2617    749               189935   101673   15203
 


     bravais-lattice index     =            0
     lattice parameter (alat)  =      10.5935  a.u.
     unit-cell volume          =    1261.5990 (a.u.)^3
     number of atoms/cell      =           16
     number of atomic types    =            2
     number of electrons       =       256.00
     number of Kohn-Sham states=          154
     kinetic-energy cutoff     =      71.0000  Ry
     charge density cutoff     =     430.0000  Ry
     convergence threshold     =      1.0E-06
     mixing beta               =       0.1000
     number of iterations used =           10  plain     mixing
     Exchange-correlation      = SLA PW PBX PBC ( 1  4  3  4 0 0)

     celldm(1)=  10.593520  celldm(2)=   0.000000  celldm(3)=   0.000000
     celldm(4)=   0.000000  celldm(5)=   0.000000  celldm(6)=   0.000000

     crystal axes: (cart. coord. in units of alat)
               a(1) = (   1.020000   0.000000   0.000000 )  
               a(2) = (   0.000000   1.020000   0.000000 )  
               a(3) = (   0.000000   0.000000   1.020000 )  

     reciprocal axes: (cart. coord. in units 2 pi/alat)
               b(1) = (  0.980392  0.000000  0.000000 )  
               b(2) = (  0.000000  0.980392  0.000000 )  
               b(3) = (  0.000000  0.000000  0.980392 )  


     PseudoPot. # 1 for Fe read from file:
     /rds/homes/b/bxp912/pp/Fe.pbe-spn-kjpaw_psl.1.0.0.UPF
     MD5 check sum: 42f43b795421b414b0dc916aa790dbcb
     Pseudo is Projector augmented-wave + core cor, Zval = 16.0
     Generated using "atomic" code by A. Dal Corso v.6.3
     Shape of augmentation charge: PSQ
     Using radial grid of 1191 points,  6 beta functions with: 
                l(1) =   0
                l(2) =   0
                l(3) =   1
                l(4) =   1
                l(5) =   2
                l(6) =   2
     Q(r) pseudized with 0 coefficients 


     PseudoPot. # 2 for Fe read from file:
     /rds/homes/b/bxp912/pp/Fe.pbe-spn-kjpaw_psl.1.0.0.UPF
     MD5 check sum: 42f43b795421b414b0dc916aa790dbcb
     Pseudo is Projector augmented-wave + core cor, Zval = 16.0
     Generated using "atomic" code by A. Dal Corso v.6.3
     Shape of augmentation charge: PSQ
     Using radial grid of 1191 points,  6 beta functions with: 
                l(1) =   0
                l(2) =   0
                l(3) =   1
                l(4) =   1
                l(5) =   2
                l(6) =   2
     Q(r) pseudized with 0 coefficients 


     atomic species   valence    mass     pseudopotential
        Fe1           16.00    55.84500     Fe( 1.00)
        Fe2           16.00    55.84500     Fe( 1.00)

     Starting magnetic structure 
     atomic species   magnetization
        Fe1          0.100
        Fe2          0.100

     48 Sym. Ops., with inversion, found



   Cartesian axes

     site n.     atom                  positions (alat units)
         1           Fe1 tau(   1) = (   0.0000000   0.0000000   0.0000000  )
         2           Fe2 tau(   2) = (   0.2550004   0.2550004   0.2550004  )
         3           Fe1 tau(   3) = (   0.0000000   0.0000000   0.5100000  )
         4           Fe2 tau(   4) = (   0.2550004   0.2550004   0.7649996  )
         5           Fe1 tau(   5) = (   0.0000000   0.5100000   0.0000000  )
         6           Fe2 tau(   6) = (   0.2550004   0.7649996   0.2550004  )
         7           Fe1 tau(   7) = (   0.0000000   0.5100000   0.5100000  )
         8           Fe2 tau(   8) = (   0.2550004   0.7649996   0.7649996  )
         9           Fe1 tau(   9) = (   0.5100000   0.0000000   0.0000000  )
        10           Fe2 tau(  10) = (   0.7649996   0.2550004   0.2550004  )
        11           Fe1 tau(  11) = (   0.5100000   0.0000000   0.5100000  )
        12           Fe2 tau(  12) = (   0.7649996   0.2550004   0.7649996  )
        13           Fe1 tau(  13) = (   0.5100000   0.5100000   0.0000000  )
        14           Fe2 tau(  14) = (   0.7649996   0.7649996   0.2550004  )
        15           Fe1 tau(  15) = (   0.5100000   0.5100000   0.5100000  )
        16           Fe2 tau(  16) = (   0.7649996   0.7649996   0.7649996  )

     number of k points=    35  Marzari-Vanderbilt smearing, width (Ry)=  0.0400
                       cart. coord. in units 2pi/alat
        k(    1) = (   0.0544662   0.0544662   0.0544662), wk =   0.0109739
        k(    2) = (   0.0544662   0.0544662   0.1633987), wk =   0.0329218
        k(    3) = (   0.0544662   0.0544662   0.2723312), wk =   0.0329218
        k(    4) = (   0.0544662   0.0544662   0.3812636), wk =   0.0329218
        k(    5) = (   0.0544662   0.0544662  -0.4901961), wk =   0.0164609
        k(    6) = (   0.0544662   0.1633987   0.1633987), wk =   0.0329218
        k(    7) = (   0.0544662   0.1633987   0.2723312), wk =   0.0658436
        k(    8) = (   0.0544662   0.1633987   0.3812636), wk =   0.0658436
        k(    9) = (   0.0544662   0.1633987  -0.4901961), wk =   0.0329218
        k(   10) = (   0.0544662   0.2723312   0.2723312), wk =   0.0329218
        k(   11) = (   0.0544662   0.2723312   0.3812636), wk =   0.0658436
        k(   12) = (   0.0544662   0.2723312  -0.4901961), wk =   0.0329218
        k(   13) = (   0.0544662   0.3812636   0.3812636), wk =   0.0329218
        k(   14) = (   0.0544662   0.3812636  -0.4901961), wk =   0.0329218
        k(   15) = (   0.0544662  -0.4901961  -0.4901961), wk =   0.0082305
        k(   16) = (   0.1633987   0.1633987   0.1633987), wk =   0.0109739
        k(   17) = (   0.1633987   0.1633987   0.2723312), wk =   0.0329218
        k(   18) = (   0.1633987   0.1633987   0.3812636), wk =   0.0329218
        k(   19) = (   0.1633987   0.1633987  -0.4901961), wk =   0.0164609
        k(   20) = (   0.1633987   0.2723312   0.2723312), wk =   0.0329218
        k(   21) = (   0.1633987   0.2723312   0.3812636), wk =   0.0658436
        k(   22) = (   0.1633987   0.2723312  -0.4901961), wk =   0.0329218
        k(   23) = (   0.1633987   0.3812636   0.3812636), wk =   0.0329218
        k(   24) = (   0.1633987   0.3812636  -0.4901961), wk =   0.0329218
        k(   25) = (   0.1633987  -0.4901961  -0.4901961), wk =   0.0082305
        k(   26) = (   0.2723312   0.2723312   0.2723312), wk =   0.0109739
        k(   27) = (   0.2723312   0.2723312   0.3812636), wk =   0.0329218
        k(   28) = (   0.2723312   0.2723312  -0.4901961), wk =   0.0164609
        k(   29) = (   0.2723312   0.3812636   0.3812636), wk =   0.0329218
        k(   30) = (   0.2723312   0.3812636  -0.4901961), wk =   0.0329218
        k(   31) = (   0.2723312  -0.4901961  -0.4901961), wk =   0.0082305
        k(   32) = (   0.3812636   0.3812636   0.3812636), wk =   0.0109739
        k(   33) = (   0.3812636   0.3812636  -0.4901961), wk =   0.0164609
        k(   34) = (   0.3812636  -0.4901961  -0.4901961), wk =   0.0082305
        k(   35) = (  -0.4901961  -0.4901961  -0.4901961), wk =   0.0013717

     Dense  grid:   189935 G-vectors     FFT dimensions: (  72,  72,  72)

     Smooth grid:   101673 G-vectors     FFT dimensions: (  60,  60,  60)

     Estimated max dynamical RAM per process >     161.17 MB

     Estimated total dynamical RAM >       3.15 GB
     Generating pointlists ...
     new r_m :   0.1822 (alat units)  1.9300 (a.u.) for type    1
     new r_m :   0.1822 (alat units)  1.9300 (a.u.) for type    2

     Check: negative/imaginary core charge=   -0.000006    0.000000

     Initial potential from superposition of free atoms

     starting charge  255.99300, renormalised to  256.00000
     Starting wfcs are  160 randomized atomic wfcs
     Checking if some PAW data can be deallocated... 

     total cpu time spent up to now is        9.0 secs

     Self-consistent Calculation

     iteration #  1     ecut=    71.00 Ry     beta= 0.10
     Davidson diagonalization with overlap
     ethr =  1.00E-02,  avg # of iterations =  3.2

     Threshold (ethr) on eigenvalues was too large:
     Diagonalizing with lowered threshold

     Davidson diagonalization with overlap
     ethr =  1.74E-04,  avg # of iterations =  3.8

     total cpu time spent up to now is       69.3 secs

     total energy              =   -5267.93722597 Ry
     Harris-Foulkes estimate   =   -5267.97018718 Ry
     estimated scf accuracy    <       0.53039772 Ry

     total magnetization       =    28.99 Bohr mag/cell
     absolute magnetization    =    29.13 Bohr mag/cell

     iteration #  2     ecut=    71.00 Ry     beta= 0.10
     Davidson diagonalization with overlap
     ethr =  2.07E-04,  avg # of iterations =  1.0

     total cpu time spent up to now is       87.5 secs

     total energy              =   -5267.94458831 Ry
     Harris-Foulkes estimate   =   -5267.94733309 Ry
     estimated scf accuracy    <       0.31976404 Ry

     total magnetization       =    29.63 Bohr mag/cell
     absolute magnetization    =    29.80 Bohr mag/cell

     iteration #  3     ecut=    71.00 Ry     beta= 0.10
     Davidson diagonalization with overlap
     ethr =  1.25E-04,  avg # of iterations =  3.0

     total cpu time spent up to now is      115.9 secs

     total energy              =   -5267.99584428 Ry
     Harris-Foulkes estimate   =   -5267.99658275 Ry
     estimated scf accuracy    <       0.41042989 Ry

     total magnetization       =    30.83 Bohr mag/cell
     absolute magnetization    =    31.22 Bohr mag/cell

     iteration #  4     ecut=    71.00 Ry     beta= 0.10
     Davidson diagonalization with overlap
     ethr =  1.25E-04,  avg # of iterations =  1.0

     total cpu time spent up to now is      134.2 secs

     total energy              =   -5268.01557426 Ry
     Harris-Foulkes estimate   =   -5268.00571209 Ry
     estimated scf accuracy    <       0.12974484 Ry

     total magnetization       =    31.11 Bohr mag/cell
     absolute magnetization    =    31.52 Bohr mag/cell

     iteration #  5     ecut=    71.00 Ry     beta= 0.10
     Davidson diagonalization with overlap
     ethr =  5.07E-05,  avg # of iterations =  1.0

     total cpu time spent up to now is      152.5 secs

     total energy              =   -5268.10875594 Ry
     Harris-Foulkes estimate   =   -5268.01895069 Ry
     estimated scf accuracy    <       0.11857629 Ry

     total magnetization       =    31.16 Bohr mag/cell
     absolute magnetization    =    31.62 Bohr mag/cell

     iteration #  6     ecut=    71.00 Ry     beta= 0.10
     Davidson diagonalization with overlap
     ethr =  4.63E-05,  avg # of iterations =  3.4

     negative rho (up, down):  0.000E+00 4.106E-03

     total cpu time spent up to now is      185.4 secs

     total energy              =   -5268.12283982 Ry
     Harris-Foulkes estimate   =   -5268.15494897 Ry
     estimated scf accuracy    <       0.25363177 Ry

     total magnetization       =    31.84 Bohr mag/cell
     absolute magnetization    =    32.76 Bohr mag/cell

     iteration #  7     ecut=    71.00 Ry     beta= 0.10
     Davidson diagonalization with overlap
     ethr =  4.63E-05,  avg # of iterations =  2.9

     negative rho (up, down):  0.000E+00 2.839E-03

     total cpu time spent up to now is      215.3 secs

     total energy              =   -5268.17394604 Ry
     Harris-Foulkes estimate   =   -5268.17722270 Ry
     estimated scf accuracy    <       0.01219499 Ry

     total magnetization       =    33.49 Bohr mag/cell
     absolute magnetization    =    35.34 Bohr mag/cell

     iteration #  8     ecut=    71.00 Ry     beta= 0.10
     Davidson diagonalization with overlap
     ethr =  4.76E-06,  avg # of iterations =  2.3

     negative rho (up, down):  0.000E+00 2.389E-03

     total cpu time spent up to now is      239.7 secs

     total energy              =   -5268.17441187 Ry
     Harris-Foulkes estimate   =   -5268.17547468 Ry
     estimated scf accuracy    <       0.00990198 Ry

     total magnetization       =    33.39 Bohr mag/cell
     absolute magnetization    =    35.07 Bohr mag/cell

     iteration #  9     ecut=    71.00 Ry     beta= 0.10
     Davidson diagonalization with overlap
     ethr =  3.87E-06,  avg # of iterations =  1.1

     negative rho (up, down):  0.000E+00 2.935E-03

     total cpu time spent up to now is      258.2 secs

     total energy              =   -5268.17746394 Ry
     Harris-Foulkes estimate   =   -5268.17472485 Ry
     estimated scf accuracy    <       0.00600263 Ry

     total magnetization       =    33.44 Bohr mag/cell
     absolute magnetization    =    35.11 Bohr mag/cell

     iteration # 10     ecut=    71.00 Ry     beta= 0.10
     Davidson diagonalization with overlap
     ethr =  2.34E-06,  avg # of iterations =  3.6

     negative rho (up, down):  0.000E+00 2.891E-03

     total cpu time spent up to now is      290.3 secs

     total energy              =   -5268.17989474 Ry
     Harris-Foulkes estimate   =   -5268.17978043 Ry
     estimated scf accuracy    <       0.00102864 Ry

     total magnetization       =    33.94 Bohr mag/cell
     absolute magnetization    =    35.91 Bohr mag/cell

     iteration # 11     ecut=    71.00 Ry     beta= 0.10
     Davidson diagonalization with overlap
     ethr =  4.02E-07,  avg # of iterations =  1.0

     negative rho (up, down):  0.000E+00 2.676E-03

     total cpu time spent up to now is      308.6 secs

     total energy              =   -5268.18023995 Ry
     Harris-Foulkes estimate   =   -5268.17991014 Ry
     estimated scf accuracy    <       0.00079172 Ry

     total magnetization       =    33.97 Bohr mag/cell
     absolute magnetization    =    35.94 Bohr mag/cell

     iteration # 12     ecut=    71.00 Ry     beta= 0.10
     Davidson diagonalization with overlap
     ethr =  3.09E-07,  avg # of iterations =  2.0

     negative rho (up, down):  0.000E+00 2.885E-03

     total cpu time spent up to now is      330.3 secs

     total energy              =   -5268.18026732 Ry
     Harris-Foulkes estimate   =   -5268.18033376 Ry
     estimated scf accuracy    <       0.00068618 Ry

     total magnetization       =    34.06 Bohr mag/cell
     absolute magnetization    =    36.04 Bohr mag/cell

     iteration # 13     ecut=    71.00 Ry     beta= 0.10
     Davidson diagonalization with overlap
     ethr =  2.68E-07,  avg # of iterations =  3.2

     negative rho (up, down):  0.000E+00 2.924E-03

     total cpu time spent up to now is      360.1 secs

     total energy              =   -5268.18058005 Ry
     Harris-Foulkes estimate   =   -5268.18057102 Ry
     estimated scf accuracy    <       0.00031256 Ry

     total magnetization       =    34.29 Bohr mag/cell
     absolute magnetization    =    36.36 Bohr mag/cell

     iteration # 14     ecut=    71.00 Ry     beta= 0.10
     Davidson diagonalization with overlap
     ethr =  1.22E-07,  avg # of iterations =  1.8

     negative rho (up, down):  0.000E+00 2.920E-03

     total cpu time spent up to now is      381.1 secs

     total energy              =   -5268.18066601 Ry
     Harris-Foulkes estimate   =   -5268.18062418 Ry
     estimated scf accuracy    <       0.00023817 Ry

     total magnetization       =    34.34 Bohr mag/cell
     absolute magnetization    =    36.42 Bohr mag/cell

     iteration # 15     ecut=    71.00 Ry     beta= 0.10
     Davidson diagonalization with overlap
     ethr =  9.30E-08,  avg # of iterations =  1.0

     negative rho (up, down):  0.000E+00 2.938E-03

     total cpu time spent up to now is      399.3 secs

     total energy              =   -5268.18071884 Ry
     Harris-Foulkes estimate   =   -5268.18068201 Ry
     estimated scf accuracy    <       0.00004098 Ry

     total magnetization       =    34.37 Bohr mag/cell
     absolute magnetization    =    36.45 Bohr mag/cell

     iteration # 16     ecut=    71.00 Ry     beta= 0.10
     Davidson diagonalization with overlap
     ethr =  1.60E-08,  avg # of iterations =  3.2

     negative rho (up, down):  0.000E+00 2.929E-03

     total cpu time spent up to now is      428.8 secs

     total energy              =   -5268.18073264 Ry
     Harris-Foulkes estimate   =   -5268.18072809 Ry
     estimated scf accuracy    <       0.00001558 Ry

     total magnetization       =    34.38 Bohr mag/cell
     absolute magnetization    =    36.45 Bohr mag/cell

     iteration # 17     ecut=    71.00 Ry     beta= 0.10
     Davidson diagonalization with overlap
     ethr =  6.09E-09,  avg # of iterations =  2.4

     negative rho (up, down):  0.000E+00 2.971E-03

     total cpu time spent up to now is      452.5 secs

     total energy              =   -5268.18073933 Ry
     Harris-Foulkes estimate   =   -5268.18073436 Ry
     estimated scf accuracy    <       0.00000799 Ry

     total magnetization       =    34.39 Bohr mag/cell
     absolute magnetization    =    36.45 Bohr mag/cell

     iteration # 18     ecut=    71.00 Ry     beta= 0.10
     Davidson diagonalization with overlap
     ethr =  3.12E-09,  avg # of iterations =  2.8

     negative rho (up, down):  0.000E+00 2.976E-03

     total cpu time spent up to now is      480.5 secs

     total energy              =   -5268.18074299 Ry
     Harris-Foulkes estimate   =   -5268.18074263 Ry
     estimated scf accuracy    <       0.00000132 Ry

     total magnetization       =    34.41 Bohr mag/cell
     absolute magnetization    =    36.47 Bohr mag/cell

     iteration # 19     ecut=    71.00 Ry     beta= 0.10
     Davidson diagonalization with overlap
     ethr =  5.14E-10,  avg # of iterations =  2.4

     negative rho (up, down):  0.000E+00 2.997E-03
 
     Magnetic moment per site:
     atom:    1    charge:   14.4145    magn:    2.2050    constr:    0.0000
     atom:    2    charge:   14.4143    magn:    2.2069    constr:    0.0000
     atom:    3    charge:   14.4144    magn:    2.2057    constr:    0.0000
     atom:    4    charge:   14.4143    magn:    2.2069    constr:    0.0000
     atom:    5    charge:   14.4144    magn:    2.2057    constr:    0.0000
     atom:    6    charge:   14.4143    magn:    2.2069    constr:    0.0000
     atom:    7    charge:   14.4143    magn:    2.2063    constr:    0.0000
     atom:    8    charge:   14.4143    magn:    2.2069    constr:    0.0000
     atom:    9    charge:   14.4144    magn:    2.2057    constr:    0.0000
     atom:   10    charge:   14.4143    magn:    2.2069    constr:    0.0000
     atom:   11    charge:   14.4143    magn:    2.2063    constr:    0.0000
     atom:   12    charge:   14.4143    magn:    2.2069    constr:    0.0000
     atom:   13    charge:   14.4143    magn:    2.2063    constr:    0.0000
     atom:   14    charge:   14.4143    magn:    2.2069    constr:    0.0000
     atom:   15    charge:   14.4142    magn:    2.2069    constr:    0.0000
     atom:   16    charge:   14.4143    magn:    2.2069    constr:    0.0000

     total cpu time spent up to now is      504.7 secs

     End of self-consistent calculation

 ------ SPIN UP ------------


          k = 0.0545 0.0545 0.0545 ( 12776 PWs)   bands (ev):

   -70.3938 -70.3347 -70.3347 -70.3347 -70.3256 -70.3256 -70.3256 -70.3244
   -70.3242 -70.3242 -70.3239 -70.3239 -70.3237 -70.3209 -70.3196 -70.2735
   -36.5808 -36.5807 -36.5807 -36.5788 -36.5788 -36.5788 -36.4781 -36.4781
   -36.4743 -36.4229 -36.4199 -36.4199 -36.4199 -36.4065 -36.4065 -36.3973
   -36.3973 -36.3973 -36.3738 -36.3738 -36.3582 -36.3514 -36.3514 -36.3514
   -36.3432 -36.3432 -36.3432 -36.3362 -36.3362 -36.3362 -36.3338 -36.3338
   -36.3338 -36.3278 -36.3278 -36.3278 -36.3200 -36.3200 -36.3200 -36.2118
   -36.2105 -36.2105 -36.2105 -36.2085 -36.2085 -36.2085 -36.2078 -36.2078
     9.3606  12.8551  12.8551  12.8552  12.8807  12.8807  12.8807  12.8999
    12.8999  12.8999  12.9621  12.9621  13.2645  13.2645  13.2645  14.4041
    14.4170  14.4170  14.4170  14.4287  14.4287  14.4287  14.4829  14.4829
    14.5622  14.5623  14.5623  14.6148  14.6148  14.6649  14.8713  14.8713
    14.8713  15.4517  15.4517  15.4898  15.7569  15.7569  15.7569  15.8293
    15.8293  15.8293  15.9157  15.9157  15.9157  15.9900  15.9900  15.9900
    16.5574  16.5574  16.5672  16.5672  16.5672  16.6006  16.6006  16.6006
    16.6352  16.6352  16.6352  16.6412  16.6412  16.6412  16.7426  16.7426
    16.7426  16.7704  16.7704  16.7704  16.7774  16.7774  16.7787  16.7787
    17.5743  17.5743  17.5743  17.7102  17.7102  17.7103  17.7352  17.7954
    17.7954  17.8541  17.8542  17.8542  18.1162  18.1162  18.1162  18.3614
    18.3614  18.3615

          k = 0.0545 0.0545 0.1634 ( 12783 PWs)   bands (ev):

   -70.3917 -70.3453 -70.3343 -70.3342 -70.3266 -70.3266 -70.3253 -70.3241
   -70.3240 -70.3237 -70.3236 -70.3235 -70.3212 -70.3200 -70.3139 -70.2752
   -36.5757 -36.5757 -36.5748 -36.5731 -36.5694 -36.5694 -36.4807 -36.4741
   -36.4680 -36.4469 -36.4410 -36.4409 -36.4392 -36.4392 -36.4190 -36.4190
   -36.3967 -36.3787 -36.3752 -36.3707 -36.3665 -36.3511 -36.3511 -36.3423
   -36.3394 -36.3384 -36.3384 -36.3369 -36.3337 -36.3322 -36.3322 -36.3280
   -36.3280 -36.3241 -36.3241 -36.3043 -36.3018 -36.3018 -36.2975 -36.2215
   -36.2164 -36.2164 -36.2154 -36.2139 -36.2116 -36.2105 -36.2105 -36.2093
     9.4860  12.3117  12.8949  12.8949  12.9038  12.9038  12.9534  12.9534
    12.9674  12.9854  13.0140  13.0156  13.3009  13.3010  13.4969  14.2562
    14.3059  14.3964  14.4049  14.4145  14.4157  14.4579  14.4579  14.4930
    14.4930  14.5115  14.5456  14.5456  14.7950  14.7971  14.8253  14.8254
    15.1672  15.4325  15.4497  15.5416  15.5800  15.5800  15.6313  15.7169
    15.7291  15.7291  15.9359  15.9359  16.0505  16.0506  16.1095  16.1916
    16.2634  16.2634  16.3686  16.4980  16.4981  16.5039  16.5569  16.5797
    16.5981  16.5981  16.6475  16.6501  16.6682  16.6682  16.7447  16.7527
    16.7527  16.7739  16.7750  16.7763  16.7783  16.9499  16.9499  16.9717
    17.1163  17.2291  17.3210  17.5975  17.5975  17.6023  17.6230  17.6231
    17.6905  17.7890  17.9134  17.9134  18.1780  18.1780  18.2195  18.2196
    18.7002  18.7002

          k = 0.0545 0.0545 0.2723 ( 12757 PWs)   bands (ev):

   -70.3877 -70.3556 -70.3334 -70.3334 -70.3279 -70.3279 -70.3248 -70.3239
   -70.3238 -70.3233 -70.3232 -70.3232 -70.3217 -70.3204 -70.3046 -70.2783
   -36.5637 -36.5636 -36.5633 -36.5619 -36.5540 -36.5539 -36.4806 -36.4739
   -36.4704 -36.4686 -36.4686 -36.4656 -36.4578 -36.4544 -36.4479 -36.4479
   -36.3977 -36.3890 -36.3869 -36.3756 -36.3501 -36.3500 -36.3461 -36.3428
   -36.3420 -36.3409 -36.3408 -36.3307 -36.3307 -36.3282 -36.3282 -36.3121
   -36.3070 -36.3006 -36.3006 -36.2828 -36.2796 -36.2796 -36.2762 -36.2384
   -36.2261 -36.2261 -36.2253 -36.2244 -36.2194 -36.2165 -36.2165 -36.2157
     9.7333  11.7068  12.9348  12.9348  12.9748  12.9748  13.0377  13.0377
    13.1170  13.1171  13.1338  13.1493  13.3371  13.3371  13.5637  13.9653
    14.1661  14.2094  14.3494  14.3842  14.3930  14.3944  14.5496  14.5496
    14.5726  14.5726  14.6075  14.6075  14.8121  14.8121  15.0226  15.0338
    15.3423  15.3423  15.4026  15.4223  15.4472  15.4773  15.4773  15.5382
    15.6184  15.6866  15.8404  15.8404  16.0688  16.0688  16.1040  16.1040
    16.1516  16.1516  16.1794  16.3385  16.3895  16.3987  16.4292  16.5402
    16.5402  16.5588  16.6161  16.6161  16.6218  16.6691  16.6879  16.7487
    16.7652  16.7682  16.7711  16.7781  16.9566  16.9918  16.9918  17.0134
    17.1652  17.1829  17.1829  17.4004  17.5000  17.5961  17.5961  17.6454
    17.6454  17.7318  17.8768  17.8768  18.0866  18.0866  18.2927  18.2927
    18.7658  18.7658

          k = 0.0545 0.0545 0.3813 ( 12752 PWs)   bands (ev):

   -70.3818 -70.3654 -70.3323 -70.3323 -70.3294 -70.3294 -70.3240 -70.3236
   -70.3235 -70.3232 -70.3232 -70.3226 -70.3224 -70.3211 -70.2961 -70.2828
   -36.5463 -36.5458 -36.5458 -36.5456 -36.5328 -36.5328 -36.5005 -36.4992
   -36.4969 -36.4969 -36.4783 -36.4782 -36.4781 -36.4656 -36.4531 -36.4447
   -36.4187 -36.4098 -36.3768 -36.3687 -36.3551 -36.3509 -36.3483 -36.3482
   -36.3436 -36.3436 -36.3296 -36.3295 -36.3286 -36.3286 -36.3128 -36.2844
   -36.2817 -36.2778 -36.2777 -36.2628 -36.2596 -36.2588 -36.2587 -36.2567
   -36.2401 -36.2401 -36.2401 -36.2399 -36.2308 -36.2267 -36.2267 -36.2263
    10.0953  11.1071  12.9862  12.9862  13.0248  13.0248  13.1422  13.1422
    13.2502  13.2685  13.3227  13.3227  13.3664  13.3777  13.5118  13.6985
    13.9283  13.9374  14.3335  14.3481  14.3599  14.3670  14.6877  14.6877
    14.7155  14.7155  14.7664  14.7664  14.9015  14.9015  15.1189  15.1189
    15.2247  15.2247  15.3170  15.3252  15.4077  15.4077  15.4227  15.4487
    15.4674  15.4754  15.5962  15.5962  15.7219  15.8352  16.0055  16.0467
    16.0914  16.2453  16.2637  16.2637  16.2767  16.2767  16.4635  16.4635
    16.5393  16.5393  16.5975  16.6846  16.6947  16.6970  16.7011  16.7489
    16.7507  16.7541  16.7659  16.7804  16.8258  16.8703  17.1493  17.2212
    17.2213  17.2518  17.3442  17.4109  17.4109  17.5347  17.5348  17.6339
    17.7200  17.7200  17.7705  17.7705  17.9508  17.9508  18.4416  18.4417
    18.7189  18.7190

          k = 0.0545 0.0545-0.4902 ( 12732 PWs)   bands (ev):

   -70.3743 -70.3741 -70.3310 -70.3309 -70.3308 -70.3307 -70.3235 -70.3234
   -70.3232 -70.3232 -70.3232 -70.3231 -70.3220 -70.3216 -70.2890 -70.2887
   -36.5249 -36.5247 -36.5247 -36.5245 -36.5232 -36.5232 -36.5231 -36.5231
   -36.5071 -36.5071 -36.5071 -36.5071 -36.4737 -36.4735 -36.4377 -36.4375
   -36.4288 -36.4286 -36.3660 -36.3658 -36.3603 -36.3600 -36.3461 -36.3461
   -36.3459 -36.3459 -36.3289 -36.3289 -36.3287 -36.3287 -36.2845 -36.2843
   -36.2602 -36.2600 -36.2591 -36.2589 -36.2575 -36.2575 -36.2574 -36.2574
   -36.2453 -36.2451 -36.2407 -36.2407 -36.2407 -36.2407 -36.2400 -36.2399
    10.5597  10.5598  13.0254  13.0254  13.0254  13.0254  13.2476  13.2476
    13.2476  13.2476  13.3925  13.3926  13.4639  13.4640  13.6440  13.6442
    13.6481  13.6483  14.3399  14.3401  14.3474  14.3476  14.8606  14.8606
    14.8606  14.8606  14.9231  14.9231  14.9232  14.9232  15.0665  15.0665
    15.0665  15.0666  15.2052  15.2053  15.2054  15.2054  15.4387  15.4388
    15.4577  15.4579  15.6683  15.6684  15.6738  15.6739  15.8520  15.8522
    16.0513  16.0514  16.3702  16.3702  16.3703  16.3703  16.4260  16.4260
    16.4261  16.4261  16.7256  16.7257  16.7261  16.7263  16.7602  16.7602
    16.7658  16.7659  16.7905  16.7906  16.8737  16.8739  16.9748  16.9751
    17.4092  17.4092  17.4093  17.4093  17.5024  17.5025  17.6113  17.6113
    17.6113  17.6113  17.8235  17.8235  17.8235  17.8235  18.5962  18.5962
    18.5963  18.5963

          k = 0.0545 0.1634 0.1634 ( 12757 PWs)   bands (ev):

   -70.3897 -70.3445 -70.3445 -70.3338 -70.3295 -70.3263 -70.3263 -70.3239
   -70.3234 -70.3233 -70.3215 -70.3213 -70.3201 -70.3141 -70.3141 -70.2767
   -36.5745 -36.5701 -36.5700 -36.5645 -36.5645 -36.5569 -36.4850 -36.4717
   -36.4623 -36.4591 -36.4590 -36.4576 -36.4539 -36.4491 -36.4330 -36.4032
   -36.3931 -36.3931 -36.3742 -36.3742 -36.3711 -36.3546 -36.3466 -36.3466
   -36.3447 -36.3423 -36.3423 -36.3350 -36.3350 -36.3305 -36.3297 -36.3264
   -36.3156 -36.3093 -36.3053 -36.3052 -36.2888 -36.2802 -36.2801 -36.2353
   -36.2259 -36.2205 -36.2205 -36.2154 -36.2154 -36.2148 -36.2085 -36.2078
     9.6101  12.3792  12.3792  12.8582  12.9588  12.9830  12.9831  13.0382
    13.0382  13.0388  13.0640  13.0705  13.3466  13.5321  13.5321  14.2182
    14.2609  14.2609  14.3140  14.4435  14.4435  14.4630  14.4746  14.4746
    14.4750  14.5135  14.5699  14.5798  14.7650  14.7918  14.8060  15.0779
    15.0779  15.3842  15.4382  15.4646  15.4647  15.5131  15.6241  15.6263
    15.8660  15.8660  15.9108  15.9108  15.9322  15.9722  16.0904  16.2018
    16.2019  16.2066  16.2066  16.4440  16.4440  16.4961  16.5271  16.5439
    16.5569  16.5569  16.5641  16.6122  16.6122  16.6639  16.6639  16.7262
    16.7675  16.7740  16.7745  16.7833  16.8716  17.0419  17.1344  17.1437
    17.1437  17.1472  17.1472  17.2243  17.2243  17.4256  17.4828  17.4828
    17.6126  17.6569  17.8101  17.9750  17.9881  18.2739  18.8609  18.8609
    18.9902  18.9902

          k = 0.0545 0.1634 0.2723 ( 12767 PWs)   bands (ev):

   -70.3858 -70.3546 -70.3431 -70.3330 -70.3326 -70.3276 -70.3257 -70.3236
   -70.3231 -70.3229 -70.3222 -70.3205 -70.3192 -70.3146 -70.3050 -70.2797
   -36.5668 -36.5589 -36.5586 -36.5546 -36.5500 -36.5379 -36.4886 -36.4847
   -36.4816 -36.4747 -36.4728 -36.4727 -36.4636 -36.4555 -36.4441 -36.4230
   -36.3967 -36.3964 -36.3717 -36.3691 -36.3691 -36.3644 -36.3556 -36.3512
   -36.3501 -36.3456 -36.3408 -36.3338 -36.3319 -36.3225 -36.3210 -36.3069
   -36.3054 -36.2950 -36.2905 -36.2840 -36.2720 -36.2604 -36.2601 -36.2553
   -36.2397 -36.2288 -36.2286 -36.2252 -36.2223 -36.2205 -36.2104 -36.2104
     9.8546  11.7925  12.4958  12.8324  13.0246  13.0416  13.1224  13.1489
    13.1524  13.1601  13.1763  13.2003  13.3997  13.5550  13.6038  13.9861
    14.1160  14.1899  14.3218  14.3992  14.4181  14.4427  14.4767  14.5106
    14.5274  14.5428  14.5766  14.7156  14.7216  14.9359  14.9706  15.0178
    15.2472  15.2641  15.3411  15.3477  15.3848  15.4265  15.4397  15.5519
    15.6488  15.7353  15.7887  15.8691  15.9891  16.0514  16.0723  16.1061
    16.1263  16.1807  16.1946  16.2275  16.2308  16.3652  16.4082  16.4173
    16.4521  16.5572  16.5959  16.6148  16.6389  16.6618  16.6658  16.7550
    16.7644  16.7741  16.7930  16.8001  16.8800  16.9956  17.0141  17.0195
    17.1440  17.1747  17.1923  17.2179  17.2181  17.3271  17.3654  17.4275
    17.5401  17.7827  17.7866  17.7972  17.9713  18.4479  18.6457  19.1644
    19.2604  19.5491

          k = 0.0545 0.1634 0.3813 ( 12750 PWs)   bands (ev):

   -70.3800 -70.3641 -70.3410 -70.3356 -70.3318 -70.3290 -70.3249 -70.3234
   -70.3231 -70.3229 -70.3223 -70.3210 -70.3175 -70.3152 -70.2969 -70.2841
   -36.5526 -36.5428 -36.5421 -36.5403 -36.5304 -36.5139 -36.5103 -36.5024
   -36.4985 -36.4983 -36.4897 -36.4823 -36.4812 -36.4547 -36.4514 -36.4283
   -36.4173 -36.3904 -36.3851 -36.3680 -36.3641 -36.3605 -36.3575 -36.3544
   -36.3490 -36.3486 -36.3348 -36.3332 -36.3324 -36.3163 -36.3092 -36.2984
   -36.2808 -36.2786 -36.2747 -36.2718 -36.2646 -36.2565 -36.2552 -36.2430
   -36.2418 -36.2406 -36.2403 -36.2398 -36.2334 -36.2290 -36.2173 -36.2167
    10.2121  11.2069  12.6267  12.7983  13.0769  13.1050  13.2271  13.2766
    13.2932  13.3232  13.3886  13.4005  13.4244  13.5110  13.5559  13.7324
    13.9359  13.9558  14.3600  14.3885  14.3961  14.4077  14.4995  14.6103
    14.6461  14.6574  14.7040  14.7532  14.8918  14.9823  15.1211  15.1669
    15.1864  15.1908  15.2186  15.2421  15.3141  15.3216  15.3724  15.3799
    15.3888  15.4140  15.5403  15.6933  15.8034  15.8653  15.8743  15.9706
    16.1830  16.2632  16.2701  16.2762  16.2879  16.2894  16.3742  16.3794
    16.4839  16.5353  16.5793  16.6500  16.6595  16.6741  16.6831  16.7351
    16.7429  16.7751  16.8011  16.8127  16.8483  16.9251  16.9484  17.0199
    17.0656  17.1261  17.1842  17.2324  17.2342  17.3112  17.4921  17.5141
    17.5778  17.5866  17.7355  17.8912  17.9693  18.4213  18.6696  19.1135
    19.3760  19.6747

          k = 0.0545 0.1634-0.4902 ( 12742 PWs)   bands (ev):

   -70.3728 -70.3725 -70.3386 -70.3384 -70.3306 -70.3304 -70.3240 -70.3239
   -70.3233 -70.3230 -70.3218 -70.3215 -70.3163 -70.3161 -70.2900 -70.2897
   -36.5332 -36.5332 -36.5227 -36.5225 -36.5223 -36.5221 -36.5215 -36.5215
   -36.5070 -36.5070 -36.4878 -36.4877 -36.4855 -36.4855 -36.4359 -36.4357
   -36.4103 -36.4102 -36.3728 -36.3726 -36.3632 -36.3630 -36.3570 -36.3568
   -36.3522 -36.3521 -36.3328 -36.3327 -36.3125 -36.3123 -36.3055 -36.3054
   -36.2762 -36.2761 -36.2587 -36.2585 -36.2563 -36.2561 -36.2548 -36.2548
   -36.2475 -36.2473 -36.2405 -36.2405 -36.2284 -36.2283 -36.2273 -36.2273
    10.6696  10.6697  12.7334  12.7335  13.1139  13.1140  13.3315  13.3315
    13.4063  13.4063  13.4377  13.4378  13.5090  13.5091  13.6683  13.6685
    13.6842  13.6843  14.3644  14.3646  14.3839  14.3841  14.7584  14.7585
    14.7598  14.7599  14.7866  14.7868  14.8122  14.8122  15.1316  15.1316
    15.1483  15.1484  15.2178  15.2179  15.3075  15.3076  15.3124  15.3125
    15.3997  15.3999  15.5072  15.5073  15.5107  15.5108  16.0150  16.0151
    16.1293  16.1293  16.3148  16.3149  16.3935  16.3935  16.4192  16.4193
    16.4503  16.4504  16.6457  16.6458  16.7091  16.7093  16.7110  16.7112
    16.7423  16.7424  16.7805  16.7806  16.8553  16.8553  16.9158  16.9160
    17.0926  17.0927  17.1987  17.1987  17.3769  17.3769  17.4305  17.4305
    17.6310  17.6311  17.7573  17.7573  18.1910  18.1910  18.9034  18.9034
    19.5714  19.5716

          k = 0.0545 0.2723 0.2723 ( 12766 PWs)   bands (ev):

   -70.3820 -70.3526 -70.3526 -70.3373 -70.3322 -70.3269 -70.3269 -70.3234
   -70.3230 -70.3227 -70.3226 -70.3207 -70.3156 -70.3060 -70.3060 -70.2825
   -36.5632 -36.5491 -36.5491 -36.5423 -36.5423 -36.5160 -36.4964 -36.4958
   -36.4958 -36.4923 -36.4862 -36.4839 -36.4695 -36.4560 -36.4272 -36.3971
   -36.3948 -36.3948 -36.3928 -36.3927 -36.3658 -36.3614 -36.3608 -36.3546
   -36.3546 -36.3447 -36.3447 -36.3398 -36.3398 -36.3357 -36.3122 -36.2903
   -36.2869 -36.2869 -36.2803 -36.2780 -36.2769 -36.2612 -36.2563 -36.2427
   -36.2427 -36.2341 -36.2341 -36.2293 -36.2284 -36.2284 -36.2084 -36.2080
    10.0934  11.9512  11.9513  12.7154  13.1494  13.1967  13.1967  13.2431
    13.2692  13.2834  13.2834  13.2893  13.4896  13.6304  13.6304  14.0624
    14.0752  14.0752  14.1214  14.4378  14.4503  14.4885  14.4885  14.5014
    14.5244  14.5244  14.5854  14.6311  14.8716  14.8912  14.9480  15.1412
    15.1413  15.2182  15.2182  15.2243  15.2592  15.2818  15.3442  15.3997
    15.6731  15.6731  15.8063  15.8063  15.8555  15.8555  15.8815  16.0269
    16.0767  16.0767  16.1744  16.2506  16.3555  16.3555  16.3723  16.4195
    16.5773  16.5900  16.5900  16.6069  16.6069  16.6198  16.6198  16.6576
    16.6976  16.7349  16.7503  16.7842  16.8159  16.9320  16.9612  16.9612
    16.9852  16.9853  17.0370  17.1810  17.2395  17.2395  17.2498  17.5300
    17.5300  17.5763  17.8390  17.9921  18.0201  18.7063  19.2501  19.2502
    19.8799  19.8799

          k = 0.0545 0.2723 0.3813 ( 12737 PWs)   bands (ev):

   -70.3765 -70.3615 -70.3497 -70.3418 -70.3310 -70.3283 -70.3261 -70.3240
   -70.3231 -70.3226 -70.3222 -70.3211 -70.3124 -70.3076 -70.2985 -70.2865
   -36.5531 -36.5357 -36.5352 -36.5315 -36.5260 -36.5180 -36.5050 -36.5024
   -36.5020 -36.5018 -36.5007 -36.4896 -36.4874 -36.4445 -36.4271 -36.4124
   -36.4085 -36.3897 -36.3870 -36.3711 -36.3668 -36.3661 -36.3644 -36.3628
   -36.3617 -36.3587 -36.3476 -36.3394 -36.3379 -36.3200 -36.3042 -36.3038
   -36.2911 -36.2753 -36.2722 -36.2685 -36.2657 -36.2634 -36.2499 -36.2420
   -36.2414 -36.2399 -36.2394 -36.2336 -36.2282 -36.2278 -36.2105 -36.2104
    10.4411  11.3980  12.1575  12.5653  13.2452  13.2490  13.3572  13.3868
    13.3921  13.4344  13.4452  13.5023  13.5330  13.5913  13.5934  13.8435
    13.9510  13.9624  14.2727  14.4082  14.4434  14.4443  14.4674  14.4789
    14.5763  14.6053  14.6081  14.6747  14.8802  14.9695  15.0226  15.0736
    15.0741  15.1438  15.1811  15.1956  15.2034  15.2199  15.2847  15.3299
    15.3684  15.4168  15.4933  15.5428  15.5757  15.6331  16.0452  16.0960
    16.1391  16.2728  16.2983  16.3103  16.3163  16.3454  16.3513  16.4123
    16.5239  16.5409  16.5418  16.5638  16.6191  16.6344  16.6395  16.6489
    16.7059  16.7227  16.7461  16.7992  16.8065  16.8347  16.8524  16.8736
    16.9333  17.0185  17.0362  17.0371  17.0516  17.2083  17.2634  17.3581
    17.6679  17.7153  17.8300  17.9537  18.3116  18.9395  19.0151  19.6368
    19.8828  20.4776

          k = 0.0545 0.2723-0.4902 ( 12736 PWs)   bands (ev):

   -70.3697 -70.3695 -70.3461 -70.3459 -70.3298 -70.3297 -70.3251 -70.3249
   -70.3230 -70.3227 -70.3218 -70.3215 -70.3098 -70.3096 -70.2920 -70.2918
   -36.5378 -36.5378 -36.5190 -36.5189 -36.5189 -36.5188 -36.5186 -36.5184
   -36.5072 -36.5071 -36.5042 -36.5041 -36.4593 -36.4593 -36.4299 -36.4297
   -36.3881 -36.3881 -36.3798 -36.3796 -36.3787 -36.3785 -36.3619 -36.3618
   -36.3554 -36.3552 -36.3391 -36.3389 -36.3339 -36.3339 -36.2969 -36.2967
   -36.2966 -36.2966 -36.2549 -36.2547 -36.2527 -36.2526 -36.2525 -36.2524
   -36.2513 -36.2513 -36.2408 -36.2408 -36.2174 -36.2174 -36.2170 -36.2169
    10.8833  10.8835  12.3741  12.3741  13.2777  13.2777  13.4845  13.4846
    13.4856  13.4856  13.5059  13.5059  13.6324  13.6325  13.7076  13.7078
    13.7452  13.7454  14.4100  14.4102  14.4290  14.4291  14.5534  14.5535
    14.5901  14.5902  14.6269  14.6270  14.8055  14.8055  15.1560  15.1560
    15.1619  15.1620  15.1819  15.1819  15.2629  15.2630  15.2781  15.2782
    15.3104  15.3104  15.3331  15.3333  15.3395  15.3395  16.2189  16.2190
    16.2475  16.2475  16.2946  16.2947  16.3645  16.3646  16.4300  16.4300
    16.4395  16.4395  16.4409  16.4409  16.6714  16.6715  16.6818  16.6819
    16.6995  16.6996  16.7716  16.7718  16.8212  16.8213  16.8239  16.8239
    16.9176  16.9176  17.0541  17.0541  17.1255  17.1255  17.2436  17.2437
    17.7707  17.7708  17.8598  17.8598  18.6241  18.6241  19.3358  19.3359
    20.5321  20.5321

          k = 0.0545 0.3813 0.3813 ( 12729 PWs)   bands (ev):

   -70.3715 -70.3578 -70.3578 -70.3477 -70.3300 -70.3274 -70.3274 -70.3251
   -70.3228 -70.3222 -70.3222 -70.3213 -70.3078 -70.3008 -70.3008 -70.2902
   -36.5476 -36.5260 -36.5260 -36.5209 -36.5209 -36.5204 -36.5203 -36.5122
   -36.5089 -36.5078 -36.5067 -36.4966 -36.4610 -36.4342 -36.4047 -36.4047
   -36.3968 -36.3968 -36.3884 -36.3871 -36.3837 -36.3702 -36.3702 -36.3693
   -36.3587 -36.3471 -36.3471 -36.3425 -36.3422 -36.3422 -36.3339 -36.2960
   -36.2925 -36.2747 -36.2747 -36.2610 -36.2568 -36.2553 -36.2483 -36.2456
   -36.2443 -36.2443 -36.2407 -36.2407 -36.2172 -36.2172 -36.2082 -36.2080
    10.7720  11.6622  11.6622  12.2832  13.3955  13.4396  13.4804  13.4804
    13.4854  13.5876  13.5876  13.5973  13.5973  13.6163  13.6550  13.9040
    13.9327  14.0438  14.0438  14.4069  14.4280  14.4377  14.4998  14.4999
    14.5031  14.5031  14.5204  14.5896  14.7371  14.9591  14.9784  14.9784
    15.0218  15.0952  15.1191  15.1563  15.2244  15.2244  15.2404  15.2405
    15.2543  15.2543  15.2846  15.3232  15.4539  15.8086  15.8086  16.2394
    16.2978  16.3008  16.3009  16.3576  16.3757  16.3903  16.4241  16.4242
    16.4242  16.5203  16.5681  16.5681  16.5787  16.5787  16.5993  16.6520
    16.6520  16.6627  16.6636  16.6874  16.7508  16.7508  16.8091  16.8292
    16.8995  16.9280  16.9280  17.0037  17.0826  17.0826  17.1320  17.1428
    17.8157  17.8158  17.8776  17.9623  18.6915  19.4090  19.4847  19.4847
    20.2087  20.2087

          k = 0.0545 0.3813-0.4902 ( 12706 PWs)   bands (ev):

   -70.3653 -70.3651 -70.3533 -70.3530 -70.3288 -70.3286 -70.3263 -70.3262
   -70.3226 -70.3223 -70.3219 -70.3216 -70.3041 -70.3038 -70.2950 -70.2948
   -36.5363 -36.5363 -36.5185 -36.5185 -36.5163 -36.5162 -36.5158 -36.5157
   -36.5144 -36.5142 -36.5081 -36.5080 -36.4296 -36.4296 -36.4208 -36.4206
   -36.3953 -36.3951 -36.3811 -36.3810 -36.3716 -36.3716 -36.3656 -36.3656
   -36.3642 -36.3642 -36.3537 -36.3536 -36.3454 -36.3454 -36.3187 -36.3187
   -36.2829 -36.2827 -36.2605 -36.2603 -36.2500 -36.2499 -36.2494 -36.2493
   -36.2488 -36.2487 -36.2421 -36.2421 -36.2106 -36.2106 -36.2104 -36.2104
    11.1877  11.1879  11.9700  11.9701  13.4826  13.4826  13.5251  13.5251
    13.5515  13.5516  13.6723  13.6723  13.7259  13.7261  13.8080  13.8081
    13.8211  13.8212  14.3016  14.3017  14.4354  14.4355  14.4431  14.4431
    14.4528  14.4529  14.5108  14.5109  14.8402  14.8402  15.0210  15.0210
    15.0620  15.0621  15.0963  15.0964  15.1002  15.1002  15.1176  15.1176
    15.2869  15.2870  15.3077  15.3077  15.5333  15.5333  16.0725  16.0725
    16.3352  16.3353  16.3552  16.3552  16.4353  16.4353  16.4460  16.4460
    16.4752  16.4753  16.5067  16.5067  16.5991  16.5993  16.6138  16.6139
    16.6371  16.6372  16.6492  16.6493  16.6863  16.6864  16.8677  16.8677
    16.8975  16.8976  16.9674  16.9674  16.9687  16.9687  17.1088  17.1089
    17.8720  17.8720  17.9160  17.9160  19.0862  19.0862  19.8159  19.8160
    20.0451  20.0451

          k = 0.0545-0.4902-0.4902 ( 12664 PWs)   bands (ev):

   -70.3599 -70.3597 -70.3597 -70.3594 -70.3277 -70.3275 -70.3275 -70.3273
   -70.3223 -70.3220 -70.3220 -70.3217 -70.2992 -70.2989 -70.2989 -70.2987
   -36.5297 -36.5297 -36.5297 -36.5297 -36.5148 -36.5147 -36.5147 -36.5146
   -36.5106 -36.5105 -36.5105 -36.5104 -36.4090 -36.4088 -36.4088 -36.4086
   -36.3977 -36.3977 -36.3977 -36.3977 -36.3786 -36.3786 -36.3786 -36.3785
   -36.3506 -36.3506 -36.3506 -36.3506 -36.3413 -36.3413 -36.3413 -36.3412
   -36.2708 -36.2706 -36.2706 -36.2704 -36.2479 -36.2478 -36.2478 -36.2477
   -36.2452 -36.2452 -36.2452 -36.2451 -36.2082 -36.2082 -36.2082 -36.2082
    11.5608  11.5609  11.5609  11.5611  13.5527  13.5527  13.5528  13.5528
    13.6577  13.6578  13.6578  13.6579  13.8052  13.8053  13.8053  13.8053
    14.0510  14.0511  14.0511  14.0512  14.4021  14.4021  14.4021  14.4022
    14.4521  14.4522  14.4522  14.4522  14.9135  14.9135  14.9136  14.9136
    15.0214  15.0215  15.0215  15.0216  15.0657  15.0657  15.0657  15.0659
    15.2785  15.2786  15.2786  15.2787  15.7908  15.7908  15.7908  15.7908
    16.4290  16.4290  16.4290  16.4290  16.4424  16.4425  16.4425  16.4427
    16.5436  16.5437  16.5437  16.5437  16.5769  16.5770  16.5770  16.5770
    16.6284  16.6285  16.6285  16.6286  16.6709  16.6709  16.6709  16.6709
    16.9118  16.9118  16.9118  16.9119  17.0244  17.0244  17.0244  17.0244
    17.9211  17.9211  17.9211  17.9211  19.5622  19.5622  19.5622  19.5623
    20.3119  20.3119

          k = 0.1634 0.1634 0.1634 ( 12749 PWs)   bands (ev):

   -70.3878 -70.3438 -70.3438 -70.3438 -70.3291 -70.3291 -70.3291 -70.3223
   -70.3211 -70.3211 -70.3211 -70.3198 -70.3143 -70.3143 -70.3143 -70.2781
   -36.5689 -36.5688 -36.5688 -36.5527 -36.5527 -36.5527 -36.4803 -36.4803
   -36.4750 -36.4705 -36.4705 -36.4704 -36.4443 -36.4352 -36.4352 -36.4081
   -36.4081 -36.4081 -36.3788 -36.3788 -36.3788 -36.3498 -36.3498 -36.3498
   -36.3398 -36.3398 -36.3307 -36.3307 -36.3307 -36.3287 -36.3287 -36.3287
   -36.3066 -36.3066 -36.3066 -36.2994 -36.2695 -36.2695 -36.2695 -36.2493
   -36.2286 -36.2286 -36.2286 -36.2137 -36.2137 -36.2137 -36.2119 -36.2119
     9.7330  12.4505  12.4505  12.4506  12.9506  12.9506  12.9506  13.1195
    13.1195  13.1212  13.1212  13.1212  13.5795  13.5795  13.5796  14.1454
    14.2503  14.2504  14.2504  14.3959  14.3959  14.4608  14.4608  14.4608
    14.5527  14.5527  14.5527  14.7174  14.7184  14.7184  14.9837  14.9837
    14.9837  15.3746  15.3746  15.4096  15.4096  15.4096  15.7209  15.7511
    15.7511  15.7511  15.8787  15.8788  15.8788  15.9211  15.9211  15.9211
    16.2630  16.2630  16.2630  16.4746  16.4746  16.4746  16.5214  16.5214
    16.5530  16.5530  16.5531  16.7054  16.7054  16.7054  16.7289  16.7289
    16.7289  16.7630  16.7630  16.7647  16.7647  16.7648  16.7870  16.7870
    17.2122  17.2153  17.2153  17.2153  17.2433  17.2433  17.2433  17.6637
    17.6637  17.6637  17.7063  17.7063  18.5029  18.5029  18.5029  19.1120
    19.1120  19.1121

          k = 0.1634 0.1634 0.2723 ( 12760 PWs)   bands (ev):

   -70.3839 -70.3536 -70.3424 -70.3424 -70.3321 -70.3321 -70.3283 -70.3234
   -70.3209 -70.3198 -70.3192 -70.3191 -70.3147 -70.3147 -70.3055 -70.2810
   -36.5614 -36.5614 -36.5574 -36.5447 -36.5351 -36.5351 -36.4896 -36.4890
   -36.4890 -36.4875 -36.4823 -36.4718 -36.4658 -36.4321 -36.4321 -36.4290
   -36.4203 -36.4019 -36.3803 -36.3793 -36.3793 -36.3598 -36.3578 -36.3577
   -36.3518 -36.3454 -36.3326 -36.3228 -36.3228 -36.3102 -36.3102 -36.3101
   -36.3088 -36.3088 -36.2846 -36.2828 -36.2697 -36.2548 -36.2548 -36.2519
   -36.2402 -36.2402 -36.2343 -36.2239 -36.2200 -36.2153 -36.2153 -36.2122
     9.9751  11.8802  12.5746  12.5747  12.9288  12.9288  13.1286  13.2154
    13.2230  13.2303  13.2303  13.2781  13.6239  13.6239  13.6588  13.9921
    14.0741  14.2750  14.2838  14.2839  14.3637  14.4355  14.5066  14.5245
    14.5245  14.5710  14.6710  14.6710  14.7991  14.8991  14.8991  14.9068
    15.1452  15.2618  15.2619  15.3131  15.3254  15.3565  15.5148  15.5148
    15.5394  15.5394  15.7645  15.8484  15.9170  15.9486  16.0459  16.0459
    16.0776  16.0776  16.1311  16.3037  16.3037  16.4391  16.4801  16.4893
    16.4894  16.5295  16.5695  16.5980  16.6399  16.6399  16.6636  16.7337
    16.7475  16.7582  16.7778  16.8112  16.8443  16.8443  16.8719  16.8719
    16.9520  16.9870  17.3116  17.3116  17.3346  17.3391  17.3392  17.3813
    17.5166  17.7225  17.7225  17.7406  18.2154  18.2154  19.1218  19.3249
    19.3249  19.9861

          k = 0.1634 0.1634 0.3813 ( 12743 PWs)   bands (ev):

   -70.3783 -70.3628 -70.3404 -70.3404 -70.3350 -70.3350 -70.3273 -70.3247
   -70.3206 -70.3199 -70.3175 -70.3175 -70.3153 -70.3153 -70.2976 -70.2853
   -36.5480 -36.5480 -36.5407 -36.5335 -36.5129 -36.5129 -36.5100 -36.5100
   -36.5050 -36.4943 -36.4918 -36.4895 -36.4594 -36.4593 -36.4591 -36.4235
   -36.4118 -36.4047 -36.3764 -36.3764 -36.3731 -36.3728 -36.3649 -36.3649
   -36.3510 -36.3460 -36.3383 -36.3179 -36.3179 -36.3110 -36.3110 -36.2938
   -36.2898 -36.2898 -36.2831 -36.2672 -36.2642 -36.2544 -36.2544 -36.2424
   -36.2407 -36.2407 -36.2395 -36.2371 -36.2315 -36.2203 -36.2203 -36.2164
    10.3285  11.3076  12.7152  12.7152  12.8968  12.8968  13.3557  13.3585
    13.3585  13.3587  13.3782  13.4924  13.5927  13.5927  13.6170  13.7509
    13.9461  13.9938  14.3599  14.4044  14.4370  14.4370  14.4536  14.4570
    14.6285  14.6285  14.7971  14.7971  14.8514  14.8514  15.0380  15.1272
    15.1507  15.1507  15.1731  15.1731  15.2427  15.2708  15.2724  15.3176
    15.3176  15.3315  15.5802  15.5802  15.5865  15.7216  15.9969  16.0483
    16.1327  16.2600  16.2600  16.3233  16.3367  16.3367  16.3437  16.4288
    16.4288  16.5553  16.5553  16.6373  16.6531  16.6704  16.6742  16.7262
    16.7310  16.7398  16.7508  16.7524  16.8302  16.8571  16.9187  16.9188
    16.9554  16.9554  17.0929  17.2714  17.4753  17.4753  17.4806  17.4806
    17.5273  17.6955  17.6955  17.7168  17.9559  17.9559  19.5824  19.5824
    19.7727  19.9959

          k = 0.1634 0.1634-0.4902 ( 12740 PWs)   bands (ev):

   -70.3713 -70.3711 -70.3380 -70.3380 -70.3378 -70.3377 -70.3261 -70.3259
   -70.3203 -70.3200 -70.3164 -70.3164 -70.3162 -70.3161 -70.2910 -70.2907
   -36.5304 -36.5304 -36.5304 -36.5304 -36.5200 -36.5198 -36.5196 -36.5194
   -36.4926 -36.4925 -36.4870 -36.4870 -36.4870 -36.4870 -36.4429 -36.4427
   -36.3928 -36.3928 -36.3885 -36.3883 -36.3715 -36.3715 -36.3714 -36.3713
   -36.3435 -36.3432 -36.3217 -36.3216 -36.3142 -36.3142 -36.3140 -36.3140
   -36.2711 -36.2711 -36.2711 -36.2710 -36.2594 -36.2592 -36.2533 -36.2532
   -36.2465 -36.2463 -36.2290 -36.2290 -36.2289 -36.2289 -36.2250 -36.2250
    10.7796  10.7798  12.8295  12.8296  12.8296  12.8296  13.4892  13.4892
    13.4892  13.4892  13.5018  13.5019  13.5362  13.5363  13.6774  13.6776
    13.7332  13.7334  14.3762  14.3764  14.4266  14.4267  14.6902  14.6903
    14.6904  14.6904  14.7554  14.7554  14.7554  14.7555  15.1250  15.1250
    15.1250  15.1250  15.2525  15.2526  15.2526  15.2526  15.2553  15.2553
    15.2970  15.2972  15.3514  15.3515  15.3630  15.3631  16.1628  16.1629
    16.1854  16.1854  16.3770  16.3770  16.3770  16.3771  16.3902  16.3903
    16.4262  16.4263  16.4263  16.4263  16.6997  16.6999  16.7073  16.7075
    16.7219  16.7221  16.7462  16.7463  16.9423  16.9423  16.9591  16.9591
    16.9592  16.9592  17.0009  17.0012  17.6076  17.6076  17.6076  17.6076
    17.6425  17.6426  17.7056  17.7056  17.7056  17.7056  19.8297  19.8297
    19.8298  19.8298

          k = 0.1634 0.2723 0.2723 ( 12740 PWs)   bands (ev):

   -70.3802 -70.3516 -70.3516 -70.3410 -70.3366 -70.3311 -70.3311 -70.3250
   -70.3193 -70.3190 -70.3189 -70.3156 -70.3150 -70.3065 -70.3065 -70.2837
   -36.5574 -36.5505 -36.5505 -36.5300 -36.5300 -36.5148 -36.4983 -36.4983
   -36.4980 -36.4978 -36.4918 -36.4721 -36.4693 -36.4481 -36.4277 -36.4112
   -36.4050 -36.4050 -36.4022 -36.4021 -36.3858 -36.3696 -36.3695 -36.3695
   -36.3357 -36.3307 -36.3307 -36.3261 -36.3261 -36.3128 -36.3109 -36.2994
   -36.2941 -36.2913 -36.2869 -36.2868 -36.2706 -36.2541 -36.2471 -36.2417
   -36.2417 -36.2401 -36.2401 -36.2249 -36.2249 -36.2247 -36.2133 -36.2123
    10.2119  12.0432  12.0433  12.7144  12.8178  13.1147  13.1147  13.3023
    13.3309  13.3495  13.3847  13.3847  13.7082  13.7082  13.7200  14.0469
    14.0579  14.0579  14.2310  14.2532  14.4041  14.4921  14.4921  14.5672
    14.5932  14.5971  14.5971  14.6938  14.7864  14.8057  14.8715  15.0278
    15.0278  15.1923  15.1985  15.1994  15.1994  15.2406  15.3106  15.3839
    15.4356  15.4356  15.6718  15.6718  15.7549  15.7549  15.8190  16.0035
    16.1020  16.1020  16.1567  16.3839  16.4316  16.4471  16.4791  16.4791
    16.5507  16.5532  16.5533  16.6095  16.6230  16.6231  16.6713  16.7005
    16.7277  16.7370  16.7370  16.7539  16.7769  16.7769  16.7814  16.8390
    16.9152  16.9915  16.9915  17.3295  17.4200  17.4282  17.4282  17.4898
    17.4899  17.5180  17.7342  17.7970  17.9013  18.7514  18.7514  19.5963
    20.3913  20.3914

          k = 0.1634 0.2723 0.3813 ( 12729 PWs)   bands (ev):

   -70.3749 -70.3603 -70.3487 -70.3411 -70.3391 -70.3340 -70.3299 -70.3267
   -70.3191 -70.3188 -70.3176 -70.3156 -70.3125 -70.3079 -70.2991 -70.2876
   -36.5479 -36.5392 -36.5349 -36.5230 -36.5163 -36.5113 -36.5104 -36.5063
   -36.5025 -36.4984 -36.4931 -36.4904 -36.4683 -36.4581 -36.4334 -36.4234
   -36.4171 -36.3977 -36.3921 -36.3874 -36.3847 -36.3804 -36.3781 -36.3759
   -36.3512 -36.3348 -36.3303 -36.3209 -36.3173 -36.3138 -36.3092 -36.3041
   -36.2909 -36.2783 -36.2780 -36.2705 -36.2670 -36.2600 -36.2519 -36.2451
   -36.2392 -36.2389 -36.2352 -36.2287 -36.2280 -36.2277 -36.2151 -36.2139
    10.5564  11.5006  12.2553  12.6707  12.8767  13.0858  13.3756  13.4207
    13.4732  13.4799  13.5124  13.5922  13.6709  13.6780  13.7370  13.8456
    13.9807  14.0046  14.2469  14.3379  14.3977  14.4527  14.4961  14.5177
    14.5779  14.6517  14.6624  14.7193  14.8371  14.8377  14.9063  14.9910
    15.0046  15.0961  15.1030  15.1389  15.1486  15.1714  15.1883  15.2210
    15.2705  15.3125  15.3734  15.4183  15.4275  15.4729  15.8599  16.1758
    16.1786  16.2708  16.2885  16.3792  16.3801  16.4003  16.4376  16.4377
    16.5113  16.5392  16.5434  16.5682  16.6014  16.6289  16.6359  16.6988
    16.6996  16.7297  16.7541  16.7543  16.7601  16.7984  16.8229  16.8401
    16.9005  16.9149  17.1243  17.1835  17.2006  17.3598  17.4441  17.6131
    17.6182  17.6288  17.7379  17.7927  17.7949  18.4173  19.3244  19.9204
    20.4957  20.5227

          k = 0.1634 0.2723-0.4902 ( 12748 PWs)   bands (ev):

   -70.3683 -70.3681 -70.3453 -70.3451 -70.3368 -70.3366 -70.3285 -70.3283
   -70.3190 -70.3187 -70.3165 -70.3163 -70.3101 -70.3098 -70.2929 -70.2927
   -36.5337 -36.5337 -36.5252 -36.5251 -36.5155 -36.5153 -36.5149 -36.5148
   -36.5025 -36.5024 -36.4902 -36.4902 -36.4627 -36.4626 -36.4426 -36.4424
   -36.4014 -36.4013 -36.3903 -36.3901 -36.3846 -36.3845 -36.3719 -36.3718
   -36.3462 -36.3462 -36.3335 -36.3333 -36.3171 -36.3170 -36.2969 -36.2967
   -36.2890 -36.2890 -36.2640 -36.2640 -36.2572 -36.2570 -36.2512 -36.2511
   -36.2497 -36.2495 -36.2326 -36.2326 -36.2204 -36.2204 -36.2192 -36.2192
    10.9935  10.9937  12.4774  12.4775  13.0106  13.0107  13.5562  13.5563
    13.5889  13.5889  13.6436  13.6436  13.6535  13.6536  13.6867  13.6869
    13.8145  13.8147  14.4164  14.4165  14.4667  14.4668  14.5251  14.5252
    14.5445  14.5447  14.6648  14.6649  14.7703  14.7704  15.0937  15.0938
    15.1013  15.1014  15.1260  15.1260  15.1330  15.1331  15.1559  15.1559
    15.1986  15.1986  15.2262  15.2264  15.2280  15.2280  16.1020  16.1021
    16.2760  16.2760  16.3719  16.3720  16.4032  16.4033  16.4226  16.4226
    16.4269  16.4269  16.4748  16.4748  16.6656  16.6657  16.6849  16.6850
    16.7002  16.7004  16.7555  16.7555  16.7879  16.7879  16.8876  16.8876
    16.9479  16.9482  17.0102  17.0103  17.3676  17.3677  17.4103  17.4103
    17.6981  17.6982  17.7274  17.7274  18.1000  18.1000  19.9161  19.9161
    20.2423  20.2424

          k = 0.1634 0.3813 0.3813 ( 12737 PWs)   bands (ev):

   -70.3700 -70.3567 -70.3567 -70.3469 -70.3372 -70.3325 -70.3325 -70.3287
   -70.3183 -70.3176 -70.3176 -70.3160 -70.3081 -70.3014 -70.3014 -70.2911
   -36.5422 -36.5269 -36.5269 -36.5176 -36.5176 -36.5132 -36.5097 -36.5097
   -36.5073 -36.5072 -36.4998 -36.4806 -36.4640 -36.4489 -36.4178 -36.4174
   -36.4174 -36.4047 -36.4047 -36.3956 -36.3951 -36.3936 -36.3936 -36.3713
   -36.3450 -36.3300 -36.3296 -36.3296 -36.3245 -36.3245 -36.3166 -36.2919
   -36.2886 -36.2728 -36.2728 -36.2671 -36.2661 -36.2541 -36.2503 -36.2503
   -36.2441 -36.2385 -36.2385 -36.2382 -36.2200 -36.2200 -36.2132 -36.2127
    10.8854  11.7674  11.7675  12.3917  13.0749  13.3470  13.3470  13.5064
    13.5664  13.6474  13.6683  13.6683  13.7154  13.7154  13.8672  13.8969
    14.0017  14.0467  14.0467  14.2835  14.4364  14.4612  14.5181  14.5181
    14.5288  14.5288  14.5877  14.6233  14.7144  14.7659  14.9415  14.9441
    14.9441  15.0170  15.0708  15.0859  15.0859  15.1160  15.1275  15.1276
    15.1417  15.1498  15.1498  15.2209  15.3006  15.5929  15.5929  16.0880
    16.3139  16.3139  16.3690  16.3755  16.4190  16.4195  16.5139  16.5223
    16.5647  16.5647  16.5867  16.5975  16.5975  16.6043  16.6043  16.6562
    16.6641  16.7201  16.7201  16.7374  16.7669  16.8038  16.8038  16.8483
    16.8483  16.8815  16.9586  17.0171  17.2230  17.2230  17.2757  17.3532
    17.7152  17.7152  17.7696  17.8217  18.1520  18.9147  18.9148  19.9646
    20.3194  21.0800

          k = 0.1634 0.3813-0.4902 ( 12712 PWs)   bands (ev):

   -70.3640 -70.3638 -70.3523 -70.3520 -70.3351 -70.3349 -70.3308 -70.3306
   -70.3179 -70.3177 -70.3168 -70.3165 -70.3045 -70.3043 -70.2958 -70.2956
   -36.5315 -36.5315 -36.5189 -36.5188 -36.5142 -36.5141 -36.5127 -36.5125
   -36.5084 -36.5083 -36.4951 -36.4951 -36.4350 -36.4348 -36.4347 -36.4347
   -36.4081 -36.4080 -36.4076 -36.4075 -36.3975 -36.3975 -36.3749 -36.3748
   -36.3503 -36.3503 -36.3272 -36.3271 -36.3200 -36.3200 -36.3085 -36.3085
   -36.2813 -36.2811 -36.2577 -36.2576 -36.2572 -36.2570 -36.2517 -36.2516
   -36.2509 -36.2508 -36.2379 -36.2379 -36.2147 -36.2147 -36.2145 -36.2144
    11.2980  11.2981  12.0778  12.0780  13.2491  13.2491  13.5981  13.5982
    13.6324  13.6324  13.6432  13.6433  13.8366  13.8366  13.8424  13.8425
    13.9131  13.9132  14.3048  14.3049  14.4013  14.4014  14.4416  14.4417
    14.4662  14.4663  14.5719  14.5720  14.8136  14.8137  14.9012  14.9013
    14.9873  14.9874  14.9944  14.9944  15.0015  15.0016  15.0387  15.0387
    15.1786  15.1787  15.1818  15.1818  15.3497  15.3497  15.8181  15.8182
    16.3742  16.3742  16.4363  16.4363  16.4703  16.4704  16.4902  16.4904
    16.5742  16.5742  16.6004  16.6005  16.6079  16.6080  16.6428  16.6430
    16.6816  16.6817  16.6856  16.6857  16.7828  16.7829  16.8005  16.8007
    16.8455  16.8456  17.0609  17.0610  17.0931  17.0931  17.2401  17.2401
    17.7661  17.7662  17.7922  17.7922  18.5267  18.5267  19.4314  19.4314
    20.7264  20.7265

          k = 0.1634-0.4902-0.4902 ( 12744 PWs)   bands (ev):

   -70.3587 -70.3585 -70.3585 -70.3582 -70.3332 -70.3330 -70.3330 -70.3328
   -70.3174 -70.3172 -70.3172 -70.3169 -70.2998 -70.2996 -70.2996 -70.2994
   -36.5247 -36.5247 -36.5247 -36.5247 -36.5142 -36.5142 -36.5142 -36.5140
   -36.5015 -36.5015 -36.5015 -36.5014 -36.4229 -36.4227 -36.4227 -36.4225
   -36.4068 -36.4067 -36.4067 -36.4067 -36.4049 -36.4049 -36.4048 -36.4048
   -36.3291 -36.3291 -36.3291 -36.3291 -36.3232 -36.3232 -36.3232 -36.3232
   -36.2680 -36.2679 -36.2679 -36.2677 -36.2533 -36.2532 -36.2532 -36.2531
   -36.2450 -36.2449 -36.2449 -36.2448 -36.2129 -36.2128 -36.2128 -36.2128
    11.6705  11.6706  11.6706  11.6708  13.4879  13.4880  13.4880  13.4881
    13.6295  13.6295  13.6295  13.6296  13.9620  13.9620  13.9620  13.9620
    14.0676  14.0677  14.0677  14.0678  14.3529  14.3529  14.3529  14.3530
    14.5065  14.5066  14.5066  14.5066  14.8773  14.8774  14.8774  14.8776
    14.8883  14.8883  14.8883  14.8883  14.9849  14.9849  14.9849  14.9850
    15.1606  15.1607  15.1607  15.1608  15.5610  15.5610  15.5610  15.5611
    16.4389  16.4389  16.4390  16.4390  16.5378  16.5379  16.5379  16.5380
    16.6252  16.6253  16.6253  16.6254  16.6318  16.6319  16.6319  16.6321
    16.6476  16.6477  16.6477  16.6477  16.8130  16.8131  16.8131  16.8132
    16.8426  16.8426  16.8426  16.8426  17.1258  17.1258  17.1258  17.1259
    17.8035  17.8035  17.8035  17.8035  18.9713  18.9713  18.9713  18.9713
    21.2298  21.2299

          k = 0.2723 0.2723 0.2723 ( 12749 PWs)   bands (ev):

   -70.3768 -70.3497 -70.3497 -70.3497 -70.3355 -70.3355 -70.3355 -70.3273
   -70.3180 -70.3157 -70.3157 -70.3157 -70.3074 -70.3074 -70.3074 -70.2861
   -36.5464 -36.5463 -36.5463 -36.5129 -36.5129 -36.5129 -36.5041 -36.5041
   -36.5041 -36.5022 -36.4828 -36.4828 -36.4574 -36.4574 -36.4230 -36.4230
   -36.4230 -36.4101 -36.4101 -36.4101 -36.3922 -36.3837 -36.3837 -36.3837
   -36.3141 -36.3141 -36.3141 -36.3128 -36.3127 -36.3127 -36.3127 -36.3070
   -36.3070 -36.2877 -36.2877 -36.2877 -36.2623 -36.2519 -36.2519 -36.2519
   -36.2357 -36.2357 -36.2357 -36.2236 -36.2236 -36.2236 -36.2206 -36.2206
    10.4446  12.2150  12.2150  12.2151  13.0164  13.0164  13.0165  13.4125
    13.4125  13.5014  13.5014  13.5015  13.8272  13.8272  13.8272  14.0520
    14.0521  14.0521  14.0581  14.3810  14.3984  14.3984  14.5340  14.5340
    14.5340  14.6980  14.6980  14.6980  14.7070  14.7070  14.9121  14.9121
    14.9121  15.1095  15.1095  15.1096  15.1451  15.1452  15.1452  15.2050
    15.2050  15.4489  15.4489  15.4489  15.5051  15.5051  15.5051  16.1777
    16.1895  16.1895  16.1895  16.3741  16.4994  16.4994  16.5283  16.5283
    16.5283  16.5683  16.5683  16.5683  16.6019  16.6019  16.6019  16.7052
    16.7052  16.7052  16.7239  16.7239  16.8153  16.8153  16.8153  16.8373
    16.8373  17.1465  17.1465  17.1465  17.4612  17.4612  17.4613  17.5291
    17.5291  17.5291  17.5456  17.5456  18.3576  18.3576  18.3577  20.5202
    20.6705  20.6705

          k = 0.2723 0.2723 0.3813 ( 12747 PWs)   bands (ev):

   -70.3718 -70.3579 -70.3470 -70.3470 -70.3397 -70.3397 -70.3339 -70.3296
   -70.3170 -70.3160 -70.3129 -70.3129 -70.3087 -70.3087 -70.3005 -70.2898
   -36.5377 -36.5376 -36.5304 -36.5139 -36.5139 -36.5105 -36.5051 -36.5051
   -36.4939 -36.4923 -36.4922 -36.4849 -36.4695 -36.4451 -36.4451 -36.4400
   -36.4325 -36.4114 -36.4114 -36.4019 -36.3964 -36.3964 -36.3952 -36.3723
   -36.3386 -36.3322 -36.3155 -36.3124 -36.3043 -36.3043 -36.2949 -36.2948
   -36.2910 -36.2910 -36.2807 -36.2665 -36.2640 -36.2640 -36.2557 -36.2507
   -36.2385 -36.2327 -36.2308 -36.2308 -36.2269 -36.2243 -36.2243 -36.2192
    10.7818  11.6975  12.4399  12.4399  12.8746  12.8746  13.2983  13.5311
    13.5558  13.6268  13.6268  13.7050  13.8106  13.8379  13.8379  13.8583
    14.0190  14.0456  14.1945  14.1945  14.4161  14.4922  14.5428  14.5823
    14.6078  14.6101  14.6101  14.7300  14.7300  14.8113  14.8113  14.8325
    14.9285  14.9286  15.0116  15.0272  15.0272  15.0631  15.0648  15.1191
    15.1545  15.1759  15.2234  15.2234  15.2347  15.2347  15.5872  16.0764
    16.2580  16.3128  16.3129  16.3755  16.4275  16.5281  16.5281  16.5402
    16.5402  16.5711  16.5813  16.5813  16.6225  16.6354  16.6910  16.7109
    16.7205  16.7222  16.7222  16.7244  16.7941  16.8016  16.8050  16.8050
    16.8560  16.9309  17.2761  17.3056  17.4117  17.4117  17.4819  17.4819
    17.5549  17.5549  17.5596  17.6094  18.0208  18.0208  18.8629  19.9408
    21.0017  21.0017

          k = 0.2723 0.2723-0.4902 ( 12732 PWs)   bands (ev):

   -70.3655 -70.3653 -70.3437 -70.3437 -70.3435 -70.3435 -70.3320 -70.3317
   -70.3165 -70.3163 -70.3106 -70.3106 -70.3104 -70.3104 -70.2947 -70.2945
   -36.5259 -36.5259 -36.5259 -36.5259 -36.5098 -36.5096 -36.5079 -36.5078
   -36.5019 -36.5018 -36.4690 -36.4689 -36.4689 -36.4689 -36.4528 -36.4526
   -36.4210 -36.4208 -36.4063 -36.4063 -36.4062 -36.4061 -36.3667 -36.3666
   -36.3520 -36.3520 -36.3151 -36.3149 -36.2964 -36.2964 -36.2963 -36.2963
   -36.2784 -36.2784 -36.2784 -36.2784 -36.2578 -36.2576 -36.2518 -36.2517
   -36.2481 -36.2479 -36.2268 -36.2268 -36.2268 -36.2268 -36.2214 -36.2214
    11.2076  11.2078  12.6752  12.6752  12.6753  12.6753  13.6426  13.6428
    13.6818  13.6818  13.7028  13.7029  13.7470  13.7470  13.7470  13.7470
    13.9167  13.9169  14.4498  14.4500  14.4623  14.4624  14.4625  14.4625
    14.5042  14.5043  14.7094  14.7094  14.7095  14.7095  14.8713  14.8714
    14.9559  14.9559  15.0463  15.0463  15.0463  15.0464  15.0505  15.0505
    15.0506  15.0506  15.0690  15.0691  15.0907  15.0909  15.8045  15.8046
    16.3429  16.3429  16.4372  16.4372  16.4372  16.4372  16.5526  16.5527
    16.5527  16.5527  16.5872  16.5872  16.6556  16.6558  16.6601  16.6603
    16.7162  16.7163  16.7317  16.7319  16.7665  16.7665  16.7666  16.7666
    17.0460  17.0462  17.0745  17.0746  17.5282  17.5282  17.5282  17.5282
    17.6120  17.6121  17.7088  17.7088  17.7088  17.7088  19.3919  19.3920
    21.2999  21.2999

          k = 0.2723 0.3813 0.3813 ( 12752 PWs)   bands (ev):

   -70.3672 -70.3545 -70.3545 -70.3452 -70.3445 -70.3378 -70.3378 -70.3325
   -70.3155 -70.3135 -70.3135 -70.3099 -70.3088 -70.3025 -70.3025 -70.2930
   -36.5316 -36.5230 -36.5230 -36.5132 -36.5121 -36.5121 -36.5020 -36.4976
   -36.4950 -36.4950 -36.4884 -36.4693 -36.4669 -36.4604 -36.4462 -36.4334
   -36.4334 -36.4211 -36.4189 -36.4188 -36.4152 -36.4152 -36.4131 -36.3641
   -36.3519 -36.3129 -36.3128 -36.3040 -36.3040 -36.3025 -36.2921 -36.2897
   -36.2809 -36.2784 -36.2718 -36.2704 -36.2704 -36.2585 -36.2584 -36.2539
   -36.2388 -36.2376 -36.2376 -36.2333 -36.2251 -36.2251 -36.2227 -36.2214
    11.1065  11.9698  11.9699  12.6021  12.6856  13.1621  13.1622  13.6313
    13.7078  13.7215  13.8231  13.8231  13.8336  13.8336  13.8408  14.0188
    14.0484  14.0484  14.1115  14.1537  14.4635  14.4926  14.5527  14.5578
    14.5578  14.5819  14.5819  14.5822  14.6731  14.7177  14.7551  14.8649
    14.8650  14.8845  14.8845  14.9137  14.9310  14.9558  14.9558  14.9980
    14.9980  15.0248  15.0536  15.0715  15.0842  15.3273  15.3273  15.7793
    16.3619  16.3619  16.3929  16.4588  16.5294  16.5617  16.5691  16.5691
    16.5866  16.5998  16.6578  16.6598  16.6598  16.6660  16.6715  16.7105
    16.7105  16.7133  16.7187  16.7187  16.7718  16.7719  16.7800  16.8238
    16.9822  17.1060  17.1060  17.2074  17.3159  17.3159  17.3756  17.5606
    17.5607  17.5791  17.5989  17.6910  17.7421  18.4624  18.4624  19.4180
    21.4010  22.0238

          k = 0.2723 0.3813-0.4902 ( 12734 PWs)   bands (ev):

   -70.3614 -70.3612 -70.3503 -70.3500 -70.3415 -70.3412 -70.3354 -70.3352
   -70.3144 -70.3142 -70.3115 -70.3113 -70.3054 -70.3052 -70.2974 -70.2972
   -36.5221 -36.5221 -36.5163 -36.5162 -36.5061 -36.5061 -36.5053 -36.5051
   -36.4984 -36.4983 -36.4777 -36.4777 -36.4527 -36.4525 -36.4442 -36.4442
   -36.4334 -36.4333 -36.4261 -36.4260 -36.4224 -36.4223 -36.3913 -36.3913
   -36.3321 -36.3321 -36.3027 -36.3026 -36.2964 -36.2963 -36.2948 -36.2947
   -36.2780 -36.2779 -36.2685 -36.2684 -36.2549 -36.2548 -36.2543 -36.2542
   -36.2528 -36.2526 -36.2359 -36.2359 -36.2233 -36.2233 -36.2221 -36.2221
    11.5120  11.5121  12.2861  12.2862  12.9464  12.9465  13.5049  13.5051
    13.7355  13.7355  13.7876  13.7876  13.8836  13.8837  13.9609  13.9609
    14.0431  14.0432  14.3078  14.3079  14.3630  14.3631  14.4631  14.4631
    14.5057  14.5058  14.6365  14.6366  14.7156  14.7156  14.7655  14.7655
    14.8011  14.8011  14.8655  14.8657  14.9100  14.9100  14.9460  14.9460
    14.9944  14.9945  15.0274  15.0275  15.1025  15.1025  15.5180  15.5181
    16.4203  16.4203  16.4630  16.4631  16.4852  16.4852  16.6124  16.6125
    16.6239  16.6241  16.6757  16.6758  16.6798  16.6799  16.6862  16.6863
    16.7158  16.7159  16.7491  16.7492  16.7672  16.7673  16.8416  16.8416
    16.9922  16.9924  17.1169  17.1170  17.3315  17.3315  17.3908  17.3909
    17.5899  17.5900  17.5910  17.5911  18.0932  18.0932  18.9292  18.9292
    21.7889  21.7890

          k = 0.2723-0.4902-0.4902 ( 12744 PWs)   bands (ev):

   -70.3564 -70.3562 -70.3562 -70.3560 -70.3387 -70.3385 -70.3385 -70.3383
   -70.3129 -70.3127 -70.3127 -70.3124 -70.3012 -70.3009 -70.3009 -70.3007
   -36.5147 -36.5146 -36.5146 -36.5146 -36.5077 -36.5076 -36.5076 -36.5075
   -36.4878 -36.4878 -36.4878 -36.4877 -36.4425 -36.4424 -36.4424 -36.4422
   -36.4336 -36.4335 -36.4335 -36.4335 -36.4178 -36.4178 -36.4178 -36.4178
   -36.3129 -36.3128 -36.3128 -36.3128 -36.2974 -36.2974 -36.2974 -36.2973
   -36.2635 -36.2633 -36.2633 -36.2631 -36.2606 -36.2605 -36.2605 -36.2604
   -36.2460 -36.2459 -36.2459 -36.2458 -36.2221 -36.2221 -36.2221 -36.2221
    11.8832  11.8833  11.8833  11.8835  13.2484  13.2485  13.2485  13.2487
    13.7757  13.7757  13.7757  13.7758  14.0993  14.0994  14.0994  14.0995
    14.1372  14.1372  14.1372  14.1372  14.3021  14.3022  14.3022  14.3023
    14.5681  14.5681  14.5681  14.5681  14.7291  14.7292  14.7292  14.7293
    14.8146  14.8147  14.8147  14.8147  14.8412  14.8412  14.8412  14.8412
    14.9909  14.9910  14.9910  14.9910  15.2723  15.2723  15.2723  15.2724
    16.4727  16.4727  16.4727  16.4727  16.5491  16.5492  16.5492  16.5493
    16.6179  16.6180  16.6180  16.6181  16.7317  16.7317  16.7317  16.7318
    16.7642  16.7643  16.7643  16.7643  16.8407  16.8409  16.8409  16.8410
    17.1072  17.1072  17.1072  17.1072  17.1876  17.1877  17.1877  17.1878
    17.6037  17.6037  17.6037  17.6037  18.5007  18.5008  18.5008  18.5008
    22.2943  22.2944

          k = 0.3813 0.3813 0.3813 ( 12733 PWs)   bands (ev):

   -70.3629 -70.3513 -70.3513 -70.3513 -70.3428 -70.3427 -70.3427 -70.3363
   -70.3132 -70.3098 -70.3098 -70.3098 -70.3043 -70.3043 -70.3043 -70.2959
   -36.5160 -36.5160 -36.5160 -36.5077 -36.5077 -36.5077 -36.4947 -36.4836
   -36.4836 -36.4769 -36.4769 -36.4768 -36.4725 -36.4725 -36.4446 -36.4446
   -36.4446 -36.4370 -36.4370 -36.4369 -36.4333 -36.4333 -36.4333 -36.3871
   -36.3325 -36.2964 -36.2964 -36.2964 -36.2868 -36.2868 -36.2868 -36.2774
   -36.2774 -36.2699 -36.2699 -36.2699 -36.2688 -36.2688 -36.2688 -36.2561
   -36.2371 -36.2371 -36.2371 -36.2339 -36.2339 -36.2310 -36.2310 -36.2310
    11.4235  12.2509  12.2509  12.2510  12.8994  12.8994  12.8995  13.6096
    13.7942  13.7942  13.9359  13.9359  13.9359  14.0240  14.0241  14.0241
    14.0556  14.0556  14.0556  14.2439  14.5067  14.5067  14.5249  14.5249
    14.5711  14.5712  14.5712  14.6191  14.6191  14.6191  14.7071  14.7071
    14.7071  14.8057  14.8057  14.8057  14.8334  14.8334  14.8334  14.8638
    14.8638  14.8638  14.9623  14.9623  15.0716  15.0717  15.0717  15.4809
    16.4339  16.4339  16.4339  16.5257  16.5257  16.5644  16.5644  16.5644
    16.6620  16.6620  16.6668  16.6668  16.6668  16.6897  16.6897  16.6897
    16.7474  16.7474  16.7475  16.8493  16.8670  16.8670  16.8670  16.9554
    16.9554  17.3432  17.3432  17.3565  17.3565  17.3565  17.4098  17.4099
    17.4099  17.4256  17.4256  17.4256  18.0808  18.0808  18.0808  18.9384
    22.6142  22.6143

          k = 0.3813 0.3813-0.4902 ( 12762 PWs)   bands (ev):

   -70.3577 -70.3575 -70.3475 -70.3475 -70.3473 -70.3473 -70.3399 -70.3396
   -70.3114 -70.3112 -70.3069 -70.3069 -70.3067 -70.3067 -70.2998 -70.2996
   -36.5092 -36.5092 -36.5091 -36.5091 -36.4978 -36.4977 -36.4961 -36.4959
   -36.4858 -36.4857 -36.4660 -36.4658 -36.4570 -36.4570 -36.4570 -36.4570
   -36.4540 -36.4539 -36.4450 -36.4450 -36.4449 -36.4449 -36.4120 -36.4120
   -36.3138 -36.3137 -36.2827 -36.2825 -36.2816 -36.2815 -36.2815 -36.2815
   -36.2752 -36.2752 -36.2751 -36.2751 -36.2611 -36.2610 -36.2557 -36.2555
   -36.2503 -36.2501 -36.2355 -36.2355 -36.2355 -36.2355 -36.2314 -36.2313
    11.8156  11.8157  12.5776  12.5776  12.5777  12.5777  13.2550  13.2551
    13.9016  13.9017  13.9579  13.9580  14.0042  14.0042  14.0043  14.0043
    14.1775  14.1776  14.3027  14.3028  14.3029  14.3029  14.5082  14.5083
    14.5519  14.5520  14.5607  14.5608  14.6293  14.6294  14.7037  14.7037
    14.7038  14.7038  14.8068  14.8068  14.8069  14.8070  14.8551  14.8551
    14.8551  14.8552  14.8828  14.8829  14.8879  14.8881  15.2277  15.2278
    16.4810  16.4810  16.5109  16.5109  16.5109  16.5109  16.6042  16.6043
    16.6113  16.6114  16.6654  16.6654  16.6673  16.6673  16.6674  16.6674
    16.8410  16.8410  16.8411  16.8411  16.8751  16.8752  17.0969  17.0971
    17.1184  17.1185  17.1350  17.1351  17.3704  17.3705  17.3705  17.3705
    17.4161  17.4162  17.7352  17.7352  17.7352  17.7353  18.4975  18.4975
    22.9343  22.9344

          k = 0.3813-0.4902-0.4902 ( 12728 PWs)   bands (ev):

   -70.3530 -70.3528 -70.3528 -70.3526 -70.3440 -70.3438 -70.3438 -70.3436
   -70.3090 -70.3088 -70.3088 -70.3086 -70.3031 -70.3029 -70.3029 -70.3027
   -36.4999 -36.4998 -36.4998 -36.4998 -36.4966 -36.4965 -36.4965 -36.4963
   -36.4713 -36.4713 -36.4713 -36.4712 -36.4627 -36.4626 -36.4626 -36.4624
   -36.4586 -36.4586 -36.4586 -36.4586 -36.4344 -36.4344 -36.4344 -36.4343
   -36.2968 -36.2968 -36.2968 -36.2967 -36.2736 -36.2736 -36.2736 -36.2735
   -36.2702 -36.2702 -36.2702 -36.2701 -36.2578 -36.2577 -36.2577 -36.2575
   -36.2489 -36.2488 -36.2488 -36.2487 -36.2353 -36.2353 -36.2353 -36.2353
    12.1837  12.1838  12.1838  12.1840  12.9199  12.9200  12.9200  12.9201
    13.9758  13.9758  13.9758  13.9759  14.1428  14.1429  14.1429  14.1430
    14.2484  14.2485  14.2485  14.2486  14.2848  14.2849  14.2849  14.2849
    14.6363  14.6364  14.6364  14.6364  14.6472  14.6472  14.6472  14.6473
    14.6667  14.6669  14.6669  14.6670  14.7792  14.7792  14.7793  14.7793
    14.8273  14.8274  14.8274  14.8275  14.9838  14.9839  14.9839  14.9839
    16.5249  16.5249  16.5249  16.5250  16.5684  16.5685  16.5685  16.5686
    16.6058  16.6059  16.6059  16.6060  16.6583  16.6583  16.6583  16.6584
    16.9282  16.9283  16.9283  16.9283  17.0143  17.0144  17.0144  17.0145
    17.1926  17.1927  17.1927  17.1928  17.3678  17.3678  17.3679  17.3679
    17.4162  17.4163  17.4163  17.4163  18.1048  18.1049  18.1049  18.1049
    23.4523  23.4524

          k =-0.4902-0.4902-0.4902 ( 12712 PWs)   bands (ev):

   -70.3490 -70.3488 -70.3488 -70.3488 -70.3486 -70.3486 -70.3486 -70.3483
   -70.3058 -70.3056 -70.3056 -70.3056 -70.3054 -70.3054 -70.3054 -70.3051
   -36.4810 -36.4810 -36.4810 -36.4810 -36.4810 -36.4810 -36.4809 -36.4809
   -36.4807 -36.4807 -36.4807 -36.4807 -36.4807 -36.4806 -36.4806 -36.4806
   -36.4529 -36.4529 -36.4529 -36.4529 -36.4529 -36.4529 -36.4529 -36.4528
   -36.2822 -36.2822 -36.2822 -36.2822 -36.2821 -36.2821 -36.2821 -36.2820
   -36.2531 -36.2531 -36.2531 -36.2530 -36.2530 -36.2530 -36.2530 -36.2530
   -36.2528 -36.2528 -36.2528 -36.2528 -36.2528 -36.2527 -36.2527 -36.2527
    12.5444  12.5445  12.5445  12.5445  12.5446  12.5446  12.5446  12.5448
    14.1942  14.1942  14.1942  14.1942  14.1942  14.1943  14.1943  14.1943
    14.1943  14.1943  14.1943  14.1943  14.1943  14.1943  14.1944  14.1944
    14.7081  14.7081  14.7081  14.7081  14.7081  14.7081  14.7081  14.7081
    14.7083  14.7083  14.7083  14.7083  14.7083  14.7084  14.7084  14.7084
    14.7318  14.7319  14.7319  14.7319  14.7320  14.7320  14.7320  14.7320
    16.5886  16.5886  16.5886  16.5886  16.5886  16.5887  16.5887  16.5887
    16.5887  16.5887  16.5887  16.5888  16.5888  16.5888  16.5889  16.5889
    17.1343  17.1343  17.1343  17.1343  17.1343  17.1343  17.1343  17.1343
    17.1345  17.1345  17.1345  17.1345  17.1345  17.1346  17.1346  17.1346
    17.7489  17.7489  17.7489  17.7489  17.7490  17.7490  17.7490  17.7490
    24.5710  24.5710

 ------ SPIN DOWN ----------


          k = 0.0545 0.0545 0.0545 ( 12776 PWs)   bands (ev):

   -67.7888 -67.7245 -67.7245 -67.7245 -67.7144 -67.7143 -67.7143 -67.7133
   -67.7133 -67.7133 -67.7129 -67.7129 -67.7128 -67.7088 -67.7084 -67.6580
   -34.0625 -34.0625 -34.0625 -34.0604 -34.0604 -34.0604 -33.9463 -33.9463
   -33.9420 -33.8870 -33.8843 -33.8843 -33.8843 -33.8688 -33.8688 -33.8593
   -33.8593 -33.8593 -33.8325 -33.8325 -33.8151 -33.8062 -33.8062 -33.8062
   -33.7973 -33.7973 -33.7973 -33.7890 -33.7890 -33.7889 -33.7866 -33.7866
   -33.7866 -33.7802 -33.7802 -33.7802 -33.7717 -33.7717 -33.7717 -33.6524
   -33.6514 -33.6514 -33.6513 -33.6491 -33.6491 -33.6491 -33.6479 -33.6479
     9.4904  13.3052  13.3052  13.3053  13.9485  13.9485  13.9486  14.0984
    14.0984  14.0984  14.1408  14.1408  14.1409  14.8221  14.8221  15.7590
    15.8270  15.8270  15.9105  15.9105  15.9180  16.0455  16.0455  16.0455
    16.0574  16.0574  16.0574  16.7691  16.7692  16.7692  17.1210  17.1210
    17.1210  17.2730  17.2730  17.3160  17.5136  17.5136  17.5136  17.6566
    17.6566  17.6566  17.6828  17.6828  17.6828  17.7829  17.7829  17.7829
    18.0546  18.0547  18.0547  18.0847  18.0847  18.0848  18.5081  18.5081
    18.5082  18.7355  18.7355  18.7356  19.1859  19.1859  19.1859  19.2087
    19.2087  19.2087  19.3762  19.3762  19.6282  19.6283  19.6283  19.6696
    19.6696  19.6705  19.6705  19.7496  19.7496  19.7496  19.8126  19.8887
    19.8887  20.1229  20.1229  20.1229  20.2228  20.2228  20.2228  20.2648
    20.2648  20.2648

          k = 0.0545 0.0545 0.1634 ( 12783 PWs)   bands (ev):

   -67.7865 -67.7360 -67.7241 -67.7241 -67.7156 -67.7155 -67.7140 -67.7130
   -67.7129 -67.7127 -67.7125 -67.7125 -67.7092 -67.7088 -67.7020 -67.6599
   -34.0569 -34.0569 -34.0559 -34.0540 -34.0500 -34.0500 -33.9492 -33.9418
   -33.9351 -33.9137 -33.9073 -33.9073 -33.9054 -33.9051 -33.8832 -33.8832
   -33.8578 -33.8378 -33.8325 -33.8299 -33.8231 -33.8059 -33.8059 -33.7975
   -33.7925 -33.7915 -33.7915 -33.7901 -33.7879 -33.7847 -33.7847 -33.7804
   -33.7804 -33.7765 -33.7765 -33.7543 -33.7519 -33.7518 -33.7469 -33.6632
   -33.6578 -33.6578 -33.6567 -33.6551 -33.6522 -33.6513 -33.6513 -33.6496
     9.6165  12.6107  13.3763  13.3763  14.0069  14.0070  14.0603  14.0603
    14.1905  14.1913  14.1913  14.2316  14.4753  14.8632  14.8845  15.6709
    15.7347  15.7886  15.8473  16.0162  16.0221  16.0331  16.0442  16.0915
    16.0915  16.1273  16.1273  16.3966  16.6713  16.6713  16.9444  16.9445
    17.2484  17.2666  17.3085  17.3251  17.3251  17.3723  17.3861  17.4840
    17.4840  17.7395  17.7421  17.7422  17.7924  17.7924  17.8151  17.8233
    17.8907  17.8907  17.8934  17.9342  17.9342  17.9875  18.2861  18.7116
    18.7116  18.9344  18.9344  18.9610  19.1128  19.1128  19.1759  19.1759
    19.2110  19.2307  19.3047  19.4044  19.6310  19.6327  19.6354  19.6429
    19.6661  19.6685  19.6857  19.7045  19.7045  19.7506  19.8825  19.9524
    19.9614  19.9614  20.1222  20.1222  20.1424  20.1424  20.3014  20.3014
    20.4121  20.4121

          k = 0.0545 0.0545 0.2723 ( 12757 PWs)   bands (ev):

   -67.7822 -67.7473 -67.7231 -67.7231 -67.7170 -67.7170 -67.7134 -67.7126
   -67.7126 -67.7123 -67.7121 -67.7120 -67.7097 -67.7092 -67.6918 -67.6632
   -34.0435 -34.0435 -34.0431 -34.0416 -34.0328 -34.0328 -33.9493 -33.9437
   -33.9398 -33.9379 -33.9379 -33.9325 -33.9239 -33.9220 -33.9151 -33.9151
   -33.8573 -33.8479 -33.8467 -33.8342 -33.8047 -33.8047 -33.8002 -33.7980
   -33.7969 -33.7943 -33.7942 -33.7832 -33.7831 -33.7806 -33.7806 -33.7639
   -33.7583 -33.7506 -33.7506 -33.7306 -33.7275 -33.7275 -33.7234 -33.6821
   -33.6686 -33.6686 -33.6677 -33.6667 -33.6608 -33.6579 -33.6579 -33.6567
     9.8660  11.9210  13.5049  13.5049  14.0127  14.0127  14.1048  14.1048
    14.2428  14.2428  14.3675  14.4055  14.8339  14.9351  15.0084  15.4967
    15.5104  15.7890  15.8092  15.9798  15.9885  16.0397  16.1936  16.1936
    16.2021  16.2319  16.2529  16.2529  16.5722  16.5723  16.7904  16.7904
    17.0663  17.0663  17.2082  17.2082  17.2295  17.2561  17.2962  17.2986
    17.3362  17.3363  17.3893  17.3893  17.4561  17.4574  17.4667  18.0490
    18.0756  18.1445  18.1622  18.1622  18.1799  18.1799  18.2445  18.9871
    18.9871  18.9936  18.9936  19.0836  19.0836  19.1639  19.1777  19.2010
    19.2010  19.2583  19.2744  19.3881  19.4571  19.5063  19.5687  19.5730
    19.6361  19.6566  19.6608  19.6642  19.8056  19.8056  19.8169  19.8266
    20.0007  20.0007  20.0440  20.0440  20.1183  20.1183  20.4115  20.4115
    20.4552  20.4552

          k = 0.0545 0.0545 0.3813 ( 12752 PWs)   bands (ev):

   -67.7758 -67.7579 -67.7219 -67.7218 -67.7186 -67.7186 -67.7126 -67.7124
   -67.7122 -67.7120 -67.7120 -67.7115 -67.7105 -67.7100 -67.6826 -67.6682
   -34.0242 -34.0236 -34.0236 -34.0234 -34.0093 -34.0093 -33.9733 -33.9718
   -33.9693 -33.9693 -33.9487 -33.9487 -33.9470 -33.9339 -33.9186 -33.9095
   -33.8805 -33.8709 -33.8353 -33.8264 -33.8105 -33.8060 -33.8026 -33.8026
   -33.7974 -33.7973 -33.7819 -33.7819 -33.7810 -33.7810 -33.7655 -33.7333
   -33.7302 -33.7255 -33.7255 -33.7085 -33.7058 -33.7045 -33.7044 -33.7019
   -33.6841 -33.6840 -33.6840 -33.6839 -33.6733 -33.6692 -33.6692 -33.6683
[...]
   -33.6788 -33.6788 -33.6788 -33.6657 -33.6657 -33.6657 -33.6622 -33.6622
    10.5877  12.4944  12.4944  12.4945  13.7579  13.7579  13.7579  14.8847
    14.8847  14.8848  15.1145  15.1349  15.1349  15.1350  15.2553  15.2553
    15.4826  15.9037  15.9037  15.9669  15.9669  15.9669  16.1014  16.1014
    16.1638  16.1639  16.1639  16.3357  16.3357  16.3357  16.6918  16.6918
    16.6918  16.7132  16.7132  16.7132  16.7168  16.7168  16.7169  16.7715
    16.7715  16.7715  16.9801  16.9801  17.1863  17.1863  17.1863  18.0542
    18.1504  18.5622  18.5622  18.5622  18.6588  18.6588  18.6588  18.9018
    18.9018  18.9018  18.9579  18.9579  18.9580  19.1966  19.1966  19.1966
    19.2729  19.2729  19.4656  19.4656  19.5381  19.5381  19.5636  19.5637
    19.5637  19.5736  19.5736  19.5736  19.5803  19.5803  19.7273  19.7273
    19.7273  19.7759  19.7759  19.7759  20.1767  20.1767  20.1767  22.0206
    22.1251  22.1251

          k = 0.2723 0.2723 0.3813 ( 12747 PWs)   bands (ev):

   -67.7649 -67.7498 -67.7379 -67.7379 -67.7299 -67.7299 -67.7235 -67.7188
   -67.7051 -67.7041 -67.7007 -67.7007 -67.6961 -67.6961 -67.6872 -67.6757
   -34.0141 -34.0141 -34.0061 -33.9876 -33.9876 -33.9844 -33.9783 -33.9775
   -33.9645 -33.9643 -33.9642 -33.9555 -33.9373 -33.9119 -33.9119 -33.9055
   -33.8963 -33.8730 -33.8730 -33.8628 -33.8565 -33.8564 -33.8564 -33.8293
   -33.7936 -33.7851 -33.7670 -33.7641 -33.7544 -33.7544 -33.7440 -33.7440
   -33.7398 -33.7398 -33.7290 -33.7128 -33.7101 -33.7100 -33.7010 -33.6955
   -33.6823 -33.6754 -33.6734 -33.6734 -33.6691 -33.6664 -33.6664 -33.6606
    10.9341  11.9066  12.7628  12.7628  13.4283  13.4284  14.0449  14.7713
    15.0551  15.0551  15.0924  15.2137  15.2137  15.3464  15.3512  15.3914
    15.4598  15.7586  15.9563  15.9919  15.9920  16.0165  16.0292  16.0968
    16.1908  16.2391  16.2578  16.2578  16.3630  16.3631  16.4547  16.5476
    16.5476  16.5512  16.5585  16.5585  16.6239  16.6240  16.6644  16.6644
    16.7611  16.7914  16.8730  16.9256  16.9449  16.9449  17.3066  17.8070
    18.2631  18.6560  18.6560  18.7238  18.7671  18.8079  18.8079  18.8275
    18.8276  18.8313  19.0505  19.1300  19.1300  19.1523  19.2366  19.2366
    19.2685  19.3044  19.3449  19.3680  19.4510  19.4852  19.5473  19.5473
    19.5511  19.5629  19.5938  19.6254  19.6254  19.6310  19.6458  19.6669
    19.6999  19.6999  19.7567  19.7567  19.9001  19.9001  20.6047  21.5352
    22.4086  22.4086

          k = 0.2723 0.2723-0.4902 ( 12732 PWs)   bands (ev):

   -67.7581 -67.7578 -67.7343 -67.7343 -67.7341 -67.7340 -67.7214 -67.7212
   -67.7046 -67.7043 -67.6982 -67.6982 -67.6980 -67.6979 -67.6810 -67.6808
   -34.0010 -34.0010 -34.0010 -34.0010 -33.9833 -33.9830 -33.9814 -33.9812
   -33.9736 -33.9735 -33.9384 -33.9384 -33.9383 -33.9383 -33.9188 -33.9185
   -33.8842 -33.8841 -33.8673 -33.8673 -33.8672 -33.8672 -33.8247 -33.8247
   -33.8070 -33.8070 -33.7667 -33.7666 -33.7458 -33.7458 -33.7456 -33.7456
   -33.7259 -33.7259 -33.7259 -33.7258 -33.7037 -33.7034 -33.6966 -33.6965
   -33.6924 -33.6922 -33.6692 -33.6692 -33.6692 -33.6692 -33.6631 -33.6631
    11.3790  11.3791  13.0848  13.0848  13.0849  13.0849  14.3945  14.3945
    15.1824  15.1824  15.1825  15.1825  15.3099  15.3100  15.4032  15.4032
    15.5623  15.5624  16.0239  16.0241  16.0686  16.0687  16.1413  16.1413
    16.1413  16.1413  16.2118  16.2118  16.3884  16.3884  16.3885  16.3885
    16.3941  16.3942  16.6094  16.6094  16.6096  16.6096  16.7256  16.7256
    16.7256  16.7256  16.7967  16.7968  16.8618  16.8620  17.5140  17.5141
    18.4881  18.4881  18.7286  18.7286  18.7286  18.7286  18.9951  18.9951
    18.9952  18.9952  19.0013  19.0014  19.0222  19.0225  19.2035  19.2036
    19.3569  19.3570  19.4767  19.4768  19.4774  19.4774  19.4774  19.4774
    19.5365  19.5365  19.5591  19.5593  19.6838  19.6839  19.6989  19.6989
    19.6989  19.6989  19.7120  19.7120  19.7120  19.7120  21.0636  21.0638
    22.6359  22.6359

          k = 0.2723 0.3813 0.3813 ( 12752 PWs)   bands (ev):

   -67.7599 -67.7461 -67.7461 -67.7359 -67.7351 -67.7278 -67.7278 -67.7220
   -67.7035 -67.7013 -67.7013 -67.6974 -67.6963 -67.6895 -67.6894 -67.6792
   -34.0072 -33.9978 -33.9978 -33.9869 -33.9853 -33.9853 -33.9748 -33.9687
   -33.9672 -33.9672 -33.9594 -33.9388 -33.9344 -33.9288 -33.9123 -33.8973
   -33.8973 -33.8839 -33.8827 -33.8827 -33.8775 -33.8775 -33.8749 -33.8218
   -33.8068 -33.7638 -33.7638 -33.7544 -33.7543 -33.7530 -33.7411 -33.7383
   -33.7285 -33.7259 -33.7191 -33.7171 -33.7171 -33.7039 -33.7039 -33.6990
   -33.6822 -33.6812 -33.6812 -33.6762 -33.6672 -33.6672 -33.6647 -33.6631
    11.2703  12.2055  12.2055  12.9954  13.0372  13.7159  13.7159  14.4353
    15.2562  15.2589  15.2589  15.3552  15.4339  15.4340  15.4601  15.5036
    15.5342  15.8260  15.8260  15.9470  16.0206  16.0283  16.0558  16.1835
    16.1835  16.1966  16.1966  16.2286  16.2365  16.3349  16.3984  16.3985
    16.4348  16.4405  16.4405  16.5118  16.5966  16.5992  16.5993  16.6039
    16.6975  16.6975  16.7342  16.7648  16.8380  17.0175  17.0175  17.4653
    18.4964  18.7762  18.8013  18.8013  18.8059  18.9581  18.9613  18.9613
    18.9827  18.9828  19.0038  19.0038  19.1496  19.1773  19.2111  19.2111
    19.2124  19.2815  19.3511  19.4012  19.4517  19.4700  19.5012  19.5306
    19.5459  19.5459  19.5489  19.5489  19.5701  19.5877  19.6027  19.6027
    19.6419  19.6659  19.6659  19.7503  19.7571  20.2762  20.2763  21.1016
    22.7679  23.2455

          k = 0.2723 0.3813-0.4902 ( 12734 PWs)   bands (ev):

   -67.7536 -67.7534 -67.7414 -67.7412 -67.7318 -67.7316 -67.7251 -67.7249
   -67.7023 -67.7021 -67.6992 -67.6989 -67.6926 -67.6924 -67.6839 -67.6837
   -33.9966 -33.9965 -33.9903 -33.9902 -33.9784 -33.9784 -33.9782 -33.9780
   -33.9709 -33.9707 -33.9481 -33.9479 -33.9187 -33.9185 -33.9109 -33.9109
   -33.8979 -33.8978 -33.8893 -33.8891 -33.8854 -33.8853 -33.8521 -33.8521
   -33.7851 -33.7850 -33.7530 -33.7529 -33.7460 -33.7459 -33.7439 -33.7438
   -33.7255 -33.7253 -33.7149 -33.7148 -33.7000 -33.6998 -33.6997 -33.6995
   -33.6976 -33.6974 -33.6793 -33.6792 -33.6653 -33.6652 -33.6639 -33.6639
    11.6999  11.7000  12.5769  12.5770  13.3665  13.3666  14.0643  14.0643
    15.3760  15.3760  15.3957  15.3957  15.4578  15.4579  15.5037  15.5038
    15.6597  15.6598  16.0077  16.0078  16.0267  16.0268  16.0509  16.0510
    16.1035  16.1037  16.1980  16.1980  16.3011  16.3012  16.3242  16.3243
    16.4207  16.4209  16.4494  16.4494  16.5525  16.5526  16.6326  16.6328
    16.6660  16.6660  16.7636  16.7638  16.7752  16.7753  17.1881  17.1882
    18.7452  18.7452  18.7825  18.7826  18.9089  18.9089  18.9999  19.0001
    19.0867  19.0868  19.0930  19.0931  19.0954  19.0955  19.1489  19.1490
    19.2888  19.2888  19.3075  19.3076  19.4325  19.4326  19.4977  19.4978
    19.5089  19.5090  19.5380  19.5381  19.5438  19.5439  19.5711  19.5711
    19.6718  19.6719  19.7198  19.7198  19.9715  19.9716  20.6828  20.6830
    23.0924  23.0925

          k = 0.2723-0.4902-0.4902 ( 12744 PWs)   bands (ev):

   -67.7481 -67.7479 -67.7479 -67.7476 -67.7288 -67.7285 -67.7285 -67.7283
   -67.7007 -67.7004 -67.7004 -67.7002 -67.6880 -67.6877 -67.6877 -67.6875
   -33.9881 -33.9880 -33.9880 -33.9880 -33.9808 -33.9807 -33.9807 -33.9805
   -33.9592 -33.9591 -33.9591 -33.9589 -33.9075 -33.9073 -33.9073 -33.9071
   -33.8980 -33.8980 -33.8980 -33.8980 -33.8816 -33.8815 -33.8815 -33.8814
   -33.7638 -33.7638 -33.7638 -33.7637 -33.7472 -33.7471 -33.7471 -33.7471
   -33.7094 -33.7092 -33.7092 -33.7090 -33.7061 -33.7060 -33.7060 -33.7059
   -33.6905 -33.6903 -33.6903 -33.6902 -33.6640 -33.6639 -33.6639 -33.6639
    12.1061  12.1062  12.1062  12.1063  13.7055  13.7056  13.7056  13.7057
    15.5015  15.5015  15.5015  15.5016  15.5134  15.5134  15.5134  15.5134
    15.8333  15.8333  15.8333  15.8333  15.9647  15.9647  15.9647  15.9647
    16.2047  16.2047  16.2047  16.2047  16.2704  16.2705  16.2705  16.2707
    16.4077  16.4077  16.4077  16.4079  16.5412  16.5412  16.5412  16.5412
    16.6883  16.6885  16.6885  16.6886  16.9289  16.9289  16.9289  16.9289
    18.8867  18.8868  18.8868  18.8869  19.0163  19.0163  19.0163  19.0164
    19.0550  19.0551  19.0551  19.0551  19.1357  19.1357  19.1357  19.1358
    19.2078  19.2079  19.2079  19.2080  19.4290  19.4291  19.4291  19.4292
    19.5010  19.5011  19.5011  19.5011  19.5427  19.5429  19.5429  19.5430
    19.7057  19.7057  19.7057  19.7058  20.3179  20.3180  20.3180  20.3181
    23.5455  23.5456

          k = 0.3813 0.3813 0.3813 ( 12733 PWs)   bands (ev):

   -67.7552 -67.7426 -67.7426 -67.7426 -67.7333 -67.7332 -67.7332 -67.7262
   -67.7009 -67.6973 -67.6973 -67.6973 -67.6914 -67.6914 -67.6914 -67.6823
   -33.9899 -33.9899 -33.9899 -33.9804 -33.9804 -33.9804 -33.9668 -33.9532
   -33.9532 -33.9470 -33.9470 -33.9470 -33.9416 -33.9416 -33.9100 -33.9100
   -33.9100 -33.9027 -33.9027 -33.9027 -33.8976 -33.8976 -33.8976 -33.8473
   -33.7854 -33.7457 -33.7457 -33.7456 -33.7354 -33.7354 -33.7354 -33.7253
   -33.7253 -33.7166 -33.7166 -33.7166 -33.7152 -33.7152 -33.7152 -33.7012
   -33.6806 -33.6806 -33.6806 -33.6769 -33.6769 -33.6737 -33.6737 -33.6737
    11.5988  12.5048  12.5048  12.5049  13.2911  13.2911  13.2912  14.0507
    15.4654  15.4654  15.4654  15.5947  15.5947  15.6033  15.6033  15.6033
    15.7079  15.8256  15.8256  15.8256  16.0773  16.0773  16.0974  16.0974
    16.1926  16.1926  16.1926  16.2604  16.2604  16.2604  16.3367  16.3367
    16.3367  16.3975  16.3975  16.3975  16.5194  16.5194  16.5195  16.5230
    16.5230  16.5230  16.6935  16.6935  16.7251  16.7251  16.7251  17.1139
    18.7506  18.9505  18.9505  18.9505  18.9854  18.9854  18.9854  19.0737
    19.0737  19.0737  19.2331  19.2331  19.2331  19.2777  19.2777  19.2885
    19.2885  19.2886  19.3306  19.3306  19.3930  19.3930  19.4374  19.4374
    19.4876  19.4876  19.4876  19.5236  19.5236  19.5236  19.5586  19.5586
    19.5586  19.5723  19.5723  19.5723  19.9372  19.9372  19.9372  20.6970
    23.8075  23.8075

          k = 0.3813 0.3813-0.4902 ( 12762 PWs)   bands (ev):

   -67.7495 -67.7493 -67.7384 -67.7384 -67.7382 -67.7381 -67.7301 -67.7298
   -67.6990 -67.6987 -67.6942 -67.6942 -67.6940 -67.6939 -67.6865 -67.6863
   -33.9822 -33.9822 -33.9821 -33.9821 -33.9692 -33.9692 -33.9678 -33.9676
   -33.9569 -33.9568 -33.9336 -33.9334 -33.9250 -33.9250 -33.9249 -33.9249
   -33.9207 -33.9207 -33.9105 -33.9105 -33.9104 -33.9104 -33.8750 -33.8749
   -33.7648 -33.7647 -33.7309 -33.7308 -33.7293 -33.7293 -33.7292 -33.7291
   -33.7225 -33.7225 -33.7224 -33.7223 -33.7067 -33.7066 -33.7012 -33.7010
   -33.6950 -33.6948 -33.6788 -33.6788 -33.6787 -33.6787 -33.6741 -33.6741
    12.0167  12.0168  12.8757  12.8758  12.8758  12.8758  13.6538  13.6539
    15.6090  15.6090  15.6090  15.6090  15.6769  15.6769  15.6794  15.6795
    15.7049  15.7049  15.9727  15.9727  15.9727  15.9728  16.1066  16.1068
    16.1373  16.1373  16.1776  16.1778  16.2190  16.2190  16.3718  16.3718
    16.3718  16.3718  16.4462  16.4462  16.4464  16.4464  16.4864  16.4864
    16.4865  16.4865  16.5824  16.5825  16.6108  16.6110  16.8427  16.8428
    18.9955  18.9955  18.9956  18.9956  19.0207  19.0207  19.1524  19.1526
    19.1743  19.1745  19.1791  19.1792  19.1792  19.1793  19.1831  19.1833
    19.3333  19.3334  19.3923  19.3924  19.4266  19.4268  19.4664  19.4665
    19.4665  19.4665  19.4666  19.4667  19.5057  19.5058  19.5391  19.5391
    19.5391  19.5391  19.6284  19.6284  19.6285  19.6285  20.3113  20.3114
    24.0896  24.0897

          k = 0.3813-0.4902-0.4902 ( 12728 PWs)   bands (ev):

   -67.7444 -67.7441 -67.7441 -67.7439 -67.7346 -67.7343 -67.7343 -67.7341
   -67.6964 -67.6962 -67.6962 -67.6959 -67.6901 -67.6898 -67.6898 -67.6896
   -33.9716 -33.9716 -33.9716 -33.9716 -33.9682 -33.9681 -33.9681 -33.9679
   -33.9409 -33.9408 -33.9408 -33.9407 -33.9301 -33.9300 -33.9300 -33.9298
   -33.9258 -33.9258 -33.9258 -33.9258 -33.8999 -33.8998 -33.8998 -33.8997
   -33.7461 -33.7460 -33.7460 -33.7459 -33.7209 -33.7208 -33.7208 -33.7208
   -33.7167 -33.7166 -33.7166 -33.7165 -33.7033 -33.7031 -33.7031 -33.7029
   -33.6936 -33.6935 -33.6935 -33.6933 -33.6786 -33.6785 -33.6785 -33.6785
    12.4160  12.4160  12.4160  12.4162  13.2445  13.2445  13.2445  13.2446
    15.7029  15.7029  15.7029  15.7029  15.8061  15.8061  15.8061  15.8061
    15.8649  15.8649  15.8649  15.8650  15.9331  15.9331  15.9331  15.9331
    16.2509  16.2509  16.2509  16.2511  16.2877  16.2877  16.2877  16.2877
    16.2903  16.2904  16.2904  16.2906  16.4645  16.4645  16.4646  16.4646
    16.5165  16.5167  16.5167  16.5168  16.5740  16.5741  16.5741  16.5741
    19.1151  19.1153  19.1153  19.1154  19.1460  19.1461  19.1461  19.1462
    19.2303  19.2304  19.2304  19.2305  19.2785  19.2786  19.2786  19.2787
    19.3141  19.3142  19.3142  19.3143  19.3917  19.3919  19.3919  19.3920
    19.4189  19.4190  19.4190  19.4191  19.4516  19.4517  19.4517  19.4519
    19.4874  19.4874  19.4874  19.4875  19.9610  19.9611  19.9611  19.9612
    24.5803  24.5804

          k =-0.4902-0.4902-0.4902 ( 12712 PWs)   bands (ev):

   -67.7400 -67.7398 -67.7398 -67.7398 -67.7395 -67.7395 -67.7395 -67.7393
   -67.6929 -67.6927 -67.6927 -67.6927 -67.6924 -67.6924 -67.6924 -67.6922
   -33.9507 -33.9507 -33.9507 -33.9506 -33.9506 -33.9506 -33.9506 -33.9506
   -33.9504 -33.9504 -33.9504 -33.9503 -33.9503 -33.9503 -33.9503 -33.9503
   -33.9205 -33.9204 -33.9204 -33.9204 -33.9203 -33.9203 -33.9203 -33.9201
   -33.7300 -33.7299 -33.7299 -33.7299 -33.7298 -33.7298 -33.7298 -33.7296
   -33.6982 -33.6982 -33.6982 -33.6982 -33.6982 -33.6981 -33.6981 -33.6981
   -33.6979 -33.6979 -33.6979 -33.6978 -33.6978 -33.6978 -33.6978 -33.6978
    12.8037  12.8037  12.8037  12.8037  12.8038  12.8038  12.8038  12.8039
    15.8995  15.8995  15.8995  15.8995  15.8995  15.8995  15.8996  15.8996
    15.8996  15.8996  15.8996  15.8996  15.8996  15.8996  15.8996  15.8996
    16.2622  16.2622  16.2622  16.2622  16.2623  16.2623  16.2623  16.2624
    16.3765  16.3765  16.3765  16.3765  16.3765  16.3765  16.3765  16.3765
    16.3767  16.3767  16.3768  16.3768  16.3768  16.3768  16.3768  16.3768
    19.2933  19.2933  19.2933  19.2933  19.2933  19.2933  19.2934  19.2934
    19.2935  19.2935  19.2936  19.2936  19.2936  19.2936  19.2936  19.2936
    19.3410  19.3410  19.3411  19.3411  19.3411  19.3411  19.3411  19.3411
    19.3412  19.3412  19.3412  19.3412  19.3412  19.3412  19.3413  19.3413
    19.6306  19.6307  19.6307  19.6307  19.6308  19.6308  19.6308  19.6309
    25.6153  25.6153

     the Fermi energy is    17.6013 ev

!    total energy              =   -5268.18074480 Ry
     Harris-Foulkes estimate   =   -5268.18074314 Ry
     estimated scf accuracy    <       0.00000075 Ry

     total all-electron energy =    -40728.925274 Ry

     The total energy is the sum of the following terms:

     one-electron contribution =   -1795.11347035 Ry
     hartree contribution      =    1054.20210564 Ry
     xc contribution           =    -443.71325379 Ry
     ewald contribution        =   -2759.04900268 Ry
     one-center paw contrib.   =   -1324.65242165 Ry
     smearing contrib. (-TS)   =       0.14529803 Ry

     total magnetization       =    34.42 Bohr mag/cell
     absolute magnetization    =    36.47 Bohr mag/cell

     convergence has been achieved in  19 iterations

     negative rho (up, down):  0.000E+00 2.997E-03

     Forces acting on atoms (cartesian axes, Ry/au):

     atom    1 type  1   force =     0.00000000    0.00000000    0.00000000
     atom    2 type  2   force =    -0.00000885   -0.00000885   -0.00000885
     atom    3 type  1   force =     0.00000000   -0.00000000    0.00000000
     atom    4 type  2   force =    -0.00000885   -0.00000885    0.00000885
     atom    5 type  1   force =     0.00000000   -0.00000000    0.00000000
     atom    6 type  2   force =    -0.00000885    0.00000885   -0.00000885
     atom    7 type  1   force =     0.00000000    0.00000000    0.00000000
     atom    8 type  2   force =    -0.00000885    0.00000885    0.00000885
     atom    9 type  1   force =     0.00000000    0.00000000   -0.00000000
     atom   10 type  2   force =     0.00000885   -0.00000885   -0.00000885
     atom   11 type  1   force =     0.00000000    0.00000000    0.00000000
     atom   12 type  2   force =     0.00000885   -0.00000885    0.00000885
     atom   13 type  1   force =     0.00000000    0.00000000    0.00000000
     atom   14 type  2   force =     0.00000885    0.00000885   -0.00000885
     atom   15 type  1   force =     0.00000000    0.00000000    0.00000000
     atom   16 type  2   force =     0.00000885    0.00000885    0.00000885

     Total force =     0.000043     Total SCF correction =     0.003750
     SCF correction compared to forces is large: reduce conv_thr to get better values


     Computing stress (Cartesian axis) and pressure


     negative rho (up, down):  0.000E+00 2.997E-03
          total   stress  (Ry/bohr**3)                   (kbar)     P= -117.08
  -0.00079591   0.00000000   0.00000000       -117.08      0.00      0.00
   0.00000000  -0.00079591   0.00000000          0.00   -117.08      0.00
   0.00000000   0.00000000  -0.00079591          0.00      0.00   -117.08


     Writing output data file lEFhSkDvLnpXNIkp.save/
 
     init_run     :      7.45s CPU      7.76s WALL (       1 calls)
     electrons    :    484.11s CPU    495.73s WALL (       1 calls)
     forces       :      2.44s CPU      2.60s WALL (       1 calls)
     stress       :     10.55s CPU     10.63s WALL (       1 calls)

     Called by init_run:
     wfcinit      :      6.86s CPU      7.10s WALL (       1 calls)
     potinit      :      0.30s CPU      0.31s WALL (       1 calls)
     hinit0       :      0.10s CPU      0.12s WALL (       1 calls)

     Called by electrons:
     c_bands      :    429.92s CPU    439.09s WALL (      20 calls)
     sum_band     :     47.78s CPU     49.71s WALL (      20 calls)
     v_of_rho     :      0.48s CPU      0.52s WALL (      20 calls)
     newd         :      1.04s CPU      1.31s WALL (      20 calls)
     PAW_pot      :      4.98s CPU      5.17s WALL (      20 calls)
     mix_rho      :      0.13s CPU      0.15s WALL (      20 calls)

     Called by c_bands:
     init_us_2    :      3.12s CPU      3.16s WALL (    3010 calls)
     cegterg      :    412.44s CPU    421.48s WALL (    1400 calls)

     Called by sum_band:
     sum_band:bec :      0.47s CPU      0.48s WALL (    1400 calls)
     addusdens    :      2.06s CPU      2.33s WALL (      20 calls)

     Called by *egterg:
     h_psi        :    186.23s CPU    192.07s WALL (    4674 calls)
     s_psi        :     13.63s CPU     13.69s WALL (    4674 calls)
     g_psi        :      0.67s CPU      0.68s WALL (    3204 calls)
     cdiaghg      :    166.47s CPU    166.92s WALL (    4534 calls)

     Called by h_psi:
     h_psi:pot    :    184.94s CPU    190.76s WALL (    4674 calls)
     h_psi:calbec :     15.60s CPU     17.18s WALL (    4674 calls)
     vloc_psi     :    155.33s CPU    159.51s WALL (    4674 calls)
     add_vuspsi   :     13.98s CPU     14.05s WALL (    4674 calls)

     General routines
     calbec       :     24.33s CPU     26.78s WALL (    6424 calls)
     fft          :      0.38s CPU      0.43s WALL (     542 calls)
     ffts         :      0.04s CPU      0.04s WALL (      80 calls)
     fftw         :    178.07s CPU    182.81s WALL ( 1190528 calls)
     interpolate  :      0.05s CPU      0.05s WALL (      40 calls)
 
     Parallel routines
     fft_scatt_xy :     14.49s CPU     14.88s WALL ( 1191150 calls)
     fft_scatt_yz :    101.99s CPU    104.76s WALL ( 1191150 calls)
 
     PWSCF        :  8m28.03s CPU     8m48.97s WALL

 
   This run was terminated on:   1:47:57  14Jun2020            

=------------------------------------------------------------------------------=
   JOB DONE.
=------------------------------------------------------------------------------=
