--------------------------------------------------------------------------
WARNING: No preset parameters were found for the device that Open MPI
detected:

  Local host:            bear-pg0206u36b
  Device name:           mlx5_0
  Device vendor ID:      0x02c9
  Device vendor part ID: 4123

Default device parameters will be used, which may result in lower
performance.  You can edit any of the files specified by the
btl_openib_device_param_files MCA parameter to set values for your
device.

NOTE: You can turn off this warning by setting the MCA parameter
      btl_openib_warn_no_device_params_found to 0.
--------------------------------------------------------------------------
--------------------------------------------------------------------------
WARNING: There was an error initializing an OpenFabrics device.

  Local host:   bear-pg0206u36b
  Local device: mlx5_0
--------------------------------------------------------------------------

     Program PWSCF v.6.3 starts on 13Jun2020 at 21:40:35 

     This program is part of the open-source Quantum ESPRESSO suite
     for quantum simulation of materials; please cite
         "P. Giannozzi et al., J. Phys.:Condens. Matter 21 395502 (2009);
         "P. Giannozzi et al., J. Phys.:Condens. Matter 29 465901 (2017);
          URL http://www.quantum-espresso.org", 
     in publications or presentations arising from this work. More details at
     http://www.quantum-espresso.org/quote

     Parallel version (MPI & OpenMP), running on      20 processor cores
     Number of MPI processes:                20
     Threads/MPI process:                     1

     MPI processes distributed on     1 nodes
     R & G space division:  proc/nbgrp/npool/nimage =      20
     Reading input from wd/eos/eos_001.in
Warning: card &IONS ignored
Warning: card ION_DYNAMICS = 'BFGS', ignored
Warning: card / ignored
Warning: card &CELL ignored
Warning: card CELL_DYNAMICS = 'BFGS', ignored
Warning: card CELL_FACTOR = 2.0, ignored
Warning: card PRESS = 0.0, ignored
Warning: card / ignored

     Current dimensions of program PWSCF are:
     Max number of different atomic species (ntypx) = 10
     Max number of k-points (npk) =  40000
     Max angular momentum in pseudopotentials (lmaxx) =  3
               file Fe.pbe-spn-kjpaw_psl.1.0.0.UPF: wavefunction(s)  3P 3D renormalized
               file Fe.pbe-spn-kjpaw_psl.1.0.0.UPF: wavefunction(s)  3P 3D renormalized

     Subspace diagonalization in iterative solution of the eigenvalue problem:
     a serial algorithm will be used

     Found symmetry operation: I + (  0.0000  0.0000  0.5000)
     This is a supercell, fractional translations are disabled
 
     Parallelization info
     --------------------
     sticks:   dense  smooth     PW     G-vecs:    dense   smooth      PW
     Min         185     121     34                 8427     4521     674
     Max         186     122     35                 8430     4524     678
     Sum        3705    2433    681               168573    90447   13517
 


     bravais-lattice index     =            0
     lattice parameter (alat)  =      10.5935  a.u.
     unit-cell volume          =    1118.9200 (a.u.)^3
     number of atoms/cell      =           16
     number of atomic types    =            2
     number of electrons       =       256.00
     number of Kohn-Sham states=          154
     kinetic-energy cutoff     =      71.0000  Ry
     charge density cutoff     =     430.0000  Ry
     convergence threshold     =      1.0E-06
     mixing beta               =       0.1000
     number of iterations used =           10  plain     mixing
     Exchange-correlation      = SLA PW PBX PBC ( 1  4  3  4 0 0)

     celldm(1)=  10.593520  celldm(2)=   0.000000  celldm(3)=   0.000000
     celldm(4)=   0.000000  celldm(5)=   0.000000  celldm(6)=   0.000000

     crystal axes: (cart. coord. in units of alat)
               a(1) = (   0.980000   0.000000   0.000000 )  
               a(2) = (   0.000000   0.980000   0.000000 )  
               a(3) = (   0.000000   0.000000   0.980000 )  

     reciprocal axes: (cart. coord. in units 2 pi/alat)
               b(1) = (  1.020408  0.000000  0.000000 )  
               b(2) = (  0.000000  1.020408  0.000000 )  
               b(3) = (  0.000000  0.000000  1.020408 )  


     PseudoPot. # 1 for Fe read from file:
     /rds/homes/b/bxp912/pp/Fe.pbe-spn-kjpaw_psl.1.0.0.UPF
     MD5 check sum: 42f43b795421b414b0dc916aa790dbcb
     Pseudo is Projector augmented-wave + core cor, Zval = 16.0
     Generated using "atomic" code by A. Dal Corso v.6.3
     Shape of augmentation charge: PSQ
     Using radial grid of 1191 points,  6 beta functions with: 
                l(1) =   0
                l(2) =   0
                l(3) =   1
                l(4) =   1
                l(5) =   2
                l(6) =   2
     Q(r) pseudized with 0 coefficients 


     PseudoPot. # 2 for Fe read from file:
     /rds/homes/b/bxp912/pp/Fe.pbe-spn-kjpaw_psl.1.0.0.UPF
     MD5 check sum: 42f43b795421b414b0dc916aa790dbcb
     Pseudo is Projector augmented-wave + core cor, Zval = 16.0
     Generated using "atomic" code by A. Dal Corso v.6.3
     Shape of augmentation charge: PSQ
     Using radial grid of 1191 points,  6 beta functions with: 
                l(1) =   0
                l(2) =   0
                l(3) =   1
                l(4) =   1
                l(5) =   2
                l(6) =   2
     Q(r) pseudized with 0 coefficients 


     atomic species   valence    mass     pseudopotential
        Fe1           16.00    55.84500     Fe( 1.00)
        Fe2           16.00    55.84500     Fe( 1.00)

     Starting magnetic structure 
     atomic species   magnetization
        Fe1          0.100
        Fe2          0.100

     48 Sym. Ops., with inversion, found



   Cartesian axes

     site n.     atom                  positions (alat units)
         1           Fe1 tau(   1) = (   0.0000000   0.0000000   0.0000000  )
         2           Fe2 tau(   2) = (   0.2450004   0.2450004   0.2450004  )
         3           Fe1 tau(   3) = (   0.0000000   0.0000000   0.4900000  )
         4           Fe2 tau(   4) = (   0.2450004   0.2450004   0.7349996  )
         5           Fe1 tau(   5) = (   0.0000000   0.4900000   0.0000000  )
         6           Fe2 tau(   6) = (   0.2450004   0.7349996   0.2450004  )
         7           Fe1 tau(   7) = (   0.0000000   0.4900000   0.4900000  )
         8           Fe2 tau(   8) = (   0.2450004   0.7349996   0.7349996  )
         9           Fe1 tau(   9) = (   0.4900000   0.0000000   0.0000000  )
        10           Fe2 tau(  10) = (   0.7349996   0.2450004   0.2450004  )
        11           Fe1 tau(  11) = (   0.4900000   0.0000000   0.4900000  )
        12           Fe2 tau(  12) = (   0.7349996   0.2450004   0.7349996  )
        13           Fe1 tau(  13) = (   0.4900000   0.4900000   0.0000000  )
        14           Fe2 tau(  14) = (   0.7349996   0.7349996   0.2450004  )
        15           Fe1 tau(  15) = (   0.4900000   0.4900000   0.4900000  )
        16           Fe2 tau(  16) = (   0.7349996   0.7349996   0.7349996  )

     number of k points=    35  Marzari-Vanderbilt smearing, width (Ry)=  0.0400
                       cart. coord. in units 2pi/alat
        k(    1) = (   0.0566893   0.0566893   0.0566893), wk =   0.0109739
        k(    2) = (   0.0566893   0.0566893   0.1700680), wk =   0.0329218
        k(    3) = (   0.0566893   0.0566893   0.2834467), wk =   0.0329218
        k(    4) = (   0.0566893   0.0566893   0.3968254), wk =   0.0329218
        k(    5) = (   0.0566893   0.0566893  -0.5102041), wk =   0.0164609
        k(    6) = (   0.0566893   0.1700680   0.1700680), wk =   0.0329218
        k(    7) = (   0.0566893   0.1700680   0.2834467), wk =   0.0658436
        k(    8) = (   0.0566893   0.1700680   0.3968254), wk =   0.0658436
        k(    9) = (   0.0566893   0.1700680  -0.5102041), wk =   0.0329218
        k(   10) = (   0.0566893   0.2834467   0.2834467), wk =   0.0329218
        k(   11) = (   0.0566893   0.2834467   0.3968254), wk =   0.0658436
        k(   12) = (   0.0566893   0.2834467  -0.5102041), wk =   0.0329218
        k(   13) = (   0.0566893   0.3968254   0.3968254), wk =   0.0329218
        k(   14) = (   0.0566893   0.3968254  -0.5102041), wk =   0.0329218
        k(   15) = (   0.0566893  -0.5102041  -0.5102041), wk =   0.0082305
        k(   16) = (   0.1700680   0.1700680   0.1700680), wk =   0.0109739
        k(   17) = (   0.1700680   0.1700680   0.2834467), wk =   0.0329218
        k(   18) = (   0.1700680   0.1700680   0.3968254), wk =   0.0329218
        k(   19) = (   0.1700680   0.1700680  -0.5102041), wk =   0.0164609
        k(   20) = (   0.1700680   0.2834467   0.2834467), wk =   0.0329218
        k(   21) = (   0.1700680   0.2834467   0.3968254), wk =   0.0658436
        k(   22) = (   0.1700680   0.2834467  -0.5102041), wk =   0.0329218
        k(   23) = (   0.1700680   0.3968254   0.3968254), wk =   0.0329218
        k(   24) = (   0.1700680   0.3968254  -0.5102041), wk =   0.0329218
        k(   25) = (   0.1700680  -0.5102041  -0.5102041), wk =   0.0082305
        k(   26) = (   0.2834467   0.2834467   0.2834467), wk =   0.0109739
        k(   27) = (   0.2834467   0.2834467   0.3968254), wk =   0.0329218
        k(   28) = (   0.2834467   0.2834467  -0.5102041), wk =   0.0164609
        k(   29) = (   0.2834467   0.3968254   0.3968254), wk =   0.0329218
        k(   30) = (   0.2834467   0.3968254  -0.5102041), wk =   0.0329218
        k(   31) = (   0.2834467  -0.5102041  -0.5102041), wk =   0.0082305
        k(   32) = (   0.3968254   0.3968254   0.3968254), wk =   0.0109739
        k(   33) = (   0.3968254   0.3968254  -0.5102041), wk =   0.0164609
        k(   34) = (   0.3968254  -0.5102041  -0.5102041), wk =   0.0082305
        k(   35) = (  -0.5102041  -0.5102041  -0.5102041), wk =   0.0013717

     Dense  grid:   168573 G-vectors     FFT dimensions: (  72,  72,  72)

     Smooth grid:    90447 G-vectors     FFT dimensions: (  60,  60,  60)

     Estimated max dynamical RAM per process >     145.88 MB

     Estimated total dynamical RAM >       2.85 GB
     Generating pointlists ...
     new r_m :   0.1750 (alat units)  1.8543 (a.u.) for type    1
     new r_m :   0.1750 (alat units)  1.8543 (a.u.) for type    2

     Check: negative/imaginary core charge=   -0.000006    0.000000

     Initial potential from superposition of free atoms

     starting charge  255.99300, renormalised to  256.00000
     Starting wfcs are  160 randomized atomic wfcs
     Checking if some PAW data can be deallocated... 

     total cpu time spent up to now is        8.9 secs

     Self-consistent Calculation

     iteration #  1     ecut=    71.00 Ry     beta= 0.10
     Davidson diagonalization with overlap
     ethr =  1.00E-02,  avg # of iterations =  3.3

     Threshold (ethr) on eigenvalues was too large:
     Diagonalizing with lowered threshold

     Davidson diagonalization with overlap
     ethr =  2.25E-04,  avg # of iterations =  3.3

     total cpu time spent up to now is       64.9 secs

     total energy              =   -5267.94875276 Ry
     Harris-Foulkes estimate   =   -5268.01236094 Ry
     estimated scf accuracy    <       0.65418516 Ry

     total magnetization       =    26.88 Bohr mag/cell
     absolute magnetization    =    26.96 Bohr mag/cell

     iteration #  2     ecut=    71.00 Ry     beta= 0.10
     Davidson diagonalization with overlap
     ethr =  2.56E-04,  avg # of iterations =  1.0

     total cpu time spent up to now is       82.4 secs

     total energy              =   -5267.91164218 Ry
     Harris-Foulkes estimate   =   -5267.96141348 Ry
     estimated scf accuracy    <       0.36818487 Ry

     total magnetization       =    27.51 Bohr mag/cell
     absolute magnetization    =    27.61 Bohr mag/cell

     iteration #  3     ecut=    71.00 Ry     beta= 0.10
     Davidson diagonalization with overlap
     ethr =  1.44E-04,  avg # of iterations =  3.2

     total cpu time spent up to now is      112.1 secs

     total energy              =   -5267.98153272 Ry
     Harris-Foulkes estimate   =   -5267.98583690 Ry
     estimated scf accuracy    <       0.30186104 Ry

     total magnetization       =    28.85 Bohr mag/cell
     absolute magnetization    =    29.11 Bohr mag/cell

     iteration #  4     ecut=    71.00 Ry     beta= 0.10
     Davidson diagonalization with overlap
     ethr =  1.18E-04,  avg # of iterations =  1.0

     total cpu time spent up to now is      129.6 secs

     total energy              =   -5267.99632800 Ry
     Harris-Foulkes estimate   =   -5267.98904831 Ry
     estimated scf accuracy    <       0.09954458 Ry

     total magnetization       =    29.03 Bohr mag/cell
     absolute magnetization    =    29.31 Bohr mag/cell

     iteration #  5     ecut=    71.00 Ry     beta= 0.10
     Davidson diagonalization with overlap
     ethr =  3.89E-05,  avg # of iterations =  1.6

     total cpu time spent up to now is      149.1 secs

     total energy              =   -5268.06768861 Ry
     Harris-Foulkes estimate   =   -5268.00073163 Ry
     estimated scf accuracy    <       0.08706349 Ry

     total magnetization       =    29.09 Bohr mag/cell
     absolute magnetization    =    29.41 Bohr mag/cell

     iteration #  6     ecut=    71.00 Ry     beta= 0.10
     Davidson diagonalization with overlap
     ethr =  3.40E-05,  avg # of iterations =  3.2

     negative rho (up, down):  0.000E+00 2.527E-03

     total cpu time spent up to now is      178.5 secs

     total energy              =   -5268.09049675 Ry
     Harris-Foulkes estimate   =   -5268.09301048 Ry
     estimated scf accuracy    <       0.16229049 Ry

     total magnetization       =    29.76 Bohr mag/cell
     absolute magnetization    =    30.35 Bohr mag/cell

     iteration #  7     ecut=    71.00 Ry     beta= 0.10
     Davidson diagonalization with overlap
     ethr =  3.40E-05,  avg # of iterations =  2.8

     negative rho (up, down):  0.000E+00 1.487E-03

     total cpu time spent up to now is      206.5 secs

     total energy              =   -5268.12182151 Ry
     Harris-Foulkes estimate   =   -5268.12679670 Ry
     estimated scf accuracy    <       0.01160695 Ry

     total magnetization       =    31.16 Bohr mag/cell
     absolute magnetization    =    32.38 Bohr mag/cell

     iteration #  8     ecut=    71.00 Ry     beta= 0.10
     Davidson diagonalization with overlap
     ethr =  4.53E-06,  avg # of iterations =  2.3

     negative rho (up, down):  0.000E+00 1.705E-03

     total cpu time spent up to now is      230.2 secs

     total energy              =   -5268.12587280 Ry
     Harris-Foulkes estimate   =   -5268.12307924 Ry
     estimated scf accuracy    <       0.00795053 Ry

     total magnetization       =    31.13 Bohr mag/cell
     absolute magnetization    =    32.24 Bohr mag/cell

     iteration #  9     ecut=    71.00 Ry     beta= 0.10
     Davidson diagonalization with overlap
     ethr =  3.11E-06,  avg # of iterations =  1.7

     negative rho (up, down):  0.000E+00 2.005E-03

     total cpu time spent up to now is      250.4 secs

     total energy              =   -5268.12854511 Ry
     Harris-Foulkes estimate   =   -5268.12632379 Ry
     estimated scf accuracy    <       0.00443235 Ry

     total magnetization       =    31.32 Bohr mag/cell
     absolute magnetization    =    32.52 Bohr mag/cell

     iteration # 10     ecut=    71.00 Ry     beta= 0.10
     Davidson diagonalization with overlap
     ethr =  1.73E-06,  avg # of iterations =  3.0

     negative rho (up, down):  0.000E+00 1.807E-03

     total cpu time spent up to now is      276.7 secs

     total energy              =   -5268.12956987 Ry
     Harris-Foulkes estimate   =   -5268.12936341 Ry
     estimated scf accuracy    <       0.00107977 Ry

     total magnetization       =    31.59 Bohr mag/cell
     absolute magnetization    =    32.94 Bohr mag/cell

     iteration # 11     ecut=    71.00 Ry     beta= 0.10
     Davidson diagonalization with overlap
     ethr =  4.22E-07,  avg # of iterations =  1.6

     negative rho (up, down):  0.000E+00 2.002E-03

     total cpu time spent up to now is      296.4 secs

     total energy              =   -5268.12981976 Ry
     Harris-Foulkes estimate   =   -5268.12962110 Ry
     estimated scf accuracy    <       0.00080064 Ry

     total magnetization       =    31.63 Bohr mag/cell
     absolute magnetization    =    32.98 Bohr mag/cell

     iteration # 12     ecut=    71.00 Ry     beta= 0.10
     Davidson diagonalization with overlap
     ethr =  3.13E-07,  avg # of iterations =  3.3

     negative rho (up, down):  0.000E+00 2.033E-03

     total cpu time spent up to now is      326.6 secs

     total energy              =   -5268.13027233 Ry
     Harris-Foulkes estimate   =   -5268.13027018 Ry
     estimated scf accuracy    <       0.00014695 Ry

     total magnetization       =    31.86 Bohr mag/cell
     absolute magnetization    =    33.32 Bohr mag/cell

     iteration # 13     ecut=    71.00 Ry     beta= 0.10
     Davidson diagonalization with overlap
     ethr =  5.74E-08,  avg # of iterations =  1.1

     negative rho (up, down):  0.000E+00 2.110E-03

     total cpu time spent up to now is      344.5 secs

     total energy              =   -5268.13026232 Ry
     Harris-Foulkes estimate   =   -5268.13027731 Ry
     estimated scf accuracy    <       0.00007890 Ry

     total magnetization       =    31.87 Bohr mag/cell
     absolute magnetization    =    33.33 Bohr mag/cell

     iteration # 14     ecut=    71.00 Ry     beta= 0.10
     Davidson diagonalization with overlap
     ethr =  3.08E-08,  avg # of iterations =  2.6

     negative rho (up, down):  0.000E+00 2.134E-03

     total cpu time spent up to now is      371.6 secs

     total energy              =   -5268.13026251 Ry
     Harris-Foulkes estimate   =   -5268.13028254 Ry
     estimated scf accuracy    <       0.00008119 Ry

     total magnetization       =    31.89 Bohr mag/cell
     absolute magnetization    =    33.37 Bohr mag/cell

     iteration # 15     ecut=    71.00 Ry     beta= 0.10
     Davidson diagonalization with overlap
     ethr =  3.08E-08,  avg # of iterations =  1.9

     negative rho (up, down):  0.000E+00 2.109E-03

     total cpu time spent up to now is      392.7 secs

     total energy              =   -5268.13028946 Ry
     Harris-Foulkes estimate   =   -5268.13026851 Ry
     estimated scf accuracy    <       0.00003721 Ry

     total magnetization       =    31.91 Bohr mag/cell
     absolute magnetization    =    33.40 Bohr mag/cell

     iteration # 16     ecut=    71.00 Ry     beta= 0.10
     Davidson diagonalization with overlap
     ethr =  1.45E-08,  avg # of iterations =  2.1

     negative rho (up, down):  0.000E+00 2.088E-03

     total cpu time spent up to now is      414.1 secs

     total energy              =   -5268.13029759 Ry
     Harris-Foulkes estimate   =   -5268.13029246 Ry
     estimated scf accuracy    <       0.00001403 Ry

     total magnetization       =    31.90 Bohr mag/cell
     absolute magnetization    =    33.38 Bohr mag/cell

     iteration # 17     ecut=    71.00 Ry     beta= 0.10
     Davidson diagonalization with overlap
     ethr =  5.48E-09,  avg # of iterations =  3.5

     negative rho (up, down):  0.000E+00 2.122E-03

     total cpu time spent up to now is      444.1 secs

     total energy              =   -5268.13030371 Ry
     Harris-Foulkes estimate   =   -5268.13030382 Ry
     estimated scf accuracy    <       0.00000737 Ry

     total magnetization       =    31.89 Bohr mag/cell
     absolute magnetization    =    33.35 Bohr mag/cell

     iteration # 18     ecut=    71.00 Ry     beta= 0.10
     Davidson diagonalization with overlap
     ethr =  2.88E-09,  avg # of iterations =  2.9

     negative rho (up, down):  0.000E+00 2.139E-03
 
     Magnetic moment per site:
     atom:    1    charge:   14.3170    magn:    2.0250    constr:    0.0000
     atom:    2    charge:   14.3171    magn:    2.0266    constr:    0.0000
     atom:    3    charge:   14.3172    magn:    2.0255    constr:    0.0000
     atom:    4    charge:   14.3171    magn:    2.0266    constr:    0.0000
     atom:    5    charge:   14.3172    magn:    2.0255    constr:    0.0000
     atom:    6    charge:   14.3171    magn:    2.0266    constr:    0.0000
     atom:    7    charge:   14.3173    magn:    2.0258    constr:    0.0000
     atom:    8    charge:   14.3171    magn:    2.0266    constr:    0.0000
     atom:    9    charge:   14.3172    magn:    2.0255    constr:    0.0000
     atom:   10    charge:   14.3171    magn:    2.0266    constr:    0.0000
     atom:   11    charge:   14.3173    magn:    2.0258    constr:    0.0000
     atom:   12    charge:   14.3171    magn:    2.0266    constr:    0.0000
     atom:   13    charge:   14.3173    magn:    2.0258    constr:    0.0000
     atom:   14    charge:   14.3171    magn:    2.0266    constr:    0.0000
     atom:   15    charge:   14.3172    magn:    2.0260    constr:    0.0000
     atom:   16    charge:   14.3171    magn:    2.0266    constr:    0.0000

     total cpu time spent up to now is      471.1 secs

     End of self-consistent calculation

 ------ SPIN UP ------------


          k = 0.0567 0.0567 0.0567 ( 11251 PWs)   bands (ev):

   -67.6913 -67.5931 -67.5931 -67.5930 -67.5770 -67.5770 -67.5769 -67.5758
   -67.5758 -67.5757 -67.5751 -67.5751 -67.5748 -67.5684 -67.5673 -67.4926
   -33.9604 -33.9604 -33.9604 -33.9576 -33.9576 -33.9575 -33.7970 -33.7970
   -33.7912 -33.7221 -33.7189 -33.7189 -33.7188 -33.6974 -33.6974 -33.6842
   -33.6842 -33.6842 -33.6479 -33.6479 -33.6241 -33.6089 -33.6088 -33.6088
   -33.5976 -33.5976 -33.5976 -33.5844 -33.5844 -33.5844 -33.5812 -33.5812
   -33.5812 -33.5736 -33.5735 -33.5735 -33.5629 -33.5629 -33.5628 -33.4022
   -33.4003 -33.4003 -33.4003 -33.3973 -33.3973 -33.3973 -33.3957 -33.3957
    11.4444  15.0247  15.0248  15.0248  15.0427  15.0427  15.0437  15.0437
    15.0437  15.1735  15.1735  15.1735  15.5781  15.5781  15.5781  16.7774
    16.7828  16.7828  16.7828  16.7967  16.7967  16.7968  16.8704  16.8704
    16.9456  16.9456  16.9456  17.0283  17.0283  17.0900  17.3189  17.3190
    17.3190  18.0337  18.0337  18.0796  18.3848  18.3848  18.3849  18.4723
    18.4723  18.4723  18.5733  18.5733  18.5733  18.6623  18.6624  18.6624
    19.3608  19.3609  19.3609  19.3926  19.3926  19.4335  19.4335  19.4335
    19.4888  19.4889  19.4889  19.4962  19.4963  19.4963  19.6041  19.6041
    19.6042  19.6306  19.6307  19.6307  19.6749  19.6749  19.6760  19.6760
    20.5649  20.5649  20.5649  20.6171  20.6172  20.6172  20.7683  20.8061
    20.8061  20.8061  20.8424  20.8424  21.2259  21.2259  21.2259  21.3811
    21.3811  21.3812

          k = 0.0567 0.0567 0.1701 ( 11298 PWs)   bands (ev):

   -67.6877 -67.6107 -67.5924 -67.5923 -67.5789 -67.5788 -67.5764 -67.5755
   -67.5755 -67.5746 -67.5743 -67.5741 -67.5690 -67.5679 -67.5591 -67.4953
   -33.9528 -33.9527 -33.9516 -33.9489 -33.9440 -33.9439 -33.8007 -33.7908
   -33.7814 -33.7583 -33.7497 -33.7496 -33.7474 -33.7470 -33.7162 -33.7162
   -33.6821 -33.6549 -33.6443 -33.6439 -33.6320 -33.6087 -33.6087 -33.5999
   -33.5904 -33.5881 -33.5881 -33.5870 -33.5866 -33.5786 -33.5786 -33.5741
   -33.5741 -33.5697 -33.5697 -33.5394 -33.5365 -33.5364 -33.5295 -33.4169
   -33.4097 -33.4097 -33.4081 -33.4055 -33.4013 -33.4003 -33.4002 -33.3982
    11.5824  14.6176  15.0490  15.0490  15.1040  15.1069  15.1069  15.1090
    15.1246  15.1423  15.2204  15.2204  15.6138  15.6138  15.7918  16.5782
    16.6616  16.7658  16.7685  16.7809  16.7933  16.8316  16.8317  16.8729
    16.8730  16.9064  16.9273  16.9274  17.2448  17.2448  17.2647  17.2647
    17.6781  18.0099  18.0306  18.1413  18.1731  18.1732  18.2362  18.3396
    18.3499  18.3500  18.6031  18.6031  18.7382  18.7382  18.8041  18.9023
    19.0047  19.0047  19.1232  19.3021  19.3022  19.3258  19.3644  19.4203
    19.4404  19.4404  19.5032  19.5053  19.5265  19.5265  19.5844  19.5844
    19.6333  19.6682  19.6706  19.6720  19.6751  19.8207  19.8207  19.8459
    19.9183  20.2104  20.2168  20.5113  20.5114  20.6056  20.6391  20.6392
    20.7134  20.8346  20.9473  20.9474  21.2582  21.2583  21.2897  21.2897
    21.6842  21.6842

          k = 0.0567 0.0567 0.2834 ( 11290 PWs)   bands (ev):

   -67.6810 -67.6279 -67.5909 -67.5908 -67.5812 -67.5811 -67.5755 -67.5751
   -67.5750 -67.5738 -67.5738 -67.5736 -67.5700 -67.5688 -67.5436 -67.5004
   -33.9348 -33.9348 -33.9341 -33.9320 -33.9204 -33.9203 -33.8015 -33.7993
   -33.7940 -33.7906 -33.7905 -33.7785 -33.7689 -33.7669 -33.7598 -33.7598
   -33.6776 -33.6672 -33.6652 -33.6498 -33.6066 -33.6065 -33.6012 -33.6007
   -33.5965 -33.5920 -33.5919 -33.5767 -33.5766 -33.5740 -33.5740 -33.5543
   -33.5469 -33.5351 -33.5350 -33.5070 -33.5037 -33.5036 -33.4977 -33.4419
   -33.4248 -33.4247 -33.4233 -33.4217 -33.4127 -33.4096 -33.4096 -33.4076
    11.8539  13.9840  15.1094  15.1094  15.2101  15.2101  15.2252  15.2340
    15.2807  15.2808  15.3167  15.3318  15.6384  15.6384  15.8294  16.2302
    16.5029  16.5576  16.7074  16.7434  16.7538  16.7641  16.9409  16.9410
    16.9667  16.9667  17.0093  17.0093  17.2535  17.2535  17.5119  17.5234
    17.8888  17.8889  17.9642  17.9964  18.0265  18.0488  18.0488  18.1266
    18.2324  18.3087  18.4919  18.4919  18.7659  18.7660  18.8101  18.8101
    18.8656  18.8656  18.8979  19.0779  19.1244  19.1865  19.1945  19.2921
    19.3651  19.3651  19.4587  19.4588  19.4735  19.5298  19.5459  19.6383
    19.6544  19.6569  19.6670  19.6742  19.8441  19.8743  19.8743  19.9592
    20.0787  20.1029  20.1029  20.3590  20.4799  20.5496  20.5496  20.6837
    20.6837  20.7648  20.9297  20.9297  21.1215  21.1215  21.4066  21.4066
    21.7959  21.7959

          k = 0.0567 0.0567 0.3968 ( 11303 PWs)   bands (ev):

   -67.6712 -67.6441 -67.5888 -67.5888 -67.5838 -67.5837 -67.5745 -67.5745
   -67.5742 -67.5737 -67.5736 -67.5726 -67.5713 -67.5699 -67.5297 -67.5079
   -33.9087 -33.9076 -33.9074 -33.9074 -33.8880 -33.8879 -33.8398 -33.8374
   -33.8329 -33.8329 -33.8050 -33.8050 -33.8000 -33.7844 -33.7603 -33.7477
   -33.7090 -33.6962 -33.6509 -33.6392 -33.6164 -33.6099 -33.6036 -33.6036
   -33.5959 -33.5959 -33.5754 -33.5754 -33.5742 -33.5742 -33.5568 -33.5127
   -33.5085 -33.5013 -33.5013 -33.4777 -33.4747 -33.4727 -33.4726 -33.4690
   -33.4456 -33.4456 -33.4452 -33.4452 -33.4297 -33.4249 -33.4249 -33.4232
    12.2498  13.3450  15.1909  15.1909  15.3044  15.3045  15.3423  15.3423
    15.4000  15.4035  15.5852  15.5948  15.5948  15.5958  15.7406  15.9126
    16.2313  16.2438  16.6861  16.7047  16.7148  16.7234  17.1055  17.1056
    17.1480  17.1480  17.1992  17.1992  17.3683  17.3684  17.6230  17.6230
    17.7469  17.7469  17.8556  17.8643  17.9775  17.9775  17.9954  18.0259
    18.0429  18.0533  18.2033  18.2034  18.3548  18.4955  18.6911  18.7050
    18.7509  19.0037  19.0083  19.0084  19.0251  19.0251  19.2656  19.2657
    19.3587  19.3587  19.3882  19.5044  19.5517  19.5640  19.5694  19.6310
    19.6328  19.6449  19.6601  19.6759  19.7205  19.7834  20.0536  20.1543
    20.1543  20.1774  20.2947  20.3788  20.3788  20.5178  20.5178  20.6455
    20.7520  20.7520  20.8101  20.8101  20.9759  20.9759  21.5542  21.5542
    21.7941  21.7941

          k = 0.0567 0.0567-0.5102 ( 11310 PWs)   bands (ev):

   -67.6588 -67.6586 -67.5864 -67.5864 -67.5863 -67.5862 -67.5741 -67.5741
   -67.5740 -67.5739 -67.5729 -67.5728 -67.5714 -67.5711 -67.5179 -67.5177
   -33.8765 -33.8763 -33.8762 -33.8760 -33.8729 -33.8729 -33.8729 -33.8729
   -33.8486 -33.8485 -33.8485 -33.8485 -33.7946 -33.7944 -33.7369 -33.7368
   -33.7242 -33.7240 -33.6338 -33.6336 -33.6253 -33.6251 -33.6001 -33.6001
   -33.6000 -33.6000 -33.5748 -33.5748 -33.5746 -33.5746 -33.5136 -33.5135
   -33.4762 -33.4760 -33.4743 -33.4742 -33.4711 -33.4711 -33.4711 -33.4710
   -33.4514 -33.4513 -33.4460 -33.4460 -33.4460 -33.4460 -33.4438 -33.4437
    12.7548  12.7548  15.2676  15.2676  15.2676  15.2676  15.4824  15.4824
    15.4824  15.4824  15.5812  15.5813  15.6346  15.6347  15.9053  15.9055
    15.9083  15.9085  16.6922  16.6923  16.7016  16.7017  17.3124  17.3124
    17.3124  17.3124  17.3911  17.3912  17.3912  17.3912  17.5673  17.5674
    17.5674  17.5674  17.7389  17.7390  17.7390  17.7390  18.0121  18.0121
    18.0340  18.0341  18.2635  18.2636  18.2693  18.2694  18.5088  18.5089
    18.7629  18.7630  19.1450  19.1451  19.1451  19.1451  19.2132  19.2133
    19.2133  19.2133  19.5999  19.6000  19.6010  19.6012  19.6525  19.6526
    19.6534  19.6536  19.6857  19.6857  19.7204  19.7206  19.8420  19.8422
    20.3815  20.3815  20.3815  20.3816  20.4863  20.4864  20.6201  20.6201
    20.6202  20.6202  20.8477  20.8477  20.8478  20.8478  21.6979  21.6979
    21.6980  21.6980

          k = 0.0567 0.1701 0.1701 ( 11289 PWs)   bands (ev):

   -67.6844 -67.6094 -67.6093 -67.5916 -67.5837 -67.5783 -67.5783 -67.5752
   -67.5739 -67.5737 -67.5704 -67.5697 -67.5682 -67.5594 -67.5593 -67.4977
   -33.9509 -33.9441 -33.9441 -33.9363 -33.9363 -33.9249 -33.8074 -33.7869
   -33.7814 -33.7760 -33.7759 -33.7686 -33.7661 -33.7615 -33.7372 -33.6925
   -33.6771 -33.6770 -33.6437 -33.6429 -33.6429 -33.6143 -33.6034 -33.6033
   -33.5978 -33.5949 -33.5949 -33.5841 -33.5841 -33.5808 -33.5783 -33.5699
   -33.5597 -33.5474 -33.5405 -33.5404 -33.5169 -33.5043 -33.5042 -33.4374
   -33.4247 -33.4157 -33.4157 -33.4081 -33.4080 -33.4061 -33.3970 -33.3958
    11.7187  14.6848  14.6848  15.0233  15.1504  15.1504  15.1644  15.1751
    15.2006  15.2048  15.2048  15.2761  15.6622  15.8287  15.8287  16.5580
    16.5860  16.5860  16.6706  16.8142  16.8142  16.8462  16.8510  16.8510
    16.8524  16.8889  16.9747  16.9761  17.1920  17.2463  17.2568  17.5703
    17.5703  17.9510  18.0160  18.0366  18.0367  18.0935  18.2252  18.2425
    18.5227  18.5228  18.5665  18.5666  18.6010  18.6488  18.7870  18.9227
    18.9227  18.9236  18.9237  19.2160  19.2160  19.3162  19.3498  19.3499
    19.3508  19.3619  19.4011  19.4574  19.4574  19.5195  19.5195  19.6093
    19.6594  19.6666  19.6696  19.6794  19.7337  19.9234  19.9372  20.0260
    20.0261  20.0534  20.0535  20.2086  20.2087  20.3901  20.4369  20.4369
    20.6176  20.6994  20.8607  21.0300  21.0667  21.3915  21.9527  21.9527
    22.1810  22.1810

          k = 0.0567 0.1701 0.2834 ( 11293 PWs)   bands (ev):

   -67.6779 -67.6261 -67.6069 -67.5902 -67.5889 -67.5806 -67.5773 -67.5748
   -67.5734 -67.5730 -67.5709 -67.5687 -67.5671 -67.5599 -67.5444 -67.5026
   -33.9387 -33.9273 -33.9272 -33.9214 -33.9142 -33.8960 -33.8141 -33.8136
   -33.8107 -33.7994 -33.7975 -33.7958 -33.7751 -33.7710 -33.7466 -33.7219
   -33.6813 -33.6760 -33.6402 -33.6389 -33.6365 -33.6338 -33.6159 -33.6074
   -33.6074 -33.5997 -33.5938 -33.5821 -33.5806 -33.5678 -33.5622 -33.5442
   -33.5424 -33.5279 -33.5197 -33.5089 -33.4920 -33.4747 -33.4743 -33.4675
   -33.4450 -33.4281 -33.4278 -33.4231 -33.4173 -33.4155 -33.4003 -33.3995
    11.9867  14.0724  14.7960  15.0189  15.2123  15.2791  15.3034  15.3077
    15.3273  15.3451  15.3530  15.3921  15.7095  15.8417  15.8730  16.2583
    16.4416  16.5311  16.6680  16.7692  16.7839  16.8135  16.8635  16.8900
    16.9143  16.9332  16.9729  17.1379  17.1426  17.4154  17.4512  17.5008
    17.7768  17.7962  17.8966  17.8981  17.9429  18.0003  18.0046  18.1462
    18.2528  18.3721  18.4273  18.5325  18.6642  18.7304  18.7758  18.8142
    18.8240  18.9004  18.9096  18.9304  18.9550  19.1209  19.1639  19.2181
    19.2551  19.3856  19.4413  19.4562  19.4901  19.5125  19.5224  19.6412
    19.6442  19.6509  19.6689  19.6893  19.7697  19.8899  19.9159  19.9366
    20.0656  20.1029  20.1065  20.1438  20.1948  20.2743  20.3218  20.3916
    20.5254  20.8179  20.8288  20.8447  21.0526  21.5765  21.7426  22.3625
    22.3807  22.6721

          k = 0.0567 0.1701 0.3968 ( 11291 PWs)   bands (ev):

   -67.6683 -67.6419 -67.6034 -67.5940 -67.5881 -67.5831 -67.5759 -67.5742
   -67.5734 -67.5725 -67.5720 -67.5697 -67.5644 -67.5609 -67.5309 -67.5099
   -33.9172 -33.9031 -33.9020 -33.8998 -33.8842 -33.8591 -33.8526 -33.8424
   -33.8363 -33.8350 -33.8165 -33.8097 -33.8083 -33.7699 -33.7572 -33.7239
   -33.7068 -33.6678 -33.6636 -33.6330 -33.6321 -33.6244 -33.6167 -33.6141
   -33.6064 -33.6052 -33.5893 -33.5815 -33.5811 -33.5554 -33.5457 -33.5322
   -33.5071 -33.5036 -33.4972 -33.4919 -33.4801 -33.4697 -33.4671 -33.4484
   -33.4473 -33.4460 -33.4453 -33.4451 -33.4337 -33.4280 -33.4098 -33.4097
    12.3769  13.4506  14.9093  15.0153  15.2942  15.3944  15.4398  15.4419
    15.4781  15.4793  15.6166  15.6507  15.6845  15.7715  15.7889  15.9577
    16.2381  16.2669  16.7185  16.7491  16.7634  16.7723  16.8911  17.0186
    17.0560  17.0702  17.1253  17.1862  17.3487  17.4594  17.6316  17.6886
    17.7067  17.7126  17.7421  17.7695  17.8642  17.8685  17.9287  17.9314
    17.9536  17.9831  18.1352  18.3191  18.4293  18.5072  18.5263  18.6616
    18.9037  19.0056  19.0176  19.0266  19.0386  19.0568  19.1208  19.1608
    19.2897  19.3534  19.4056  19.4530  19.5205  19.5335  19.5458  19.6134
    19.6211  19.6693  19.6948  19.7105  19.7563  19.7830  19.8565  19.9201
    19.9802  20.0590  20.0961  20.1785  20.1955  20.2696  20.4739  20.5054
    20.5787  20.5826  20.7694  20.9575  21.0266  21.5111  21.8102  22.2553
    22.5760  22.8227

          k = 0.0567 0.1701-0.5102 ( 11286 PWs)   bands (ev):

   -67.6562 -67.6560 -67.5991 -67.5989 -67.5857 -67.5856 -67.5743 -67.5742
   -67.5738 -67.5736 -67.5710 -67.5707 -67.5624 -67.5622 -67.5195 -67.5193
   -33.8877 -33.8877 -33.8729 -33.8728 -33.8725 -33.8723 -33.8702 -33.8702
   -33.8484 -33.8484 -33.8164 -33.8164 -33.8151 -33.8150 -33.7342 -33.7341
   -33.6975 -33.6975 -33.6444 -33.6442 -33.6255 -33.6253 -33.6203 -33.6202
   -33.6101 -33.6100 -33.5812 -33.5810 -33.5501 -33.5500 -33.5449 -33.5449
   -33.4992 -33.4992 -33.4734 -33.4732 -33.4695 -33.4694 -33.4667 -33.4667
   -33.4549 -33.4547 -33.4453 -33.4452 -33.4265 -33.4264 -33.4254 -33.4254
    12.8730  12.8731  14.9856  14.9856  15.3678  15.3678  15.5788  15.5788
    15.6282  15.6282  15.6361  15.6361  15.6960  15.6960  15.9379  15.9380
    15.9499  15.9500  16.7218  16.7219  16.7455  16.7456  17.1932  17.1932
    17.1953  17.1954  17.2367  17.2368  17.2553  17.2553  17.6350  17.6350
    17.6640  17.6640  17.7522  17.7522  17.8542  17.8543  17.8676  17.8677
    17.9633  17.9635  18.0800  18.0801  18.0847  18.0848  18.7039  18.7040
    18.8594  18.8595  19.0754  19.0755  19.1725  19.1725  19.2050  19.2050
    19.2430  19.2430  19.4463  19.4464  19.5792  19.5793  19.5796  19.5798
    19.6244  19.6245  19.6745  19.6745  19.7564  19.7564  19.7722  19.7724
    20.0265  20.0266  20.1467  20.1468  20.3361  20.3361  20.4115  20.4115
    20.6422  20.6423  20.7959  20.7959  21.2654  21.2654  22.0510  22.0511
    22.7579  22.7579

          k = 0.0567 0.2834 0.2834 ( 11308 PWs)   bands (ev):

   -67.6716 -67.6226 -67.6226 -67.5967 -67.5887 -67.5795 -67.5794 -67.5744
   -67.5727 -67.5727 -67.5724 -67.5692 -67.5611 -67.5460 -67.5459 -67.5072
   -33.9326 -33.9128 -33.9128 -33.9027 -33.9027 -33.8628 -33.8298 -33.8297
   -33.8268 -33.8262 -33.8169 -33.8141 -33.7917 -33.7640 -33.7222 -33.6825
   -33.6792 -33.6791 -33.6702 -33.6701 -33.6356 -33.6246 -33.6226 -33.6143
   -33.6143 -33.6008 -33.6007 -33.5925 -33.5924 -33.5868 -33.5489 -33.5207
   -33.5130 -33.5130 -33.5058 -33.5021 -33.4993 -33.4754 -33.4695 -33.4484
   -33.4483 -33.4356 -33.4356 -33.4278 -33.4273 -33.4273 -33.3969 -33.3964
    12.2473  14.2333  14.2333  14.9229  15.3785  15.4089  15.4090  15.4398
    15.4596  15.4647  15.4931  15.4932  15.8065  15.8918  15.8918  16.3762
    16.3762  16.3794  16.4529  16.8145  16.8165  16.8681  16.8682  16.8920
    16.9109  16.9110  16.9847  17.0332  17.3240  17.3678  17.4274  17.6496
    17.6497  17.7435  17.7436  17.7556  17.7985  17.8194  17.8914  17.9662
    18.2857  18.2857  18.4405  18.4405  18.4995  18.4996  18.5465  18.7026
    18.7870  18.7871  18.9003  18.9866  19.1063  19.1064  19.1535  19.2205
    19.4118  19.4119  19.4178  19.4256  19.4256  19.4623  19.4623  19.4908
    19.5719  19.6140  19.6298  19.6796  19.7137  19.7915  19.8927  19.8927
    19.8962  19.8962  19.9577  20.1201  20.1757  20.1845  20.1845  20.5201
    20.5202  20.5730  20.8952  21.0796  21.0884  21.8602  22.4215  22.4215
    23.0832  23.0832

          k = 0.0567 0.2834 0.3968 ( 11298 PWs)   bands (ev):

   -67.6625 -67.6375 -67.6177 -67.6044 -67.5868 -67.5819 -67.5779 -67.5742
   -67.5737 -67.5728 -67.5718 -67.5698 -67.5559 -67.5484 -67.5334 -67.5139
   -33.9169 -33.8921 -33.8916 -33.8862 -33.8776 -33.8637 -33.8462 -33.8402
   -33.8393 -33.8380 -33.8353 -33.8227 -33.8187 -33.7469 -33.7281 -33.6992
   -33.6949 -33.6711 -33.6613 -33.6368 -33.6341 -33.6331 -33.6329 -33.6287
   -33.6278 -33.6210 -33.6050 -33.5920 -33.5905 -33.5647 -33.5428 -33.5372
   -33.5192 -33.4978 -33.4933 -33.4860 -33.4835 -33.4790 -33.4593 -33.4473
   -33.4469 -33.4448 -33.4429 -33.4347 -33.4267 -33.4261 -33.4001 -33.3998
    12.6249  13.6510  14.4348  14.8002  15.4898  15.5169  15.5495  15.5987
    15.6232  15.6281  15.6803  15.7452  15.8188  15.8365  15.8371  16.1032
    16.2560  16.2776  16.6210  16.7771  16.8158  16.8207  16.8438  16.8569
    16.9732  17.0081  17.0093  17.0915  17.3465  17.4446  17.5213  17.5655
    17.5760  17.6552  17.7014  17.7209  17.7297  17.7446  17.8232  17.8818
    17.9266  17.9872  18.0704  18.1290  18.1649  18.2481  18.7411  18.7873
    18.8687  19.0280  19.0544  19.0584  19.0798  19.1067  19.1357  19.1790
    19.3273  19.3381  19.3607  19.3864  19.4505  19.4701  19.4803  19.4882
    19.5751  19.5920  19.6268  19.6960  19.6990  19.7042  19.7542  19.7774
    19.8428  19.8968  19.9584  19.9626  19.9822  20.1571  20.2185  20.3125
    20.6872  20.7444  20.8842  21.0339  21.4120  22.0982  22.1977  22.8504
    23.1314  23.7674

          k = 0.0567 0.2834-0.5102 ( 11296 PWs)   bands (ev):

   -67.6511 -67.6509 -67.6115 -67.6114 -67.5845 -67.5843 -67.5762 -67.5761
   -67.5732 -67.5730 -67.5709 -67.5707 -67.5518 -67.5516 -67.5227 -67.5225
   -33.8935 -33.8935 -33.8669 -33.8668 -33.8668 -33.8667 -33.8661 -33.8661
   -33.8485 -33.8485 -33.8396 -33.8396 -33.7768 -33.7768 -33.7250 -33.7249
   -33.6648 -33.6648 -33.6534 -33.6532 -33.6502 -33.6500 -33.6259 -33.6258
   -33.6182 -33.6181 -33.5918 -33.5917 -33.5876 -33.5876 -33.5300 -33.5300
   -33.5272 -33.5271 -33.4673 -33.4672 -33.4637 -33.4636 -33.4625 -33.4623
   -33.4613 -33.4613 -33.4456 -33.4456 -33.4101 -33.4101 -33.4097 -33.4097
    13.1018  13.1019  14.6351  14.6351  15.5528  15.5528  15.6757  15.6758
    15.7308  15.7308  15.7559  15.7559  15.8527  15.8528  15.9911  15.9912
    16.0235  16.0236  16.7762  16.7763  16.7997  16.7998  16.9578  16.9579
    16.9934  16.9935  17.0342  17.0343  17.2481  17.2481  17.6720  17.6720
    17.6798  17.6798  17.7081  17.7081  17.8018  17.8019  17.8161  17.8161
    17.8478  17.8478  17.8825  17.8826  17.8988  17.8988  18.9501  18.9501
    19.0036  19.0036  19.0466  19.0466  19.1089  19.1089  19.2195  19.2196
    19.2297  19.2297  19.2336  19.2336  19.5296  19.5297  19.5393  19.5394
    19.5709  19.5710  19.6013  19.6014  19.7187  19.7188  19.7233  19.7234
    19.8266  19.8266  19.9862  19.9862  20.0345  20.0345  20.1988  20.1988
    20.8121  20.8121  20.9198  20.9198  21.7572  21.7572  22.5412  22.5412
    23.8553  23.8553

          k = 0.0567 0.3968 0.3968 ( 11290 PWs)   bands (ev):

   -67.6542 -67.6312 -67.6311 -67.6143 -67.5849 -67.5803 -67.5802 -67.5762
   -67.5731 -67.5720 -67.5719 -67.5704 -67.5484 -67.5372 -67.5371 -67.5198
   -33.9076 -33.8776 -33.8776 -33.8689 -33.8689 -33.8665 -33.8664 -33.8519
   -33.8512 -33.8491 -33.8482 -33.8330 -33.7791 -33.7313 -33.6878 -33.6877
   -33.6823 -33.6822 -33.6689 -33.6631 -33.6558 -33.6398 -33.6398 -33.6380
   -33.6241 -33.6044 -33.6044 -33.5985 -33.5978 -33.5977 -33.5875 -33.5290
   -33.5208 -33.4948 -33.4947 -33.4763 -33.4701 -33.4668 -33.4564 -33.4526
   -33.4509 -33.4509 -33.4452 -33.4452 -33.4098 -33.4097 -33.3967 -33.3965
    12.9812  13.9234  13.9234  14.5360  15.6169  15.6981  15.7078  15.7519
    15.7520  15.8098  15.8099  15.8346  15.8646  15.8647  15.9698  16.2200
    16.2401  16.3478  16.3478  16.7693  16.8005  16.8137  16.8823  16.8824
    16.8872  16.8872  16.9036  17.0001  17.1667  17.4487  17.4569  17.4570
    17.5162  17.5991  17.6295  17.6704  17.7558  17.7559  17.7789  17.7789
    17.7893  17.7893  17.8171  17.8710  18.0361  18.4430  18.4431  18.9733
    19.0514  19.0685  19.0685  19.1006  19.1520  19.1837  19.1911  19.1911
    19.2052  19.3390  19.3965  19.3965  19.4053  19.4053  19.4455  19.4678
    19.4679  19.5195  19.5275  19.5438  19.6343  19.6343  19.6471  19.7303
    19.8074  19.8420  19.8421  19.9307  20.0143  20.0143  20.0420  20.0855
    20.8664  20.8665  20.9420  21.0446  21.8394  22.6353  22.7127  22.7127
    23.4925  23.4925

          k = 0.0567 0.3968-0.5102 ( 11306 PWs)   bands (ev):

   -67.6437 -67.6435 -67.6234 -67.6233 -67.5827 -67.5826 -67.5784 -67.5782
   -67.5726 -67.5724 -67.5712 -67.5710 -67.5423 -67.5421 -67.5277 -67.5275
   -33.8905 -33.8905 -33.8623 -33.8622 -33.8621 -33.8621 -33.8620 -33.8619
   -33.8599 -33.8598 -33.8502 -33.8501 -33.7316 -33.7316 -33.7114 -33.7112
   -33.6732 -33.6730 -33.6573 -33.6573 -33.6422 -33.6421 -33.6349 -33.6348
   -33.6306 -33.6306 -33.6160 -33.6160 -33.6029 -33.6028 -33.5627 -33.5627
   -33.5066 -33.5064 -33.4739 -33.4737 -33.4596 -33.4595 -33.4587 -33.4586
   -33.4576 -33.4576 -33.4477 -33.4477 -33.4000 -33.4000 -33.3999 -33.3998
    13.4245  13.4246  14.2325  14.2325  15.7239  15.7240  15.7694  15.7694
    15.7815  15.7815  15.9691  15.9691  16.0271  16.0272  16.0806  16.0807
    16.1040  16.1040  16.6565  16.6566  16.8085  16.8085  16.8159  16.8160
    16.8280  16.8281  16.8949  16.8950  17.2907  17.2907  17.5092  17.5092
    17.5689  17.5690  17.6062  17.6062  17.6087  17.6087  17.6269  17.6270
    17.8274  17.8275  17.8580  17.8580  18.1142  18.1142  18.7587  18.7587
    19.0903  19.0904  19.1385  19.1385  19.2211  19.2211  19.2350  19.2350
    19.2776  19.2776  19.3108  19.3109  19.3976  19.3977  19.4550  19.4551
    19.4785  19.4786  19.5085  19.5086  19.5557  19.5558  19.7613  19.7613
    19.7743  19.7743  19.8860  19.8861  19.8891  19.8892  20.0464  20.0465
    20.9349  20.9349  20.9882  20.9882  22.2787  22.2788  23.0783  23.0784
    23.3376  23.3376

          k = 0.0567-0.5102-0.5102 ( 11308 PWs)   bands (ev):

   -67.6343 -67.6343 -67.6343 -67.6340 -67.5806 -67.5806 -67.5806 -67.5803
   -67.5718 -67.5718 -67.5718 -67.5714 -67.5343 -67.5343 -67.5343 -67.5340
   -33.8797 -33.8797 -33.8796 -33.8796 -33.8604 -33.8603 -33.8603 -33.8602
   -33.8538 -33.8537 -33.8537 -33.8536 -33.6942 -33.6941 -33.6941 -33.6938
   -33.6837 -33.6837 -33.6836 -33.6836 -33.6535 -33.6535 -33.6534 -33.6534
   -33.6113 -33.6113 -33.6112 -33.6112 -33.5967 -33.5967 -33.5966 -33.5966
   -33.4886 -33.4885 -33.4885 -33.4883 -33.4565 -33.4564 -33.4564 -33.4563
   -33.4525 -33.4524 -33.4524 -33.4523 -33.3965 -33.3965 -33.3964 -33.3964
    13.8141  13.8141  13.8141  13.8142  15.7613  15.7613  15.7613  15.7614
    15.9689  15.9690  15.9690  15.9690  16.1142  16.1143  16.1143  16.1143
    16.3562  16.3562  16.3562  16.3563  16.7678  16.7679  16.7679  16.7679
    16.8258  16.8259  16.8259  16.8259  17.3796  17.3796  17.3797  17.3797
    17.5191  17.5192  17.5192  17.5193  17.5667  17.5667  17.5667  17.5668
    17.8196  17.8196  17.8196  17.8197  18.4214  18.4214  18.4215  18.4215
    19.2137  19.2138  19.2138  19.2140  19.2302  19.2302  19.2302  19.2303
    19.3647  19.3647  19.3647  19.3648  19.3993  19.3994  19.3994  19.3995
    19.4830  19.4831  19.4831  19.4832  19.4900  19.4900  19.4901  19.4901
    19.8258  19.8258  19.8258  19.8259  19.9503  19.9503  19.9504  19.9504
    20.9943  20.9943  20.9944  20.9944  22.8096  22.8096  22.8096  22.8096
    23.6241  23.6241

          k = 0.1701 0.1701 0.1701 ( 11296 PWs)   bands (ev):

   -67.6811 -67.6082 -67.6082 -67.6080 -67.5831 -67.5831 -67.5830 -67.5713
   -67.5701 -67.5701 -67.5699 -67.5676 -67.5596 -67.5596 -67.5595 -67.5001
   -33.9420 -33.9420 -33.9420 -33.9187 -33.9187 -33.9187 -33.8017 -33.8009
   -33.8009 -33.7929 -33.7929 -33.7928 -33.7469 -33.7406 -33.7406 -33.6995
   -33.6994 -33.6994 -33.6501 -33.6500 -33.6500 -33.6062 -33.6062 -33.6062
   -33.5965 -33.5965 -33.5791 -33.5790 -33.5790 -33.5743 -33.5743 -33.5743
   -33.5432 -33.5432 -33.5432 -33.5347 -33.4881 -33.4881 -33.4880 -33.4585
   -33.4282 -33.4282 -33.4282 -33.4053 -33.4052 -33.4052 -33.4016 -33.4016
    11.8535  14.7577  14.7577  14.7577  15.1288  15.1288  15.1288  15.2323
    15.2323  15.2961  15.2961  15.2961  15.8823  15.8823  15.8823  16.4720
    16.5735  16.5735  16.5735  16.7640  16.7640  16.8350  16.8351  16.8351
    16.9440  16.9440  16.9441  17.1518  17.1518  17.1698  17.4561  17.4561
    17.4561  17.9388  17.9388  17.9717  17.9717  17.9718  18.3555  18.3765
    18.3765  18.3765  18.5344  18.5344  18.5344  18.5921  18.5921  18.5921
    18.9916  18.9917  18.9917  19.2333  19.2333  19.2333  19.3482  19.3482
    19.3821  19.3821  19.3821  19.5324  19.5325  19.5325  19.5872  19.5872
    19.5872  19.6125  19.6125  19.6125  19.6541  19.6541  19.6800  19.6800
    20.1302  20.1437  20.1437  20.1438  20.2247  20.2248  20.2248  20.6692
    20.6692  20.6692  20.7321  20.7321  21.5917  21.5917  21.5917  22.3128
    22.3128  22.3128

          k = 0.1701 0.1701 0.2834 ( 11305 PWs)   bands (ev):

   -67.6747 -67.6243 -67.6058 -67.6057 -67.5881 -67.5881 -67.5817 -67.5732
   -67.5695 -67.5675 -67.5669 -67.5668 -67.5602 -67.5601 -67.5451 -67.5048
   -33.9304 -33.9304 -33.9249 -33.9063 -33.8920 -33.8919 -33.8232 -33.8204
   -33.8203 -33.8121 -33.8098 -33.7879 -33.7870 -33.7355 -33.7354 -33.7241
   -33.7180 -33.6846 -33.6573 -33.6513 -33.6512 -33.6220 -33.6178 -33.6178
   -33.6107 -33.6044 -33.5819 -33.5660 -33.5660 -33.5516 -33.5490 -33.5490
   -33.5460 -33.5460 -33.5100 -33.5094 -33.4894 -33.4665 -33.4664 -33.4618
   -33.4453 -33.4453 -33.4360 -33.4211 -33.4132 -33.4077 -33.4076 -33.4022
    12.1185  14.1641  14.8798  14.8798  15.1282  15.1282  15.3323  15.3453
    15.3597  15.4218  15.4218  15.4778  15.9235  15.9235  15.9377  16.2651
    16.3900  16.6201  16.6201  16.6337  16.7236  16.8045  16.8897  16.9112
    16.9112  16.9763  17.0854  17.0854  17.2646  17.3558  17.3558  17.3747
    17.6518  17.7960  17.7961  17.8636  17.8726  17.9158  18.1010  18.1010
    18.1232  18.1232  18.3934  18.5074  18.5745  18.6314  18.7232  18.7232
    18.7847  18.7847  18.8048  19.0451  19.0452  19.2457  19.2501  19.2997
    19.2998  19.3194  19.4082  19.4373  19.4830  19.4830  19.5172  19.6187
    19.6326  19.6489  19.6641  19.7064  19.7288  19.7288  19.7471  19.7471
    19.8155  19.9240  20.2870  20.2870  20.2905  20.2956  20.2957  20.3420
    20.5004  20.7491  20.7492  20.7748  21.2864  21.2864  22.2804  22.5406
    22.5406  23.1421

          k = 0.1701 0.1701 0.3968 ( 11305 PWs)   bands (ev):

   -67.6654 -67.6397 -67.6023 -67.6022 -67.5932 -67.5931 -67.5799 -67.5755
   -67.5689 -67.5677 -67.5644 -67.5643 -67.5611 -67.5610 -67.5321 -67.5118
   -33.9103 -33.9103 -33.8999 -33.8892 -33.8576 -33.8576 -33.8522 -33.8521
   -33.8462 -33.8297 -33.8197 -33.8190 -33.7768 -33.7768 -33.7691 -33.7166
   -33.6992 -33.6931 -33.6469 -33.6469 -33.6435 -33.6413 -33.6293 -33.6293
   -33.6131 -33.6051 -33.5909 -33.5590 -33.5590 -33.5493 -33.5493 -33.5267
   -33.5190 -33.5190 -33.5107 -33.4855 -33.4797 -33.4664 -33.4664 -33.4481
   -33.4456 -33.4455 -33.4443 -33.4396 -33.4306 -33.4152 -33.4151 -33.4089
    12.5034  13.5579  15.0068  15.0068  15.1266  15.1266  15.5108  15.5281
    15.5730  15.5730  15.6173  15.7258  15.8628  15.8673  15.8673  15.9783
    16.2465  16.3179  16.7169  16.7681  16.8150  16.8150  16.8312  16.8335
    17.0352  17.0353  17.2372  17.2373  17.3013  17.3014  17.5407  17.6349
    17.6669  17.6670  17.6945  17.6946  17.7711  17.8107  17.8114  17.8578
    17.8578  17.8830  18.1781  18.1838  18.1838  18.3328  18.6836  18.7578
    18.8325  19.0095  19.0095  19.0927  19.0927  19.0967  19.1011  19.2197
    19.2197  19.3765  19.3765  19.4762  19.4930  19.5049  19.5356  19.5506
    19.6030  19.6267  19.6276  19.6423  19.7335  19.7572  19.8252  19.8252
    19.8669  19.8670  20.0195  20.2021  20.4554  20.4555  20.4666  20.4666
    20.5177  20.7214  20.7214  20.7461  20.9980  20.9980  22.8099  22.8099
    23.0095  23.1973

          k = 0.1701 0.1701-0.5102 ( 11316 PWs)   bands (ev):

   -67.6537 -67.6535 -67.5980 -67.5980 -67.5979 -67.5978 -67.5779 -67.5777
   -67.5683 -67.5681 -67.5626 -67.5625 -67.5624 -67.5623 -67.5210 -67.5209
   -33.8834 -33.8834 -33.8834 -33.8834 -33.8689 -33.8688 -33.8678 -33.8676
   -33.8223 -33.8222 -33.8186 -33.8186 -33.8186 -33.8186 -33.7452 -33.7450
   -33.6712 -33.6711 -33.6681 -33.6679 -33.6394 -33.6394 -33.6392 -33.6392
   -33.5998 -33.5997 -33.5689 -33.5689 -33.5535 -33.5535 -33.5534 -33.5534
   -33.4911 -33.4911 -33.4911 -33.4911 -33.4747 -33.4745 -33.4648 -33.4647
   -33.4532 -33.4530 -33.4278 -33.4278 -33.4278 -33.4277 -33.4216 -33.4216
    12.9917  12.9918  15.0933  15.0933  15.0933  15.0933  15.7093  15.7094
    15.7239  15.7240  15.7324  15.7324  15.7324  15.7324  15.9585  15.9586
    16.0035  16.0036  16.7354  16.7355  16.7970  16.7971  17.1197  17.1197
    17.1197  17.1198  17.1870  17.1870  17.1870  17.1871  17.6293  17.6293
    17.6293  17.6294  17.7914  17.7915  17.7955  17.7955  17.7955  17.7955
    17.8388  17.8389  17.9045  17.9046  17.9130  17.9130  18.8813  18.8813
    18.9291  18.9291  19.1401  19.1401  19.1493  19.1493  19.1494  19.1494
    19.2153  19.2153  19.2153  19.2153  19.5682  19.5684  19.5717  19.5719
    19.5989  19.5991  19.6345  19.6346  19.8518  19.8518  19.8752  19.8754
    19.8772  19.8772  19.8773  19.8773  20.6184  20.6184  20.6184  20.6184
    20.6566  20.6567  20.7136  20.7137  20.7137  20.7137  23.0556  23.0556
    23.0557  23.0557

          k = 0.1701 0.2834 0.2834 ( 11310 PWs)   bands (ev):

   -67.6686 -67.6210 -67.6209 -67.6034 -67.5957 -67.5866 -67.5865 -67.5759
   -67.5668 -67.5667 -67.5665 -67.5611 -67.5606 -67.5466 -67.5465 -67.5092
   -33.9240 -33.9142 -33.9142 -33.8841 -33.8841 -33.8611 -33.8355 -33.8337
   -33.8334 -33.8333 -33.8192 -33.7965 -33.7847 -33.7594 -33.7291 -33.6981
   -33.6944 -33.6943 -33.6853 -33.6853 -33.6618 -33.6368 -33.6367 -33.6356
   -33.5895 -33.5795 -33.5794 -33.5722 -33.5722 -33.5513 -33.5502 -33.5347
   -33.5250 -33.5224 -33.5134 -33.5134 -33.4912 -33.4660 -33.4548 -33.4474
   -33.4474 -33.4442 -33.4442 -33.4224 -33.4224 -33.4205 -33.4048 -33.4023
    12.3767  14.3315  14.3315  15.0246  15.0386  15.3391  15.3391  15.4506
    15.4888  15.5532  15.6006  15.6007  15.9858  15.9858  16.0350  16.3532
    16.3532  16.3580  16.5814  16.5855  16.7724  16.8721  16.8721  16.9624
    16.9977  16.9977  17.0025  17.1491  17.2197  17.2459  17.3342  17.5111
    17.5111  17.7143  17.7225  17.7225  17.7247  17.7757  17.8588  17.9377
    18.0050  18.0050  18.2816  18.2816  18.3794  18.3794  18.4588  18.6924
    18.8202  18.8202  18.8843  19.1432  19.2248  19.2530  19.2530  19.2555
    19.3773  19.3773  19.3848  19.4463  19.4666  19.4666  19.4771  19.5756
    19.5780  19.5781  19.6073  19.6428  19.6633  19.6655  19.6655  19.7349
    19.8193  19.9170  19.9171  20.2897  20.3830  20.4047  20.4048  20.4741
    20.4742  20.5072  20.7664  20.8420  20.9373  21.8886  21.8886  22.8391
    23.6969  23.6969

          k = 0.1701 0.2834 0.3968 ( 11311 PWs)   bands (ev):

   -67.6597 -67.6354 -67.6161 -67.6032 -67.6000 -67.5913 -67.5844 -67.5789
   -67.5664 -67.5662 -67.5643 -67.5614 -67.5562 -67.5489 -67.5345 -67.5157
   -33.9092 -33.8969 -33.8908 -33.8732 -33.8609 -33.8554 -33.8529 -33.8481
   -33.8387 -33.8301 -33.8277 -33.8237 -33.7899 -33.7683 -33.7375 -33.7168
   -33.7124 -33.6788 -33.6702 -33.6647 -33.6611 -33.6526 -33.6504 -33.6502
   -33.6100 -33.5880 -33.5791 -33.5645 -33.5619 -33.5542 -33.5480 -33.5384
   -33.5192 -33.5026 -33.5013 -33.4905 -33.4836 -33.4750 -33.4621 -33.4525
   -33.4435 -33.4430 -33.4363 -33.4274 -33.4261 -33.4259 -33.4071 -33.4049
    12.7505  13.7616  14.5419  14.9187  15.1826  15.3395  15.5927  15.6348
    15.6697  15.6934  15.7519  15.8411  15.9135  15.9366  16.0379  16.1049
    16.2853  16.3416  16.5903  16.6925  16.7625  16.8254  16.8849  16.9039
    16.9747  17.0636  17.0777  17.1414  17.2941  17.3114  17.3674  17.4759
    17.4851  17.5965  17.6106  17.6527  17.6645  17.6911  17.7084  17.7436
    17.8085  17.8573  17.9392  17.9878  17.9891  18.0586  18.5062  18.9015
    18.9153  19.0282  19.0480  19.1274  19.1710  19.1799  19.2098  19.2137
    19.3192  19.3609  19.3657  19.3674  19.4482  19.4694  19.4862  19.5159
    19.5686  19.6098  19.6258  19.6428  19.6489  19.6925  19.7146  19.7406
    19.8035  19.8284  20.0386  20.1174  20.1242  20.3285  20.4265  20.6213
    20.6235  20.6291  20.7711  20.8192  20.8385  21.5232  22.5349  23.1886
    23.7669  23.8704

          k = 0.1701 0.2834-0.5102 ( 11308 PWs)   bands (ev):

   -67.6487 -67.6485 -67.6102 -67.6100 -67.5960 -67.5958 -67.5818 -67.5816
   -67.5663 -67.5661 -67.5627 -67.5625 -67.5522 -67.5520 -67.5242 -67.5240
   -33.8872 -33.8872 -33.8753 -33.8753 -33.8613 -33.8612 -33.8607 -33.8606
   -33.8372 -33.8372 -33.8231 -33.8230 -33.7816 -33.7816 -33.7451 -33.7449
   -33.6877 -33.6876 -33.6674 -33.6673 -33.6602 -33.6601 -33.6403 -33.6403
   -33.6058 -33.6057 -33.5849 -33.5848 -33.5587 -33.5586 -33.5277 -33.5275
   -33.5179 -33.5179 -33.4801 -33.4801 -33.4708 -33.4706 -33.4618 -33.4617
   -33.4581 -33.4579 -33.4330 -33.4330 -33.4147 -33.4147 -33.4130 -33.4130
    13.2213  13.2214  14.7503  14.7504  15.2957  15.2957  15.7603  15.7603
    15.8280  15.8280  15.8788  15.8789  15.9125  15.9125  15.9863  15.9864
    16.0973  16.0974  16.7832  16.7833  16.8457  16.8457  16.9243  16.9244
    16.9438  16.9439  17.0783  17.0783  17.2056  17.2056  17.5940  17.5940
    17.6189  17.6190  17.6350  17.6351  17.6527  17.6527  17.6711  17.6712
    17.7154  17.7154  17.7534  17.7535  17.7651  17.7651  18.7953  18.7953
    19.0410  19.0410  19.1325  19.1325  19.1762  19.1762  19.2162  19.2163
    19.2200  19.2200  19.2667  19.2667  19.5253  19.5255  19.5527  19.5528
    19.5571  19.5572  19.6442  19.6443  19.6798  19.6798  19.7981  19.7981
    19.8133  19.8135  19.9273  19.9273  20.3181  20.3181  20.3881  20.3881
    20.7235  20.7235  20.7607  20.7608  21.1665  21.1665  23.1984  23.1984
    23.5235  23.5235

          k = 0.1701 0.3968 0.3968 ( 11307 PWs)   bands (ev):

   -67.6516 -67.6293 -67.6293 -67.6128 -67.5969 -67.5889 -67.5888 -67.5823
   -67.5652 -67.5645 -67.5643 -67.5619 -67.5490 -67.5382 -67.5381 -67.5214
   -33.8997 -33.8782 -33.8782 -33.8617 -33.8617 -33.8568 -33.8526 -33.8526
   -33.8492 -33.8439 -33.8374 -33.8086 -33.7834 -33.7550 -33.7133 -33.7083
   -33.7082 -33.6939 -33.6938 -33.6774 -33.6748 -33.6748 -33.6745 -33.6394
   -33.6038 -33.5804 -33.5780 -33.5779 -33.5707 -33.5707 -33.5596 -33.5201
   -33.5174 -33.4922 -33.4922 -33.4842 -33.4841 -33.4661 -33.4599 -33.4599
   -33.4500 -33.4423 -33.4423 -33.4414 -33.4141 -33.4140 -33.4041 -33.4028
    13.1049  14.0386  14.0386  14.6575  15.3912  15.6331  15.6331  15.6969
    15.7933  15.8711  15.9047  15.9047  15.9875  15.9875  16.1908  16.2374
    16.3127  16.3516  16.3516  16.6232  16.8083  16.8437  16.9034  16.9035
    16.9195  16.9195  16.9976  17.0262  17.1392  17.2263  17.4146  17.4146
    17.4180  17.5097  17.5696  17.5894  17.5894  17.6197  17.6476  17.6497
    17.6497  17.6633  17.6634  17.7475  17.8533  18.1872  18.1873  18.7781
    19.0862  19.0862  19.1400  19.1493  19.1963  19.2173  19.3184  19.3340
    19.3956  19.3957  19.3979  19.3980  19.4300  19.4321  19.4321  19.5141
    19.5293  19.5891  19.5892  19.5990  19.6576  19.7004  19.7005  19.7099
    19.7100  19.7920  19.8690  19.8976  20.1710  20.1710  20.2329  20.3004
    20.7448  20.7449  20.8098  20.8737  21.2280  22.0886  22.0886  23.2630
    23.6278  24.4219

          k = 0.1701 0.3968-0.5102 ( 11310 PWs)   bands (ev):

   -67.6414 -67.6413 -67.6217 -67.6215 -67.5932 -67.5930 -67.5858 -67.5857
   -67.5647 -67.5645 -67.5631 -67.5629 -67.5431 -67.5429 -67.5290 -67.5288
   -33.8833 -33.8833 -33.8660 -33.8659 -33.8567 -33.8566 -33.8555 -33.8555
   -33.8506 -33.8505 -33.8302 -33.8301 -33.7391 -33.7391 -33.7342 -33.7341
   -33.6980 -33.6979 -33.6937 -33.6935 -33.6811 -33.6811 -33.6488 -33.6488
   -33.6084 -33.6083 -33.5759 -33.5758 -33.5647 -33.5646 -33.5470 -33.5470
   -33.5045 -33.5043 -33.4704 -33.4704 -33.4691 -33.4690 -33.4624 -33.4623
   -33.4609 -33.4608 -33.4412 -33.4412 -33.4064 -33.4064 -33.4060 -33.4060
    13.5450  13.5450  14.3521  14.3522  15.5593  15.5593  15.8106  15.8106
    15.8646  15.8646  15.9632  15.9633  16.1062  16.1063  16.1383  16.1383
    16.2154  16.2155  16.6603  16.6603  16.7702  16.7703  16.8175  16.8175
    16.8424  16.8424  16.9668  16.9668  17.2584  17.2584  17.3833  17.3834
    17.4764  17.4764  17.4791  17.4792  17.4890  17.4890  17.5296  17.5297
    17.6966  17.6966  17.7063  17.7063  17.8964  17.8964  18.4561  18.4562
    19.1633  19.1633  19.2381  19.2382  19.2751  19.2752  19.2765  19.2765
    19.3874  19.3874  19.4068  19.4068  19.4518  19.4519  19.4992  19.4993
    19.5321  19.5322  19.5502  19.5503  19.6392  19.6393  19.6762  19.6763
    19.7501  19.7502  19.9855  19.9856  19.9926  19.9926  20.1916  20.1916
    20.8058  20.8058  20.8380  20.8380  21.6547  21.6547  22.6708  22.6709
    24.0629  24.0630

          k = 0.1701-0.5102-0.5102 ( 11280 PWs)   bands (ev):

   -67.6323 -67.6322 -67.6322 -67.6319 -67.5897 -67.5897 -67.5897 -67.5894
   -67.5637 -67.5636 -67.5636 -67.5634 -67.5353 -67.5353 -67.5353 -67.5350
   -33.8720 -33.8720 -33.8719 -33.8719 -33.8584 -33.8583 -33.8583 -33.8582
   -33.8397 -33.8396 -33.8396 -33.8396 -33.7164 -33.7163 -33.7163 -33.7161
   -33.6954 -33.6954 -33.6953 -33.6953 -33.6940 -33.6940 -33.6939 -33.6939
   -33.5773 -33.5772 -33.5772 -33.5772 -33.5700 -33.5699 -33.5699 -33.5699
   -33.4846 -33.4845 -33.4845 -33.4843 -33.4639 -33.4638 -33.4638 -33.4638
   -33.4517 -33.4516 -33.4516 -33.4515 -33.4033 -33.4033 -33.4032 -33.4032
    13.9350  13.9351  13.9351  13.9351  15.8146  15.8146  15.8146  15.8147
    15.8523  15.8523  15.8523  15.8523  16.2820  16.2820  16.2820  16.2820
    16.3761  16.3761  16.3761  16.3762  16.7110  16.7111  16.7111  16.7111
    16.8896  16.8897  16.8897  16.8897  17.3490  17.3490  17.3491  17.3491
    17.3502  17.3503  17.3503  17.3504  17.4675  17.4675  17.4675  17.4676
    17.6773  17.6773  17.6773  17.6774  18.1493  18.1493  18.1494  18.1494
    19.2437  19.2437  19.2437  19.2438  19.3626  19.3627  19.3627  19.3628
    19.4402  19.4403  19.4403  19.4404  19.4791  19.4791  19.4791  19.4793
    19.4797  19.4797  19.4797  19.4798  19.6944  19.6944  19.6945  19.6945
    19.7122  19.7123  19.7123  19.7124  20.0606  20.0606  20.0606  20.0606
    20.8513  20.8513  20.8514  20.8514  22.1582  22.1583  22.1583  22.1583
    24.6124  24.6124

          k = 0.2834 0.2834 0.2834 ( 11302 PWs)   bands (ev):

   -67.6628 -67.6178 -67.6178 -67.6176 -67.5938 -67.5938 -67.5937 -67.5798
   -67.5647 -67.5613 -67.5613 -67.5612 -67.5480 -67.5480 -67.5478 -67.5132
   -33.9073 -33.9073 -33.9073 -33.8577 -33.8577 -33.8577 -33.8422 -33.8422
   -33.8421 -33.8414 -33.8056 -33.8056 -33.7737 -33.7737 -33.7212 -33.7211
   -33.7211 -33.6976 -33.6975 -33.6975 -33.6700 -33.6588 -33.6588 -33.6588
   -33.5548 -33.5543 -33.5543 -33.5543 -33.5527 -33.5526 -33.5526 -33.5461
   -33.5461 -33.5155 -33.5154 -33.5154 -33.4785 -33.4622 -33.4622 -33.4622
   -33.4373 -33.4373 -33.4372 -33.4202 -33.4201 -33.4201 -33.4147 -33.4147
    12.6300  14.5125  14.5125  14.5125  15.2628  15.2628  15.2628  15.5850
    15.5850  15.7305  15.7305  15.7305  16.1303  16.1304  16.1304  16.3420
    16.3420  16.3420  16.3701  16.7636  16.7636  16.8220  16.9223  16.9224
    16.9224  17.1178  17.1178  17.1179  17.1388  17.1388  17.3714  17.3715
    17.3715  17.6158  17.6158  17.6159  17.6607  17.6607  17.6607  17.7310
    17.7310  18.0157  18.0157  18.0157  18.0933  18.0933  18.0933  18.9007
    18.9297  18.9298  18.9298  19.1202  19.3208  19.3208  19.3414  19.3414
    19.3414  19.3617  19.3617  19.3617  19.4434  19.4434  19.4434  19.5819
    19.5819  19.5819  19.6040  19.6040  19.7024  19.7025  19.7025  19.7259
    19.7259  20.0682  20.0682  20.0682  20.4426  20.4426  20.4427  20.5244
    20.5245  20.5245  20.5364  20.5364  21.4562  21.4563  21.4563  23.8762
    24.0039  24.0039

          k = 0.2834 0.2834 0.3968 ( 11312 PWs)   bands (ev):

   -67.6544 -67.6314 -67.6132 -67.6131 -67.6009 -67.6008 -67.5910 -67.5838
   -67.5632 -67.5616 -67.5568 -67.5567 -67.5501 -67.5500 -67.5367 -67.5192
   -33.8939 -33.8939 -33.8831 -33.8571 -33.8571 -33.8541 -33.8458 -33.8430
   -33.8260 -33.8260 -33.8237 -33.8154 -33.7860 -33.7547 -33.7547 -33.7470
   -33.7310 -33.7002 -33.7001 -33.6868 -33.6793 -33.6780 -33.6780 -33.6404
   -33.5934 -33.5812 -33.5569 -33.5540 -33.5394 -33.5394 -33.5261 -33.5260
   -33.5202 -33.5202 -33.5066 -33.4836 -33.4804 -33.4803 -33.4685 -33.4604
   -33.4428 -33.4324 -33.4302 -33.4302 -33.4242 -33.4210 -33.4209 -33.4127
    12.9952  13.9721  14.7424  14.7424  15.1479  15.1479  15.5804  15.7249
    15.7610  15.8734  15.8734  15.9678  16.0878  16.1119  16.1263  16.1263
    16.3582  16.3906  16.5269  16.5269  16.7829  16.8724  16.9415  16.9812
    17.0133  17.0133  17.0385  17.1622  17.1622  17.2519  17.2519  17.2882
    17.3988  17.3988  17.4920  17.5191  17.5192  17.5617  17.5629  17.6273
    17.6685  17.7083  17.7599  17.7599  17.7634  17.7634  18.1813  18.7644
    19.0179  19.0826  19.0826  19.1374  19.2313  19.3338  19.3338  19.3664
    19.3664  19.3824  19.3824  19.4105  19.4714  19.4719  19.5604  19.5867
    19.5891  19.6006  19.6017  19.6017  19.6307  19.6774  19.7003  19.7003
    19.7271  19.8322  20.2299  20.2454  20.3697  20.3697  20.4686  20.4687
    20.5553  20.5553  20.5579  20.6147  21.0756  21.0756  22.0312  23.2413
    24.3578  24.3578

          k = 0.2834 0.2834-0.5102 ( 11322 PWs)   bands (ev):

   -67.6439 -67.6437 -67.6075 -67.6075 -67.6074 -67.6072 -67.5877 -67.5875
   -67.5623 -67.5621 -67.5531 -67.5530 -67.5529 -67.5528 -67.5271 -67.5269
   -33.8758 -33.8758 -33.8758 -33.8758 -33.8523 -33.8522 -33.8499 -33.8498
   -33.8365 -33.8364 -33.7909 -33.7909 -33.7909 -33.7908 -33.7610 -33.7608
   -33.7175 -33.7174 -33.6927 -33.6927 -33.6927 -33.6926 -33.6361 -33.6361
   -33.6106 -33.6105 -33.5573 -33.5572 -33.5280 -33.5280 -33.5279 -33.5279
   -33.5018 -33.5018 -33.5017 -33.5017 -33.4719 -33.4718 -33.4625 -33.4624
   -33.4559 -33.4558 -33.4244 -33.4244 -33.4244 -33.4244 -33.4160 -33.4160
    13.4524  13.4525  14.9703  14.9703  14.9704  14.9704  15.9029  15.9029
    15.9453  15.9454  15.9680  15.9681  16.0135  16.0135  16.0135  16.0135
    16.2132  16.2132  16.8224  16.8225  16.8495  16.8495  16.8495  16.8496
    16.8906  16.8907  17.1315  17.1315  17.1315  17.1316  17.3500  17.3501
    17.4349  17.4349  17.5351  17.5351  17.5351  17.5352  17.5523  17.5523
    17.5523  17.5524  17.5665  17.5666  17.5891  17.5892  18.4404  18.4405
    19.1252  19.1252  19.2376  19.2376  19.2376  19.2377  19.3554  19.3554
    19.3554  19.3555  19.3911  19.3911  19.5141  19.5142  19.5206  19.5207
    19.5892  19.5894  19.5954  19.5955  19.6551  19.6551  19.6552  19.6552
    19.9329  19.9330  19.9970  19.9970  20.5238  20.5238  20.5239  20.5239
    20.6192  20.6192  20.7155  20.7155  20.7155  20.7155  22.6291  22.6291
    24.6577  24.6577

          k = 0.2834 0.3968 0.3968 ( 11321 PWs)   bands (ev):

   -67.6467 -67.6256 -67.6255 -67.6099 -67.6089 -67.5975 -67.5974 -67.5887
   -67.5608 -67.5577 -67.5575 -67.5518 -67.5501 -67.5401 -67.5400 -67.5245
   -33.8840 -33.8719 -33.8719 -33.8562 -33.8538 -33.8537 -33.8407 -33.8300
   -33.8300 -33.8296 -33.8198 -33.7914 -33.7827 -33.7776 -33.7561 -33.7330
   -33.7330 -33.7154 -33.7149 -33.7148 -33.7075 -33.7075 -33.7030 -33.6318
   -33.6102 -33.5528 -33.5527 -33.5399 -33.5399 -33.5390 -33.5229 -33.5178
   -33.5047 -33.5017 -33.4929 -33.4892 -33.4891 -33.4717 -33.4717 -33.4654
   -33.4417 -33.4411 -33.4411 -33.4340 -33.4216 -33.4215 -33.4189 -33.4159
    13.3453  14.2587  14.2587  14.8930  15.0040  15.4707  15.4707  15.8470
    15.9423  15.9758  16.0869  16.0870  16.1157  16.1157  16.2246  16.3484
    16.3550  16.3550  16.4367  16.4695  16.8393  16.8825  16.9507  16.9507
    16.9603  16.9847  16.9848  16.9910  17.0888  17.1392  17.1958  17.3252
    17.3252  17.3414  17.3415  17.3840  17.3978  17.4451  17.4451  17.4810
    17.4811  17.5130  17.5447  17.5786  17.5826  17.8713  17.8714  18.4102
    19.1471  19.1471  19.1831  19.2703  19.3552  19.3977  19.3989  19.4045
    19.4046  19.4055  19.4933  19.4935  19.4935  19.5182  19.5315  19.5850
    19.5851  19.5908  19.5976  19.5977  19.6080  19.6080  19.6717  19.6975
    19.8885  20.0078  20.0078  20.1283  20.2748  20.2748  20.3443  20.5595
    20.5596  20.5781  20.6067  20.6949  20.7546  21.5833  21.5833  22.6649
    24.7948  25.4202

          k = 0.2834 0.3968-0.5102 ( 11324 PWs)   bands (ev):

   -67.6370 -67.6369 -67.6184 -67.6182 -67.6037 -67.6035 -67.5934 -67.5932
   -67.5590 -67.5588 -67.5544 -67.5543 -67.5446 -67.5444 -67.5315 -67.5313
   -33.8692 -33.8691 -33.8614 -33.8613 -33.8452 -33.8451 -33.8435 -33.8435
   -33.8351 -33.8350 -33.8039 -33.8039 -33.7614 -33.7612 -33.7533 -33.7533
   -33.7361 -33.7360 -33.7225 -33.7224 -33.7182 -33.7182 -33.6733 -33.6733
   -33.5808 -33.5808 -33.5390 -33.5389 -33.5288 -33.5287 -33.5261 -33.5261
   -33.5008 -33.5007 -33.4865 -33.4865 -33.4666 -33.4665 -33.4663 -33.4662
   -33.4627 -33.4625 -33.4381 -33.4380 -33.4192 -33.4192 -33.4171 -33.4171
    13.7778  13.7779  14.5826  14.5826  15.2696  15.2697  15.8545  15.8546
    15.9739  15.9740  16.0478  16.0478  16.1557  16.1557  16.2658  16.2658
    16.3607  16.3608  16.6641  16.6642  16.7298  16.7299  16.8440  16.8441
    16.8885  16.8885  17.0436  17.0437  17.1569  17.1569  17.1996  17.1997
    17.2501  17.2501  17.3301  17.3302  17.3743  17.3743  17.4174  17.4174
    17.4800  17.4800  17.5141  17.5142  17.6031  17.6031  18.0993  18.0994
    19.2215  19.2215  19.2728  19.2728  19.2992  19.2993  19.4599  19.4600
    19.4770  19.4771  19.5031  19.5032  19.5172  19.5172  19.5429  19.5430
    19.5940  19.5941  19.6249  19.6250  19.6345  19.6346  19.6932  19.6932
    19.8710  19.8711  20.0436  20.0437  20.2927  20.2928  20.3433  20.3433
    20.5927  20.5927  20.5963  20.5963  21.1615  21.1615  22.1155  22.1155
    25.2020  25.2021

          k = 0.2834-0.5102-0.5102 ( 11324 PWs)   bands (ev):

   -67.6284 -67.6284 -67.6284 -67.6281 -67.5989 -67.5988 -67.5988 -67.5985
   -67.5565 -67.5564 -67.5564 -67.5561 -67.5374 -67.5374 -67.5374 -67.5371
   -33.8570 -33.8569 -33.8569 -33.8569 -33.8486 -33.8485 -33.8485 -33.8484
   -33.8193 -33.8192 -33.8192 -33.8191 -33.7469 -33.7468 -33.7468 -33.7466
   -33.7358 -33.7358 -33.7357 -33.7357 -33.7132 -33.7132 -33.7131 -33.7131
   -33.5526 -33.5525 -33.5525 -33.5525 -33.5308 -33.5308 -33.5307 -33.5307
   -33.4784 -33.4783 -33.4783 -33.4781 -33.4747 -33.4746 -33.4746 -33.4746
   -33.4535 -33.4534 -33.4534 -33.4533 -33.4174 -33.4174 -33.4173 -33.4173
    14.1686  14.1686  14.1686  14.1687  15.5958  15.5959  15.5959  15.5959
    16.0259  16.0259  16.0259  16.0260  16.4135  16.4135  16.4135  16.4136
    16.4772  16.4773  16.4773  16.4773  16.6518  16.6518  16.6518  16.6519
    16.9620  16.9621  16.9621  16.9621  17.1667  17.1668  17.1668  17.1669
    17.2630  17.2630  17.2630  17.2630  17.2914  17.2914  17.2914  17.2914
    17.4717  17.4717  17.4717  17.4718  17.8065  17.8065  17.8065  17.8065
    19.2864  19.2864  19.2864  19.2865  19.3802  19.3802  19.3802  19.3804
    19.4700  19.4701  19.4701  19.4703  19.6134  19.6134  19.6134  19.6136
    19.6144  19.6145  19.6145  19.6145  19.6922  19.6922  19.6922  19.6924
    20.0087  20.0087  20.0088  20.0088  20.1253  20.1253  20.1253  20.1254
    20.6101  20.6101  20.6102  20.6102  21.6300  21.6301  21.6301  21.6301
    25.7506  25.7507

          k = 0.3968 0.3968 0.3968 ( 11335 PWs)   bands (ev):

   -67.6396 -67.6203 -67.6203 -67.6201 -67.6060 -67.6060 -67.6058 -67.5949
   -67.5570 -67.5517 -67.5517 -67.5516 -67.5429 -67.5429 -67.5428 -67.5291
   -33.8607 -33.8607 -33.8607 -33.8473 -33.8473 -33.8472 -33.8294 -33.8088
   -33.8088 -33.8028 -33.8027 -33.8027 -33.7956 -33.7956 -33.7507 -33.7506
   -33.7506 -33.7423 -33.7422 -33.7422 -33.7348 -33.7348 -33.7347 -33.6667
   -33.5810 -33.5280 -33.5279 -33.5279 -33.5144 -33.5144 -33.5143 -33.5013
   -33.5013 -33.4891 -33.4891 -33.4891 -33.4870 -33.4869 -33.4869 -33.4687
   -33.4406 -33.4405 -33.4405 -33.4349 -33.4349 -33.4305 -33.4305 -33.4304
    13.6872  14.5605  14.5606  14.5606  15.2253  15.2253  15.2253  16.0088
    16.0443  16.0443  16.2286  16.2286  16.2286  16.3160  16.3160  16.3160
    16.3740  16.3740  16.3740  16.5903  16.8896  16.8896  16.9219  16.9219
    16.9776  16.9776  16.9776  17.0237  17.0238  17.0238  17.1327  17.1327
    17.1327  17.2452  17.2453  17.2453  17.2908  17.2908  17.2909  17.3207
    17.3207  17.3208  17.4360  17.4360  17.5675  17.5676  17.5676  18.0554
    19.2373  19.2373  19.2373  19.3537  19.3537  19.4001  19.4002  19.4002
    19.5251  19.5251  19.5323  19.5324  19.5324  19.5597  19.5597  19.5597
    19.5925  19.5925  19.5926  19.7025  19.7248  19.7248  19.7248  19.8495
    19.8495  20.2941  20.2941  20.3195  20.3195  20.3195  20.3659  20.3659
    20.3659  20.3990  20.3990  20.3991  21.1479  21.1480  21.1480  22.1297
    26.0939  26.0939

          k = 0.3968 0.3968-0.5102 ( 11344 PWs)   bands (ev):

   -67.6308 -67.6306 -67.6137 -67.6137 -67.6136 -67.6134 -67.6009 -67.6007
   -67.5541 -67.5539 -67.5469 -67.5468 -67.5467 -67.5466 -67.5354 -67.5352
   -33.8497 -33.8497 -33.8496 -33.8496 -33.8312 -33.8311 -33.8310 -33.8310
   -33.8160 -33.8159 -33.7823 -33.7821 -33.7724 -33.7724 -33.7724 -33.7723
   -33.7667 -33.7666 -33.7517 -33.7516 -33.7516 -33.7515 -33.7043 -33.7043
   -33.5536 -33.5536 -33.5087 -33.5086 -33.5058 -33.5058 -33.5057 -33.5057
   -33.4968 -33.4968 -33.4967 -33.4967 -33.4758 -33.4758 -33.4683 -33.4681
   -33.4598 -33.4597 -33.4376 -33.4376 -33.4375 -33.4375 -33.4312 -33.4311
    14.1051  14.1052  14.9031  14.9031  14.9031  14.9031  15.6214  15.6215
    16.1714  16.1714  16.2456  16.2457  16.3037  16.3037  16.3037  16.3037
    16.5136  16.5137  16.6589  16.6589  16.6590  16.6590  16.8982  16.8983
    16.9539  16.9540  16.9547  16.9547  17.0415  17.0415  17.1247  17.1247
    17.1247  17.1248  17.2529  17.2529  17.2530  17.2531  17.3102  17.3103
    17.3103  17.3103  17.3411  17.3411  17.3448  17.3449  17.7544  17.7544
    19.2975  19.2975  19.3337  19.3337  19.3337  19.3337  19.4523  19.4524
    19.4599  19.4600  19.5302  19.5303  19.5324  19.5324  19.5325  19.5325
    19.6988  19.6988  19.6988  19.6989  19.7486  19.7487  19.9986  19.9988
    20.0220  20.0220  20.0590  20.0591  20.3343  20.3343  20.3344  20.3344
    20.3844  20.3844  20.7474  20.7474  20.7475  20.7475  21.6285  21.6285
    26.4199  26.4199

          k = 0.3968-0.5102-0.5102 ( 11324 PWs)   bands (ev):

   -67.6228 -67.6227 -67.6227 -67.6225 -67.6078 -67.6077 -67.6077 -67.6074
   -67.5501 -67.5500 -67.5500 -67.5497 -67.5406 -67.5405 -67.5405 -67.5402
   -33.8349 -33.8349 -33.8348 -33.8348 -33.8308 -33.8307 -33.8307 -33.8306
   -33.7942 -33.7941 -33.7941 -33.7941 -33.7778 -33.7777 -33.7777 -33.7776
   -33.7731 -33.7731 -33.7730 -33.7730 -33.7382 -33.7382 -33.7381 -33.7381
   -33.5285 -33.5284 -33.5284 -33.5284 -33.4953 -33.4953 -33.4952 -33.4952
   -33.4888 -33.4887 -33.4887 -33.4887 -33.4710 -33.4709 -33.4709 -33.4708
   -33.4579 -33.4578 -33.4578 -33.4577 -33.4376 -33.4376 -33.4375 -33.4375
    14.4960  14.4960  14.4960  14.4961  15.2736  15.2736  15.2736  15.2737
    16.2640  16.2640  16.2640  16.2641  16.4651  16.4651  16.4651  16.4652
    16.5893  16.5893  16.5893  16.5894  16.6424  16.6424  16.6424  16.6425
    17.0431  17.0431  17.0432  17.0432  17.0643  17.0644  17.0644  17.0644
    17.0833  17.0834  17.0834  17.0835  17.2154  17.2154  17.2154  17.2154
    17.2733  17.2733  17.2733  17.2734  17.4647  17.4648  17.4648  17.4648
    19.3521  19.3521  19.3521  19.3522  19.4063  19.4063  19.4063  19.4065
    19.4548  19.4548  19.4548  19.4550  19.5208  19.5209  19.5209  19.5210
    19.8068  19.8068  19.8068  19.8068  19.9032  19.9032  19.9032  19.9034
    20.1248  20.1248  20.1248  20.1249  20.3278  20.3278  20.3279  20.3279
    20.3740  20.3740  20.3741  20.3741  21.1775  21.1775  21.1775  21.1775
    26.9829  26.9829

          k =-0.5102-0.5102-0.5102 ( 11296 PWs)   bands (ev):

   -67.6159 -67.6159 -67.6159 -67.6159 -67.6158 -67.6158 -67.6158 -67.6153
   -67.5447 -67.5446 -67.5446 -67.5446 -67.5445 -67.5445 -67.5445 -67.5441
   -33.8063 -33.8063 -33.8063 -33.8063 -33.8063 -33.8063 -33.8063 -33.8063
   -33.8062 -33.8062 -33.8062 -33.8062 -33.8062 -33.8060 -33.8060 -33.8060
   -33.7665 -33.7664 -33.7664 -33.7664 -33.7664 -33.7663 -33.7663 -33.7663
   -33.5066 -33.5065 -33.5065 -33.5065 -33.5065 -33.5064 -33.5064 -33.5064
   -33.4641 -33.4641 -33.4641 -33.4641 -33.4641 -33.4641 -33.4641 -33.4641
   -33.4640 -33.4640 -33.4640 -33.4640 -33.4640 -33.4638 -33.4638 -33.4638
    14.8829  14.8830  14.8830  14.8830  14.8831  14.8831  14.8831  14.8831
    16.5256  16.5256  16.5256  16.5256  16.5256  16.5256  16.5256  16.5256
    16.5256  16.5256  16.5256  16.5256  16.5256  16.5256  16.5257  16.5257
    17.1295  17.1295  17.1295  17.1295  17.1295  17.1295  17.1296  17.1296
    17.1296  17.1296  17.1296  17.1296  17.1296  17.1298  17.1298  17.1298
    17.1674  17.1674  17.1674  17.1674  17.1675  17.1675  17.1675  17.1675
    19.4326  19.4326  19.4326  19.4326  19.4326  19.4326  19.4326  19.4326
    19.4327  19.4327  19.4327  19.4327  19.4327  19.4327  19.4329  19.4329
    20.0506  20.0506  20.0506  20.0506  20.0506  20.0506  20.0507  20.0507
    20.0507  20.0507  20.0507  20.0507  20.0507  20.0509  20.0509  20.0509
    20.7641  20.7642  20.7642  20.7642  20.7642  20.7643  20.7643  20.7643
    28.1778  28.1779

 ------ SPIN DOWN ----------


          k = 0.0567 0.0567 0.0567 ( 11251 PWs)   bands (ev):

   -65.2838 -65.1781 -65.1781 -65.1781 -65.1605 -65.1605 -65.1605 -65.1595
   -65.1595 -65.1594 -65.1587 -65.1587 -65.1587 -65.1510 -65.1504 -65.0699
   -31.6421 -31.6421 -31.6421 -31.6391 -31.6391 -31.6391 -31.4603 -31.4603
   -31.4540 -31.3811 -31.3783 -31.3783 -31.3783 -31.3540 -31.3540 -31.3407
   -31.3407 -31.3407 -31.2998 -31.2998 -31.2737 -31.2552 -31.2552 -31.2552
   -31.2432 -31.2432 -31.2432 -31.2280 -31.2280 -31.2280 -31.2247 -31.2247
   -31.2247 -31.2168 -31.2168 -31.2168 -31.2054 -31.2054 -31.2054 -31.0307
   -31.0291 -31.0291 -31.0291 -31.0258 -31.0258 -31.0258 -31.0236 -31.0236
    11.6150  15.6768  15.6768  15.6768  16.1687  16.1687  16.1687  16.2059
    16.2059  16.2059  16.3047  16.3047  16.3047  16.7809  16.7809  18.0042
    18.0887  18.0887  18.2061  18.2061  18.2312  18.2502  18.2502  18.2502
    18.2644  18.2644  18.2644  19.0118  19.0118  19.0118  19.4317  19.4317
    19.4317  19.6843  19.6843  19.7349  19.9744  19.9744  19.9744  20.1243
    20.1243  20.1243  20.1732  20.1732  20.1732  20.2857  20.2857  20.2857
    20.8336  20.8336  20.8336  20.8965  20.8965  20.8965  21.1240  21.1240
    21.1240  21.3904  21.3904  21.3904  21.8859  21.8859  21.8859  21.9133
    21.9133  21.9133  22.0759  22.0759  22.3816  22.3816  22.3816  22.4327
    22.4327  22.4338  22.4338  22.5470  22.5470  22.5470  22.6633  22.7528
    22.7528  23.0245  23.0245  23.0245  23.1504  23.1504  23.1504  23.2003
    23.2003  23.2003

          k = 0.0567 0.0567 0.1701 ( 11298 PWs)   bands (ev):

   -65.2801 -65.1970 -65.1774 -65.1774 -65.1626 -65.1626 -65.1600 -65.1592
   -65.1592 -65.1583 -65.1578 -65.1578 -65.1517 -65.1511 -65.1416 -65.0728
   -31.6337 -31.6337 -31.6324 -31.6296 -31.6242 -31.6242 -31.4645 -31.4536
   -31.4434 -31.4207 -31.4116 -31.4116 -31.4092 -31.4083 -31.3753 -31.3753
   -31.3371 -31.3073 -31.2972 -31.2934 -31.2806 -31.2550 -31.2550 -31.2472
   -31.2348 -31.2331 -31.2322 -31.2322 -31.2307 -31.2219 -31.2219 -31.2174
   -31.2174 -31.2131 -31.2131 -31.1796 -31.1770 -31.1770 -31.1691 -31.0469
   -31.0393 -31.0393 -31.0375 -31.0347 -31.0297 -31.0290 -31.0290 -31.0264
    11.7540  14.9694  15.7445  15.7445  16.1557  16.1557  16.2704  16.2704
    16.2725  16.3081  16.3589  16.3589  16.7858  16.8375  16.8519  17.9008
    17.9977  18.0249  18.1183  18.2257  18.2383  18.3039  18.3039  18.3460
    18.3460  18.3566  18.3822  18.5797  18.9171  18.9171  19.2510  19.2510
    19.6552  19.6769  19.7017  19.7517  19.7518  19.8008  19.8234  19.9384
    19.9384  20.1664  20.3809  20.3809  20.4199  20.4328  20.4328  20.4503
    20.4503  20.5291  20.5346  20.5347  20.5437  20.5691  20.8642  21.3653
    21.3653  21.6261  21.6261  21.6552  21.7994  21.7994  21.8749  21.8749
    21.9135  21.9369  21.9901  22.1098  22.3850  22.3905  22.3935  22.4285
    22.4314  22.4607  22.4649  22.4869  22.4869  22.5916  22.7453  22.7991
    22.8218  22.8218  23.0233  23.0233  23.0556  23.0556  23.2428  23.2428
    23.3950  23.3951

          k = 0.0567 0.0567 0.2834 ( 11290 PWs)   bands (ev):

   -65.2728 -65.2155 -65.1758 -65.1758 -65.1652 -65.1652 -65.1589 -65.1587
   -65.1587 -65.1573 -65.1573 -65.1573 -65.1528 -65.1520 -65.1249 -65.0783
   -31.6139 -31.6139 -31.6132 -31.6110 -31.5983 -31.5983 -31.4656 -31.4656
   -31.4598 -31.4561 -31.4561 -31.4401 -31.4323 -31.4276 -31.4227 -31.4227
   -31.3301 -31.3206 -31.3168 -31.3015 -31.2527 -31.2527 -31.2494 -31.2469
   -31.2418 -31.2364 -31.2364 -31.2198 -31.2198 -31.2173 -31.2173 -31.1974
   -31.1892 -31.1757 -31.1757 -31.1444 -31.1415 -31.1415 -31.1345 -31.0745
   -31.0557 -31.0557 -31.0541 -31.0524 -31.0420 -31.0392 -31.0392 -31.0366
    12.0283  14.2475  15.8604  15.8605  16.1536  16.1536  16.3554  16.3554
    16.4402  16.4403  16.4719  16.5043  16.9389  16.9924  17.0775  17.7205
    17.7515  18.0072  18.0421  18.1689  18.1810  18.1916  18.4231  18.4231
    18.4929  18.4930  18.5892  18.6203  18.8344  18.8344  19.0995  19.0995
    19.4478  19.4478  19.6144  19.6144  19.6334  19.6653  19.7109  19.7189
    19.8984  19.9306  19.9306  20.0244  20.0244  20.1217  20.1243  20.5041
    20.6187  20.7052  20.7052  20.7121  20.7121  20.7145  20.8317  21.6598
    21.6598  21.6907  21.6907  21.7660  21.7660  21.8212  21.9104  21.9413
    21.9413  21.9669  21.9859  22.1674  22.1737  22.3061  22.3172  22.3224
    22.3912  22.4208  22.4221  22.4260  22.6264  22.6264  22.6343  22.6672
    22.8798  22.8798  22.9368  22.9368  23.0181  23.0181  23.3735  23.3735
    23.4453  23.4453

          k = 0.0567 0.0567 0.3968 ( 11303 PWs)   bands (ev):

   -65.2623 -65.2331 -65.1735 -65.1734 -65.1680 -65.1680 -65.1581 -65.1581
   -65.1576 -65.1572 -65.1572 -65.1561 -65.1544 -65.1532 -65.1100 -65.0865
   -31.5855 -31.5842 -31.5839 -31.5839 -31.5628 -31.5628 -31.5100 -31.5074
   -31.5023 -31.5023 -31.4721 -31.4721 -31.4644 -31.4486 -31.4203 -31.4067
   -31.3644 -31.3505 -31.3024 -31.2896 -31.2638 -31.2569 -31.2494 -31.2494
   -31.2408 -31.2408 -31.2185 -31.2185 -31.2173 -31.2173 -31.2012 -31.1519
   -31.1472 -31.1390 -31.1390 -31.1125 -31.1107 -31.1078 -31.1078 -31.1033
   -31.0785 -31.0785 -31.0780 -31.0780 -31.0605 -31.0558 -31.0558 -31.0536
    12.4300  13.5612  15.9886  15.9886  16.1398  16.1398  16.4425  16.4425
    16.5009  16.5009  16.7500  16.7768  17.0593  17.1864  17.1997  17.4292
    17.4311  17.7951  18.0256  18.0392  18.1250  18.1335  18.6026  18.6026
    18.6988  18.6988  18.8619  18.8619  18.8900  18.9202  19.0369  19.0369
    19.1754  19.1754  19.2882  19.2882  19.4565  19.4565  19.5618  19.5618
    19.6215  19.6553  19.6558  19.6688  19.6757  19.6865  20.0302  20.3940
    20.8974  20.9806  20.9806  21.0424  21.0424  21.0533  21.1802  21.4719
[...]
   -31.0690 -31.0690 -31.0690 -31.0507 -31.0507 -31.0507 -31.0445 -31.0445
    12.8159  14.8414  14.8414  14.8414  16.0331  16.0331  16.0331  17.0240
    17.0240  17.0240  17.3138  17.3138  17.3977  17.3977  17.3977  17.5319
    17.6577  18.1276  18.1276  18.1339  18.1339  18.1339  18.3924  18.3924
    18.3924  18.4316  18.4316  18.6003  18.6003  18.6003  19.0244  19.0244
    19.0244  19.1109  19.1109  19.1109  19.1358  19.1358  19.1358  19.1718
    19.1718  19.1718  19.3394  19.3394  19.5944  19.5944  19.5944  20.6035
    20.7307  21.1824  21.1824  21.1824  21.2405  21.2405  21.2405  21.5522
    21.5522  21.5522  21.6654  21.6654  21.6654  21.8869  21.8869  21.8869
    21.9545  21.9545  22.2037  22.2037  22.2789  22.2789  22.3039  22.3039
    22.3039  22.3785  22.3785  22.3785  22.3914  22.3914  22.5141  22.5141
    22.5141  22.6038  22.6038  22.6038  23.1126  23.1126  23.1126  25.2630
    25.4019  25.4019

          k = 0.2834 0.2834 0.3968 ( 11312 PWs)   bands (ev):

   -65.2441 -65.2193 -65.1997 -65.1997 -65.1864 -65.1863 -65.1758 -65.1680
   -65.1460 -65.1442 -65.1390 -65.1390 -65.1318 -65.1318 -65.1174 -65.0986
   -31.5686 -31.5686 -31.5569 -31.5281 -31.5281 -31.5257 -31.5165 -31.5122
   -31.4951 -31.4951 -31.4904 -31.4829 -31.4489 -31.4171 -31.4170 -31.4077
   -31.3889 -31.3553 -31.3553 -31.3411 -31.3345 -31.3312 -31.3312 -31.2899
   -31.2403 -31.2255 -31.1992 -31.1967 -31.1798 -31.1798 -31.1655 -31.1655
   -31.1591 -31.1591 -31.1450 -31.1192 -31.1159 -31.1159 -31.1030 -31.0941
   -31.0754 -31.0637 -31.0614 -31.0614 -31.0548 -31.0515 -31.0515 -31.0423
    13.1909  14.2281  15.1152  15.1152  15.7493  15.7494  16.3542  17.1643
    17.2158  17.2158  17.2579  17.4508  17.4598  17.4598  17.4694  17.5560
    17.6436  17.8919  18.1759  18.1982  18.1982  18.2792  18.3147  18.3204
    18.4427  18.5012  18.5012  18.6022  18.6753  18.6753  18.8365  18.8365
    18.8430  18.9141  18.9141  18.9743  18.9938  18.9938  19.0133  19.0134
    19.0914  19.1172  19.2149  19.2757  19.3168  19.3168  19.7395  20.3325
    20.8504  21.2847  21.2847  21.3928  21.4298  21.4386  21.4410  21.4410
    21.4471  21.4471  21.7254  21.8045  21.8045  21.8131  21.9685  21.9902
    21.9902  22.0652  22.0668  22.0686  22.1777  22.2322  22.2896  22.2896
    22.2929  22.3044  22.3446  22.4221  22.4375  22.4375  22.4661  22.4855
    22.4855  22.4923  22.5859  22.5859  22.7839  22.7839  23.6196  24.7059
    25.7146  25.7146

          k = 0.2834 0.2834-0.5102 ( 11322 PWs)   bands (ev):

   -65.2328 -65.2327 -65.1935 -65.1935 -65.1934 -65.1934 -65.1721 -65.1721
   -65.1450 -65.1449 -65.1350 -65.1350 -65.1349 -65.1349 -65.1071 -65.1070
   -31.5487 -31.5487 -31.5486 -31.5486 -31.5232 -31.5231 -31.5209 -31.5208
   -31.5047 -31.5047 -31.4566 -31.4566 -31.4566 -31.4566 -31.4215 -31.4214
   -31.3751 -31.3751 -31.3473 -31.3473 -31.3472 -31.3472 -31.2872 -31.2872
   -31.2574 -31.2574 -31.2000 -31.2000 -31.1675 -31.1675 -31.1675 -31.1675
   -31.1391 -31.1391 -31.1391 -31.1390 -31.1072 -31.1071 -31.0964 -31.0963
   -31.0891 -31.0890 -31.0552 -31.0552 -31.0552 -31.0552 -31.0459 -31.0459
    13.6685  13.6685  15.4313  15.4313  15.4313  15.4313  16.7449  16.7449
    17.3810  17.3810  17.3810  17.3810  17.4958  17.4958  17.5551  17.5551
    17.6655  17.6656  18.2440  18.2441  18.3220  18.3221  18.4211  18.4211
    18.4211  18.4211  18.5348  18.5348  18.6527  18.6527  18.6528  18.6528
    18.7892  18.7892  18.9545  18.9545  18.9546  18.9546  19.0680  19.0680
    19.0680  19.0680  19.1279  19.1279  19.2003  19.2004  19.9888  19.9889
    21.1158  21.1158  21.3614  21.3614  21.3615  21.3615  21.6362  21.6363
    21.6417  21.6417  21.6417  21.6417  21.7338  21.7339  21.9018  21.9018
    22.0693  22.0694  22.2002  22.2002  22.2420  22.2421  22.2421  22.2421
    22.3005  22.3005  22.3010  22.3011  22.5118  22.5119  22.5213  22.5213
    22.5213  22.5213  22.5302  22.5302  22.5302  22.5302  24.1582  24.1583
    25.9553  25.9553

          k = 0.2834 0.3968 0.3968 ( 11321 PWs)   bands (ev):

   -65.2358 -65.2131 -65.2131 -65.1962 -65.1951 -65.1828 -65.1828 -65.1733
   -65.1434 -65.1400 -65.1399 -65.1337 -65.1319 -65.1211 -65.1210 -65.1043
   -31.5575 -31.5445 -31.5445 -31.5271 -31.5241 -31.5241 -31.5109 -31.4993
   -31.4993 -31.4970 -31.4876 -31.4571 -31.4454 -31.4420 -31.4176 -31.3912
   -31.3912 -31.3734 -31.3734 -31.3723 -31.3638 -31.3638 -31.3585 -31.2823
   -31.2570 -31.1945 -31.1945 -31.1807 -31.1807 -31.1803 -31.1622 -31.1564
   -31.1421 -31.1390 -31.1301 -31.1253 -31.1253 -31.1063 -31.1063 -31.0995
   -31.0738 -31.0735 -31.0735 -31.0655 -31.0520 -31.0520 -31.0493 -31.0458
    13.5528  14.5418  14.5418  15.3385  15.4027  16.0681  16.0681  16.8429
    17.4171  17.4476  17.4476  17.5647  17.6220  17.6324  17.6324  17.6333
    17.7307  18.0109  18.0109  18.1476  18.2612  18.2985  18.3064  18.4205
    18.4205  18.4716  18.4716  18.5630  18.5707  18.5892  18.7096  18.7309
    18.7310  18.7988  18.7988  18.8160  18.8975  18.8975  18.9071  18.9541
    19.0199  19.0199  19.0815  19.0881  19.1743  19.4036  19.4036  19.9372
    21.1267  21.4180  21.4558  21.4642  21.4642  21.5946  21.5972  21.5972
    21.6508  21.6508  21.7221  21.7221  21.8251  21.8452  21.8974  21.8974
    21.9571  21.9951  22.0489  22.1180  22.1991  22.2291  22.2354  22.2691
    22.2866  22.2866  22.2906  22.2907  22.3673  22.3948  22.3948  22.4170
    22.4618  22.4878  22.4879  22.5772  22.5903  23.2336  23.2336  24.2040
    26.1158  26.6181

          k = 0.2834 0.3968-0.5102 ( 11324 PWs)   bands (ev):

   -65.2254 -65.2253 -65.2052 -65.2052 -65.1894 -65.1893 -65.1783 -65.1783
   -65.1414 -65.1413 -65.1365 -65.1364 -65.1259 -65.1259 -65.1118 -65.1117
   -31.5411 -31.5410 -31.5328 -31.5328 -31.5153 -31.5152 -31.5125 -31.5125
   -31.5047 -31.5047 -31.4707 -31.4706 -31.4222 -31.4221 -31.4155 -31.4154
   -31.3954 -31.3954 -31.3798 -31.3797 -31.3755 -31.3754 -31.3278 -31.3278
   -31.2250 -31.2249 -31.1800 -31.1800 -31.1687 -31.1686 -31.1655 -31.1655
   -31.1379 -31.1378 -31.1224 -31.1223 -31.1010 -31.1009 -31.1008 -31.1007
   -31.0965 -31.0964 -31.0701 -31.0700 -31.0496 -31.0496 -31.0472 -31.0472
    14.0108  14.0108  14.9231  14.9231  15.7357  15.7357  16.4496  16.4496
    17.5671  17.5671  17.6071  17.6071  17.6474  17.6474  17.6660  17.6660
    17.8219  17.8220  18.2693  18.2693  18.2766  18.2767  18.3137  18.3137
    18.3363  18.3364  18.4778  18.4778  18.5572  18.5572  18.6737  18.6737
    18.7222  18.7223  18.7236  18.7237  18.8847  18.8848  18.9607  18.9608
    18.9738  18.9738  19.0905  19.0906  19.1198  19.1198  19.6114  19.6114
    21.4202  21.4202  21.4342  21.4342  21.5704  21.5704  21.7042  21.7042
    21.7465  21.7466  21.7475  21.7476  21.7584  21.7584  21.8430  21.8430
    22.0086  22.0086  22.0586  22.0586  22.1472  22.1472  22.2444  22.2444
    22.2615  22.2615  22.2776  22.2776  22.2914  22.2915  22.3631  22.3631
    22.4961  22.4961  22.5489  22.5489  22.8692  22.8693  23.7138  23.7139
    26.4684  26.4684

          k = 0.2834-0.5102-0.5102 ( 11324 PWs)   bands (ev):

   -65.2161 -65.2160 -65.2160 -65.2159 -65.1842 -65.1841 -65.1841 -65.1840
   -65.1386 -65.1386 -65.1386 -65.1385 -65.1182 -65.1181 -65.1181 -65.1180
   -31.5275 -31.5274 -31.5274 -31.5274 -31.5189 -31.5188 -31.5188 -31.5187
   -31.4874 -31.4873 -31.4873 -31.4873 -31.4064 -31.4063 -31.4063 -31.4062
   -31.3950 -31.3950 -31.3950 -31.3949 -31.3715 -31.3714 -31.3714 -31.3714
   -31.1942 -31.1941 -31.1941 -31.1941 -31.1711 -31.1711 -31.1711 -31.1711
   -31.1136 -31.1135 -31.1135 -31.1134 -31.1095 -31.1094 -31.1094 -31.1093
   -31.0868 -31.0868 -31.0868 -31.0867 -31.0475 -31.0475 -31.0475 -31.0475
    14.4380  14.4381  14.4381  14.4381  16.0924  16.0924  16.0924  16.0924
    17.6499  17.6500  17.6500  17.6500  17.7560  17.7560  17.7560  17.7560
    18.0535  18.0535  18.0535  18.0535  18.2055  18.2055  18.2055  18.2056
    18.4540  18.4540  18.4540  18.4540  18.5427  18.5428  18.5428  18.5428
    18.7373  18.7374  18.7374  18.7374  18.8283  18.8283  18.8283  18.8283
    19.0114  19.0115  19.0115  19.0116  19.3058  19.3058  19.3058  19.3058
    21.5651  21.5652  21.5652  21.5652  21.7378  21.7378  21.7378  21.7379
    21.7405  21.7405  21.7405  21.7405  21.8027  21.8027  21.8027  21.8028
    21.8903  21.8904  21.8904  21.8904  22.1424  22.1425  22.1425  22.1425
    22.2727  22.2727  22.2727  22.2727  22.2856  22.2857  22.2857  22.2857
    22.5344  22.5344  22.5344  22.5345  23.2835  23.2835  23.2835  23.2836
    26.9699  26.9699

          k = 0.3968 0.3968 0.3968 ( 11335 PWs)   bands (ev):

   -65.2283 -65.2074 -65.2074 -65.2073 -65.1919 -65.1919 -65.1919 -65.1801
   -65.1393 -65.1336 -65.1336 -65.1336 -65.1241 -65.1241 -65.1241 -65.1092
   -31.5320 -31.5320 -31.5320 -31.5170 -31.5170 -31.5170 -31.4985 -31.4743
   -31.4743 -31.4694 -31.4694 -31.4694 -31.4608 -31.4608 -31.4108 -31.4108
   -31.4107 -31.4032 -31.4032 -31.4032 -31.3936 -31.3936 -31.3936 -31.3205
   -31.2251 -31.1674 -31.1674 -31.1674 -31.1530 -31.1530 -31.1530 -31.1391
   -31.1391 -31.1254 -31.1254 -31.1254 -31.1229 -31.1229 -31.1229 -31.1030
   -31.0729 -31.0729 -31.0729 -31.0665 -31.0665 -31.0618 -31.0618 -31.0618
    13.9060  14.8599  14.8599  14.8599  15.6631  15.6631  15.6631  16.4706
    17.6594  17.6594  17.6594  17.7383  17.7383  17.8432  17.8433  17.8433
    17.9141  18.0060  18.0060  18.0060  18.3315  18.3315  18.3779  18.3779
    18.5070  18.5070  18.5070  18.5138  18.5138  18.5139  18.6142  18.6142
    18.6142  18.6980  18.6981  18.6981  18.8099  18.8099  18.8099  18.8126
    18.8126  18.8126  19.0055  19.0055  19.0691  19.0691  19.0691  19.5341
    21.4280  21.6349  21.6349  21.6349  21.6616  21.6616  21.6616  21.7277
    21.7277  21.7277  21.9211  21.9212  21.9212  21.9636  21.9636  22.0571
    22.0571  22.0571  22.0608  22.0608  22.1589  22.1589  22.1671  22.1671
    22.2145  22.2145  22.2145  22.2668  22.2668  22.2668  22.3577  22.3577
    22.3577  22.3645  22.3645  22.3645  22.8339  22.8339  22.8339  23.7316
    27.2698  27.2698

          k = 0.3968 0.3968-0.5102 ( 11344 PWs)   bands (ev):

   -65.2187 -65.2186 -65.2002 -65.2002 -65.2001 -65.2001 -65.1864 -65.1863
   -65.1362 -65.1361 -65.1283 -65.1283 -65.1282 -65.1282 -65.1160 -65.1159
   -31.5198 -31.5198 -31.5197 -31.5197 -31.4997 -31.4996 -31.4989 -31.4989
   -31.4838 -31.4837 -31.4453 -31.4452 -31.4362 -31.4362 -31.4361 -31.4361
   -31.4289 -31.4288 -31.4120 -31.4120 -31.4119 -31.4119 -31.3617 -31.3617
   -31.1953 -31.1953 -31.1470 -31.1469 -31.1433 -31.1433 -31.1432 -31.1432
   -31.1339 -31.1339 -31.1338 -31.1338 -31.1107 -31.1106 -31.1031 -31.1030
   -31.0936 -31.0935 -31.0696 -31.0695 -31.0695 -31.0695 -31.0625 -31.0625
    14.3501  14.3501  15.2458  15.2459  15.2459  15.2459  16.0554  16.0554
    17.8192  17.8192  17.8192  17.8192  17.8659  17.8660  17.8696  17.8696
    17.9015  17.9016  18.2267  18.2267  18.2268  18.2268  18.3680  18.3681
    18.4169  18.4170  18.4501  18.4501  18.4777  18.4778  18.6358  18.6358
    18.6358  18.6358  18.7349  18.7349  18.7350  18.7350  18.7951  18.7951
    18.7951  18.7952  18.8786  18.8786  18.9100  18.9101  19.2164  19.2164
    21.6817  21.6817  21.6817  21.6817  21.7479  21.7480  21.8542  21.8543
    21.8543  21.8543  21.8543  21.8544  21.8793  21.8794  21.8807  21.8807
    22.0372  22.0372  22.1006  22.1007  22.1832  22.1832  22.1913  22.1914
    22.1948  22.1948  22.1948  22.1948  22.2978  22.2979  22.3301  22.3301
    22.3301  22.3301  22.4643  22.4644  22.4644  22.4644  23.2774  23.2774
    27.5658  27.5658

          k = 0.3968-0.5102-0.5102 ( 11324 PWs)   bands (ev):

   -65.2101 -65.2100 -65.2100 -65.2099 -65.1938 -65.1938 -65.1938 -65.1937
   -65.1317 -65.1317 -65.1317 -65.1316 -65.1215 -65.1215 -65.1215 -65.1213
   -31.5033 -31.5033 -31.5033 -31.5033 -31.4991 -31.4991 -31.4991 -31.4990
   -31.4600 -31.4599 -31.4599 -31.4599 -31.4405 -31.4404 -31.4404 -31.4404
   -31.4358 -31.4357 -31.4357 -31.4357 -31.3987 -31.3987 -31.3987 -31.3986
   -31.1679 -31.1679 -31.1679 -31.1678 -31.1324 -31.1324 -31.1324 -31.1323
   -31.1248 -31.1247 -31.1247 -31.1247 -31.1058 -31.1057 -31.1057 -31.1056
   -31.0917 -31.0916 -31.0916 -31.0915 -31.0695 -31.0695 -31.0695 -31.0695
    14.7715  14.7716  14.7716  14.7716  15.6366  15.6367  15.6367  15.6367
    17.8891  17.8892  17.8892  17.8892  18.0600  18.0600  18.0600  18.0601
    18.0912  18.0912  18.0912  18.0913  18.1707  18.1708  18.1708  18.1708
    18.5390  18.5391  18.5391  18.5391  18.5439  18.5439  18.5439  18.5439
    18.5486  18.5486  18.5486  18.5487  18.7408  18.7408  18.7408  18.7408
    18.8060  18.8060  18.8060  18.8061  18.9040  18.9040  18.9040  18.9040
    21.8306  21.8307  21.8307  21.8307  21.8544  21.8544  21.8544  21.8545
    21.9123  21.9124  21.9124  21.9125  21.9709  21.9710  21.9710  21.9710
    22.0963  22.0963  22.0963  22.0964  22.1003  22.1003  22.1003  22.1004
    22.1741  22.1741  22.1741  22.1742  22.1809  22.1809  22.1809  22.1810
    22.2725  22.2725  22.2725  22.2726  22.8630  22.8631  22.8631  22.8631
    28.1042  28.1043

          k =-0.5102-0.5102-0.5102 ( 11296 PWs)   bands (ev):

   -65.2027 -65.2026 -65.2026 -65.2026 -65.2025 -65.2025 -65.2025 -65.2024
   -65.1259 -65.1258 -65.1258 -65.1258 -65.1258 -65.1258 -65.1258 -65.1256
   -31.4720 -31.4720 -31.4720 -31.4720 -31.4720 -31.4720 -31.4720 -31.4720
   -31.4719 -31.4719 -31.4719 -31.4719 -31.4719 -31.4718 -31.4718 -31.4718
   -31.4296 -31.4295 -31.4295 -31.4295 -31.4295 -31.4295 -31.4295 -31.4295
   -31.1440 -31.1440 -31.1440 -31.1440 -31.1439 -31.1439 -31.1439 -31.1439
   -31.0984 -31.0984 -31.0984 -31.0984 -31.0984 -31.0984 -31.0984 -31.0984
   -31.0983 -31.0983 -31.0983 -31.0983 -31.0983 -31.0982 -31.0982 -31.0982
    15.1820  15.1821  15.1821  15.1821  15.1821  15.1821  15.1821  15.1821
    18.1320  18.1320  18.1320  18.1320  18.1320  18.1320  18.1320  18.1320
    18.1320  18.1320  18.1320  18.1320  18.1320  18.1320  18.1320  18.1320
    18.5521  18.5521  18.5521  18.5521  18.5521  18.5521  18.5521  18.5522
    18.6422  18.6422  18.6422  18.6423  18.6423  18.6423  18.6423  18.6423
    18.6424  18.6424  18.6424  18.6424  18.6424  18.6424  18.6424  18.6424
    22.0370  22.0370  22.0370  22.0371  22.0371  22.0371  22.0371  22.0371
    22.0372  22.0372  22.0372  22.0372  22.0372  22.0372  22.0372  22.0372
    22.0423  22.0423  22.0423  22.0423  22.0423  22.0423  22.0423  22.0423
    22.0424  22.0424  22.0424  22.0424  22.0424  22.0424  22.0425  22.0425
    22.4720  22.4720  22.4720  22.4720  22.4721  22.4721  22.4721  22.4721
    29.2315  29.2315

     the Fermi energy is    20.4771 ev

!    total energy              =   -5268.13030735 Ry
     Harris-Foulkes estimate   =   -5268.13030615 Ry
     estimated scf accuracy    <       0.00000053 Ry

     total all-electron energy =    -40728.874836 Ry

     The total energy is the sum of the following terms:

     one-electron contribution =   -1616.99427023 Ry
     hartree contribution      =     990.08696115 Ry
     xc contribution           =    -444.97334262 Ry
     ewald contribution        =   -2871.66324768 Ry
     one-center paw contrib.   =   -1324.67999591 Ry
     smearing contrib. (-TS)   =       0.09358795 Ry

     total magnetization       =    31.91 Bohr mag/cell
     absolute magnetization    =    33.38 Bohr mag/cell

     convergence has been achieved in  18 iterations

     negative rho (up, down):  0.000E+00 2.139E-03

     Forces acting on atoms (cartesian axes, Ry/au):

     atom    1 type  1   force =     0.00000000    0.00000000    0.00000000
     atom    2 type  2   force =     0.00004716    0.00004716    0.00004716
     atom    3 type  1   force =     0.00000000    0.00000000    0.00000000
     atom    4 type  2   force =     0.00004716    0.00004716   -0.00004716
     atom    5 type  1   force =     0.00000000   -0.00000000    0.00000000
     atom    6 type  2   force =     0.00004716   -0.00004716    0.00004716
     atom    7 type  1   force =     0.00000000    0.00000000    0.00000000
     atom    8 type  2   force =     0.00004716   -0.00004716   -0.00004716
     atom    9 type  1   force =     0.00000000   -0.00000000   -0.00000000
     atom   10 type  2   force =    -0.00004716    0.00004716    0.00004716
     atom   11 type  1   force =     0.00000000    0.00000000    0.00000000
     atom   12 type  2   force =    -0.00004716    0.00004716   -0.00004716
     atom   13 type  1   force =     0.00000000    0.00000000    0.00000000
     atom   14 type  2   force =    -0.00004716   -0.00004716    0.00004716
     atom   15 type  1   force =     0.00000000    0.00000000    0.00000000
     atom   16 type  2   force =    -0.00004716   -0.00004716   -0.00004716

     Total force =     0.000231     Total SCF correction =     0.003240
     SCF correction compared to forces is large: reduce conv_thr to get better values


     Computing stress (Cartesian axis) and pressure


     negative rho (up, down):  0.000E+00 2.139E-03
          total   stress  (Ry/bohr**3)                   (kbar)     P=  162.11
   0.00110203   0.00000000   0.00000000        162.11      0.00      0.00
   0.00000000   0.00110203   0.00000000          0.00    162.11      0.00
   0.00000000   0.00000000   0.00110203          0.00      0.00    162.11


     Writing output data file KrTNbVqmhFNYajBo.save/
 
     init_run     :      7.11s CPU      7.40s WALL (       1 calls)
     electrons    :    452.41s CPU    462.26s WALL (       1 calls)
     forces       :      2.36s CPU      2.47s WALL (       1 calls)
     stress       :      9.60s CPU      9.66s WALL (       1 calls)

     Called by init_run:
     wfcinit      :      6.52s CPU      6.75s WALL (       1 calls)
     potinit      :      0.29s CPU      0.31s WALL (       1 calls)
     hinit0       :      0.11s CPU      0.12s WALL (       1 calls)

     Called by electrons:
     c_bands      :    402.87s CPU    410.64s WALL (      19 calls)
     sum_band     :     43.48s CPU     45.09s WALL (      19 calls)
     v_of_rho     :      0.47s CPU      0.50s WALL (      19 calls)
     newd         :      0.91s CPU      1.12s WALL (      19 calls)
     PAW_pot      :      4.81s CPU      5.00s WALL (      19 calls)
     mix_rho      :      0.11s CPU      0.13s WALL (      19 calls)

     Called by c_bands:
     init_us_2    :      2.74s CPU      2.79s WALL (    2870 calls)
     cegterg      :    387.95s CPU    395.54s WALL (    1330 calls)

     Called by sum_band:
     sum_band:bec :      0.48s CPU      0.49s WALL (    1330 calls)
     addusdens    :      1.83s CPU      2.07s WALL (      19 calls)

     Called by *egterg:
     h_psi        :    169.96s CPU    175.18s WALL (    4584 calls)
     s_psi        :     11.62s CPU     11.67s WALL (    4584 calls)
     g_psi        :      0.58s CPU      0.59s WALL (    3184 calls)
     cdiaghg      :    164.70s CPU    165.17s WALL (    4444 calls)

     Called by h_psi:
     h_psi:pot    :    168.80s CPU    174.00s WALL (    4584 calls)
     h_psi:calbec :     14.09s CPU     15.22s WALL (    4584 calls)
     vloc_psi     :    142.95s CPU    146.97s WALL (    4584 calls)
     add_vuspsi   :     11.72s CPU     11.79s WALL (    4584 calls)

     General routines
     calbec       :     21.45s CPU     23.17s WALL (    6264 calls)
     fft          :      0.36s CPU      0.40s WALL (     517 calls)
     ffts         :      0.03s CPU      0.04s WALL (      76 calls)
     fftw         :    163.18s CPU    167.70s WALL ( 1138738 calls)
     interpolate  :      0.05s CPU      0.05s WALL (      38 calls)
 
     Parallel routines
     fft_scatt_xy :     14.00s CPU     14.41s WALL ( 1139331 calls)
     fft_scatt_yz :     92.56s CPU     95.17s WALL ( 1139331 calls)
 
     PWSCF        :  7m54.89s CPU     8m11.83s WALL

 
   This run was terminated on:  21:48:47  13Jun2020            

=------------------------------------------------------------------------------=
   JOB DONE.
=------------------------------------------------------------------------------=
