--------------------------------------------------------------------------
WARNING: No preset parameters were found for the device that Open MPI
detected:

  Local host:            bear-pg0206u37a
  Device name:           mlx5_0
  Device vendor ID:      0x02c9
  Device vendor part ID: 4123

Default device parameters will be used, which may result in lower
performance.  You can edit any of the files specified by the
btl_openib_device_param_files MCA parameter to set values for your
device.

NOTE: You can turn off this warning by setting the MCA parameter
      btl_openib_warn_no_device_params_found to 0.
--------------------------------------------------------------------------
--------------------------------------------------------------------------
WARNING: There was an error initializing an OpenFabrics device.

  Local host:   bear-pg0206u37a
  Local device: mlx5_0
--------------------------------------------------------------------------

     Program PWSCF v.6.3 starts on 14Jun2020 at  0:57:19 

     This program is part of the open-source Quantum ESPRESSO suite
     for quantum simulation of materials; please cite
         "P. Giannozzi et al., J. Phys.:Condens. Matter 21 395502 (2009);
         "P. Giannozzi et al., J. Phys.:Condens. Matter 29 465901 (2017);
          URL http://www.quantum-espresso.org", 
     in publications or presentations arising from this work. More details at
     http://www.quantum-espresso.org/quote

     Parallel version (MPI & OpenMP), running on      20 processor cores
     Number of MPI processes:                20
     Threads/MPI process:                     1

     MPI processes distributed on     1 nodes
     R & G space division:  proc/nbgrp/npool/nimage =      20
     Reading input from wd/eos/eos_010.in
Warning: card &IONS ignored
Warning: card ION_DYNAMICS = 'BFGS', ignored
Warning: card / ignored
Warning: card &CELL ignored
Warning: card CELL_DYNAMICS = 'BFGS', ignored
Warning: card CELL_FACTOR = 2.0, ignored
Warning: card PRESS = 0.0, ignored
Warning: card / ignored

     Current dimensions of program PWSCF are:
     Max number of different atomic species (ntypx) = 10
     Max number of k-points (npk) =  40000
     Max angular momentum in pseudopotentials (lmaxx) =  3
               file Fe.pbe-spn-kjpaw_psl.1.0.0.UPF: wavefunction(s)  3P 3D renormalized
               file Fe.pbe-spn-kjpaw_psl.1.0.0.UPF: wavefunction(s)  3P 3D renormalized

     Subspace diagonalization in iterative solution of the eigenvalue problem:
     a serial algorithm will be used

     Found symmetry operation: I + (  0.0000  0.0000 -0.5000)
     This is a supercell, fractional translations are disabled
 
     Parallelization info
     --------------------
     sticks:   dense  smooth     PW     G-vecs:    dense   smooth      PW
     Min         194     128     36                 9104     4878     725
     Max         195     129     38                 9107     4883     728
     Sum        3885    2561    725               182099    97569   14531
 


     bravais-lattice index     =            0
     lattice parameter (alat)  =      10.5935  a.u.
     unit-cell volume          =    1209.3296 (a.u.)^3
     number of atoms/cell      =           16
     number of atomic types    =            2
     number of electrons       =       256.00
     number of Kohn-Sham states=          154
     kinetic-energy cutoff     =      71.0000  Ry
     charge density cutoff     =     430.0000  Ry
     convergence threshold     =      1.0E-06
     mixing beta               =       0.1000
     number of iterations used =           10  plain     mixing
     Exchange-correlation      = SLA PW PBX PBC ( 1  4  3  4 0 0)

     celldm(1)=  10.593520  celldm(2)=   0.000000  celldm(3)=   0.000000
     celldm(4)=   0.000000  celldm(5)=   0.000000  celldm(6)=   0.000000

     crystal axes: (cart. coord. in units of alat)
               a(1) = (   1.005714   0.000000   0.000000 )  
               a(2) = (   0.000000   1.005714   0.000000 )  
               a(3) = (   0.000000   0.000000   1.005714 )  

     reciprocal axes: (cart. coord. in units 2 pi/alat)
               b(1) = (  0.994318  0.000000  0.000000 )  
               b(2) = (  0.000000  0.994318  0.000000 )  
               b(3) = (  0.000000  0.000000  0.994318 )  


     PseudoPot. # 1 for Fe read from file:
     /rds/homes/b/bxp912/pp/Fe.pbe-spn-kjpaw_psl.1.0.0.UPF
     MD5 check sum: 42f43b795421b414b0dc916aa790dbcb
     Pseudo is Projector augmented-wave + core cor, Zval = 16.0
     Generated using "atomic" code by A. Dal Corso v.6.3
     Shape of augmentation charge: PSQ
     Using radial grid of 1191 points,  6 beta functions with: 
                l(1) =   0
                l(2) =   0
                l(3) =   1
                l(4) =   1
                l(5) =   2
                l(6) =   2
     Q(r) pseudized with 0 coefficients 


     PseudoPot. # 2 for Fe read from file:
     /rds/homes/b/bxp912/pp/Fe.pbe-spn-kjpaw_psl.1.0.0.UPF
     MD5 check sum: 42f43b795421b414b0dc916aa790dbcb
     Pseudo is Projector augmented-wave + core cor, Zval = 16.0
     Generated using "atomic" code by A. Dal Corso v.6.3
     Shape of augmentation charge: PSQ
     Using radial grid of 1191 points,  6 beta functions with: 
                l(1) =   0
                l(2) =   0
                l(3) =   1
                l(4) =   1
                l(5) =   2
                l(6) =   2
     Q(r) pseudized with 0 coefficients 


     atomic species   valence    mass     pseudopotential
        Fe1           16.00    55.84500     Fe( 1.00)
        Fe2           16.00    55.84500     Fe( 1.00)

     Starting magnetic structure 
     atomic species   magnetization
        Fe1          0.100
        Fe2          0.100

     48 Sym. Ops., with inversion, found



   Cartesian axes

     site n.     atom                  positions (alat units)
         1           Fe1 tau(   1) = (   0.0000000   0.0000000   0.0000000  )
         2           Fe2 tau(   2) = (   0.2514290   0.2514290   0.2514290  )
         3           Fe1 tau(   3) = (   0.0000000   0.0000000   0.5028571  )
         4           Fe2 tau(   4) = (   0.2514290   0.2514290   0.7542853  )
         5           Fe1 tau(   5) = (   0.0000000   0.5028571   0.0000000  )
         6           Fe2 tau(   6) = (   0.2514290   0.7542853   0.2514290  )
         7           Fe1 tau(   7) = (   0.0000000   0.5028571   0.5028571  )
         8           Fe2 tau(   8) = (   0.2514290   0.7542853   0.7542853  )
         9           Fe1 tau(   9) = (   0.5028571   0.0000000   0.0000000  )
        10           Fe2 tau(  10) = (   0.7542853   0.2514290   0.2514290  )
        11           Fe1 tau(  11) = (   0.5028571   0.0000000   0.5028571  )
        12           Fe2 tau(  12) = (   0.7542853   0.2514290   0.7542853  )
        13           Fe1 tau(  13) = (   0.5028571   0.5028571   0.0000000  )
        14           Fe2 tau(  14) = (   0.7542853   0.7542853   0.2514290  )
        15           Fe1 tau(  15) = (   0.5028571   0.5028571   0.5028571  )
        16           Fe2 tau(  16) = (   0.7542853   0.7542853   0.7542853  )

     number of k points=    35  Marzari-Vanderbilt smearing, width (Ry)=  0.0400
                       cart. coord. in units 2pi/alat
        k(    1) = (   0.0552399   0.0552399   0.0552399), wk =   0.0109739
        k(    2) = (   0.0552399   0.0552399   0.1657197), wk =   0.0329218
        k(    3) = (   0.0552399   0.0552399   0.2761995), wk =   0.0329218
        k(    4) = (   0.0552399   0.0552399   0.3866793), wk =   0.0329218
        k(    5) = (   0.0552399   0.0552399  -0.4971591), wk =   0.0164609
        k(    6) = (   0.0552399   0.1657197   0.1657197), wk =   0.0329218
        k(    7) = (   0.0552399   0.1657197   0.2761995), wk =   0.0658436
        k(    8) = (   0.0552399   0.1657197   0.3866793), wk =   0.0658436
        k(    9) = (   0.0552399   0.1657197  -0.4971591), wk =   0.0329218
        k(   10) = (   0.0552399   0.2761995   0.2761995), wk =   0.0329218
        k(   11) = (   0.0552399   0.2761995   0.3866793), wk =   0.0658436
        k(   12) = (   0.0552399   0.2761995  -0.4971591), wk =   0.0329218
        k(   13) = (   0.0552399   0.3866793   0.3866793), wk =   0.0329218
        k(   14) = (   0.0552399   0.3866793  -0.4971591), wk =   0.0329218
        k(   15) = (   0.0552399  -0.4971591  -0.4971591), wk =   0.0082305
        k(   16) = (   0.1657197   0.1657197   0.1657197), wk =   0.0109739
        k(   17) = (   0.1657197   0.1657197   0.2761995), wk =   0.0329218
        k(   18) = (   0.1657197   0.1657197   0.3866793), wk =   0.0329218
        k(   19) = (   0.1657197   0.1657197  -0.4971591), wk =   0.0164609
        k(   20) = (   0.1657197   0.2761995   0.2761995), wk =   0.0329218
        k(   21) = (   0.1657197   0.2761995   0.3866793), wk =   0.0658436
        k(   22) = (   0.1657197   0.2761995  -0.4971591), wk =   0.0329218
        k(   23) = (   0.1657197   0.3866793   0.3866793), wk =   0.0329218
        k(   24) = (   0.1657197   0.3866793  -0.4971591), wk =   0.0329218
        k(   25) = (   0.1657197  -0.4971591  -0.4971591), wk =   0.0082305
        k(   26) = (   0.2761995   0.2761995   0.2761995), wk =   0.0109739
        k(   27) = (   0.2761995   0.2761995   0.3866793), wk =   0.0329218
        k(   28) = (   0.2761995   0.2761995  -0.4971591), wk =   0.0164609
        k(   29) = (   0.2761995   0.3866793   0.3866793), wk =   0.0329218
        k(   30) = (   0.2761995   0.3866793  -0.4971591), wk =   0.0329218
        k(   31) = (   0.2761995  -0.4971591  -0.4971591), wk =   0.0082305
        k(   32) = (   0.3866793   0.3866793   0.3866793), wk =   0.0109739
        k(   33) = (   0.3866793   0.3866793  -0.4971591), wk =   0.0164609
        k(   34) = (   0.3866793  -0.4971591  -0.4971591), wk =   0.0082305
        k(   35) = (  -0.4971591  -0.4971591  -0.4971591), wk =   0.0013717

     Dense  grid:   182099 G-vectors     FFT dimensions: (  72,  72,  72)

     Smooth grid:    97569 G-vectors     FFT dimensions: (  60,  60,  60)

     Estimated max dynamical RAM per process >     155.45 MB

     Estimated total dynamical RAM >       3.04 GB
     Generating pointlists ...
     new r_m :   0.1796 (alat units)  1.9030 (a.u.) for type    1
     new r_m :   0.1796 (alat units)  1.9030 (a.u.) for type    2

     Check: negative/imaginary core charge=   -0.000006    0.000000

     Initial potential from superposition of free atoms

     starting charge  255.99300, renormalised to  256.00000
     Starting wfcs are  160 randomized atomic wfcs
     Checking if some PAW data can be deallocated... 

     total cpu time spent up to now is        9.4 secs

     Self-consistent Calculation

     iteration #  1     ecut=    71.00 Ry     beta= 0.10
     Davidson diagonalization with overlap
     ethr =  1.00E-02,  avg # of iterations =  3.3

     Threshold (ethr) on eigenvalues was too large:
     Diagonalizing with lowered threshold

     Davidson diagonalization with overlap
     ethr =  1.93E-04,  avg # of iterations =  3.6

     total cpu time spent up to now is       68.5 secs

     total energy              =   -5267.97179025 Ry
     Harris-Foulkes estimate   =   -5268.01632926 Ry
     estimated scf accuracy    <       0.57732295 Ry

     total magnetization       =    28.31 Bohr mag/cell
     absolute magnetization    =    28.42 Bohr mag/cell

     iteration #  2     ecut=    71.00 Ry     beta= 0.10
     Davidson diagonalization with overlap
     ethr =  2.26E-04,  avg # of iterations =  1.0

     total cpu time spent up to now is       86.6 secs

     total energy              =   -5267.96405762 Ry
     Harris-Foulkes estimate   =   -5267.98289356 Ry
     estimated scf accuracy    <       0.33773154 Ry

     total magnetization       =    28.95 Bohr mag/cell
     absolute magnetization    =    29.10 Bohr mag/cell

     iteration #  3     ecut=    71.00 Ry     beta= 0.10
     Davidson diagonalization with overlap
     ethr =  1.32E-04,  avg # of iterations =  3.0

     total cpu time spent up to now is      115.8 secs

     total energy              =   -5268.02196112 Ry
     Harris-Foulkes estimate   =   -5268.02445588 Ry
     estimated scf accuracy    <       0.36764163 Ry

     total magnetization       =    30.22 Bohr mag/cell
     absolute magnetization    =    30.55 Bohr mag/cell

     iteration #  4     ecut=    71.00 Ry     beta= 0.10
     Davidson diagonalization with overlap
     ethr =  1.32E-04,  avg # of iterations =  1.0

     total cpu time spent up to now is      133.9 secs

     total energy              =   -5268.03969567 Ry
     Harris-Foulkes estimate   =   -5268.03077040 Ry
     estimated scf accuracy    <       0.11971550 Ry

     total magnetization       =    30.45 Bohr mag/cell
     absolute magnetization    =    30.81 Bohr mag/cell

     iteration #  5     ecut=    71.00 Ry     beta= 0.10
     Davidson diagonalization with overlap
     ethr =  4.68E-05,  avg # of iterations =  1.1

     total cpu time spent up to now is      152.4 secs

     total energy              =   -5268.12568007 Ry
     Harris-Foulkes estimate   =   -5268.04371129 Ry
     estimated scf accuracy    <       0.10794084 Ry

     total magnetization       =    30.50 Bohr mag/cell
     absolute magnetization    =    30.90 Bohr mag/cell

     iteration #  6     ecut=    71.00 Ry     beta= 0.10
     Davidson diagonalization with overlap
     ethr =  4.22E-05,  avg # of iterations =  3.3

     negative rho (up, down):  0.000E+00 3.599E-03

     total cpu time spent up to now is      184.3 secs

     total energy              =   -5268.14160744 Ry
     Harris-Foulkes estimate   =   -5268.16458697 Ry
     estimated scf accuracy    <       0.22837373 Ry

     total magnetization       =    31.17 Bohr mag/cell
     absolute magnetization    =    31.95 Bohr mag/cell

     iteration #  7     ecut=    71.00 Ry     beta= 0.10
     Davidson diagonalization with overlap
     ethr =  4.22E-05,  avg # of iterations =  2.9

     negative rho (up, down):  0.000E+00 2.215E-03

     total cpu time spent up to now is      213.8 secs

     total energy              =   -5268.18545340 Ry
     Harris-Foulkes estimate   =   -5268.19080380 Ry
     estimated scf accuracy    <       0.01197511 Ry

     total magnetization       =    32.62 Bohr mag/cell
     absolute magnetization    =    34.26 Bohr mag/cell

     iteration #  8     ecut=    71.00 Ry     beta= 0.10
     Davidson diagonalization with overlap
     ethr =  4.68E-06,  avg # of iterations =  2.3

     negative rho (up, down):  0.000E+00 2.049E-03

     total cpu time spent up to now is      238.4 secs

     total energy              =   -5268.18750409 Ry
     Harris-Foulkes estimate   =   -5268.18729070 Ry
     estimated scf accuracy    <       0.00870174 Ry

     total magnetization       =    32.53 Bohr mag/cell
     absolute magnetization    =    33.98 Bohr mag/cell

     iteration #  9     ecut=    71.00 Ry     beta= 0.10
     Davidson diagonalization with overlap
     ethr =  3.40E-06,  avg # of iterations =  1.3

     negative rho (up, down):  0.000E+00 2.515E-03

     total cpu time spent up to now is      257.6 secs

     total energy              =   -5268.19074734 Ry
     Harris-Foulkes estimate   =   -5268.18773518 Ry
     estimated scf accuracy    <       0.00558609 Ry

     total magnetization       =    32.60 Bohr mag/cell
     absolute magnetization    =    34.08 Bohr mag/cell

     iteration # 10     ecut=    71.00 Ry     beta= 0.10
     Davidson diagonalization with overlap
     ethr =  2.18E-06,  avg # of iterations =  3.4

     negative rho (up, down):  0.000E+00 2.448E-03

     total cpu time spent up to now is      287.7 secs

     total energy              =   -5268.19238964 Ry
     Harris-Foulkes estimate   =   -5268.19231268 Ry
     estimated scf accuracy    <       0.00086422 Ry

     total magnetization       =    32.94 Bohr mag/cell
     absolute magnetization    =    34.67 Bohr mag/cell

     iteration # 11     ecut=    71.00 Ry     beta= 0.10
     Davidson diagonalization with overlap
     ethr =  3.38E-07,  avg # of iterations =  1.2

     negative rho (up, down):  0.000E+00 2.211E-03

     total cpu time spent up to now is      306.5 secs

     total energy              =   -5268.19260255 Ry
     Harris-Foulkes estimate   =   -5268.19240474 Ry
     estimated scf accuracy    <       0.00069916 Ry

     total magnetization       =    32.95 Bohr mag/cell
     absolute magnetization    =    34.68 Bohr mag/cell

     iteration # 12     ecut=    71.00 Ry     beta= 0.10
     Davidson diagonalization with overlap
     ethr =  2.73E-07,  avg # of iterations =  1.8

     negative rho (up, down):  0.000E+00 2.480E-03

     total cpu time spent up to now is      327.7 secs

     total energy              =   -5268.19274695 Ry
     Harris-Foulkes estimate   =   -5268.19268109 Ry
     estimated scf accuracy    <       0.00072909 Ry

     total magnetization       =    33.01 Bohr mag/cell
     absolute magnetization    =    34.76 Bohr mag/cell

     iteration # 13     ecut=    71.00 Ry     beta= 0.10
     Davidson diagonalization with overlap
     ethr =  2.73E-07,  avg # of iterations =  3.3

     negative rho (up, down):  0.000E+00 2.525E-03

     total cpu time spent up to now is      358.2 secs

     total energy              =   -5268.19299633 Ry
     Harris-Foulkes estimate   =   -5268.19301058 Ry
     estimated scf accuracy    <       0.00016679 Ry

     total magnetization       =    33.17 Bohr mag/cell
     absolute magnetization    =    35.02 Bohr mag/cell

     iteration # 14     ecut=    71.00 Ry     beta= 0.10
     Davidson diagonalization with overlap
     ethr =  6.52E-08,  avg # of iterations =  2.0

     negative rho (up, down):  0.000E+00 2.531E-03

     total cpu time spent up to now is      380.6 secs

     total energy              =   -5268.19302608 Ry
     Harris-Foulkes estimate   =   -5268.19302239 Ry
     estimated scf accuracy    <       0.00013976 Ry

     total magnetization       =    33.20 Bohr mag/cell
     absolute magnetization    =    35.06 Bohr mag/cell

     iteration # 15     ecut=    71.00 Ry     beta= 0.10
     Davidson diagonalization with overlap
     ethr =  5.46E-08,  avg # of iterations =  1.3

     negative rho (up, down):  0.000E+00 2.546E-03

     total cpu time spent up to now is      399.5 secs

     total energy              =   -5268.19305586 Ry
     Harris-Foulkes estimate   =   -5268.19303670 Ry
     estimated scf accuracy    <       0.00002500 Ry

     total magnetization       =    33.22 Bohr mag/cell
     absolute magnetization    =    35.09 Bohr mag/cell

     iteration # 16     ecut=    71.00 Ry     beta= 0.10
     Davidson diagonalization with overlap
     ethr =  9.77E-09,  avg # of iterations =  2.8

     negative rho (up, down):  0.000E+00 2.547E-03

     total cpu time spent up to now is      426.1 secs

     total energy              =   -5268.19306276 Ry
     Harris-Foulkes estimate   =   -5268.19305990 Ry
     estimated scf accuracy    <       0.00000876 Ry

     total magnetization       =    33.22 Bohr mag/cell
     absolute magnetization    =    35.07 Bohr mag/cell

     iteration # 17     ecut=    71.00 Ry     beta= 0.10
     Davidson diagonalization with overlap
     ethr =  3.42E-09,  avg # of iterations =  3.2

     negative rho (up, down):  0.000E+00 2.558E-03

     total cpu time spent up to now is      455.5 secs

     total energy              =   -5268.19306677 Ry
     Harris-Foulkes estimate   =   -5268.19306534 Ry
     estimated scf accuracy    <       0.00000437 Ry

     total magnetization       =    33.23 Bohr mag/cell
     absolute magnetization    =    35.09 Bohr mag/cell

     iteration # 18     ecut=    71.00 Ry     beta= 0.10
     Davidson diagonalization with overlap
     ethr =  1.71E-09,  avg # of iterations =  2.2

     negative rho (up, down):  0.000E+00 2.575E-03
 
     Magnetic moment per site:
     atom:    1    charge:   14.3802    magn:    2.1231    constr:    0.0000
     atom:    2    charge:   14.3802    magn:    2.1253    constr:    0.0000
     atom:    3    charge:   14.3803    magn:    2.1239    constr:    0.0000
     atom:    4    charge:   14.3802    magn:    2.1253    constr:    0.0000
     atom:    5    charge:   14.3803    magn:    2.1239    constr:    0.0000
     atom:    6    charge:   14.3802    magn:    2.1253    constr:    0.0000
     atom:    7    charge:   14.3804    magn:    2.1244    constr:    0.0000
     atom:    8    charge:   14.3802    magn:    2.1253    constr:    0.0000
     atom:    9    charge:   14.3803    magn:    2.1239    constr:    0.0000
     atom:   10    charge:   14.3802    magn:    2.1253    constr:    0.0000
     atom:   11    charge:   14.3804    magn:    2.1244    constr:    0.0000
     atom:   12    charge:   14.3802    magn:    2.1253    constr:    0.0000
     atom:   13    charge:   14.3804    magn:    2.1244    constr:    0.0000
     atom:   14    charge:   14.3802    magn:    2.1253    constr:    0.0000
     atom:   15    charge:   14.3803    magn:    2.1250    constr:    0.0000
     atom:   16    charge:   14.3802    magn:    2.1253    constr:    0.0000

     total cpu time spent up to now is      478.5 secs

     End of self-consistent calculation

 ------ SPIN UP ------------


          k = 0.0552 0.0552 0.0552 ( 12209 PWs)   bands (ev):

   -69.4709 -69.3999 -69.3999 -69.3998 -69.3888 -69.3888 -69.3888 -69.3875
   -69.3874 -69.3874 -69.3869 -69.3869 -69.3866 -69.3831 -69.3817 -69.3270
   -35.6828 -35.6828 -35.6828 -35.6808 -35.6808 -35.6808 -35.5624 -35.5624
   -35.5575 -35.5000 -35.4976 -35.4976 -35.4976 -35.4818 -35.4818 -35.4706
   -35.4706 -35.4706 -35.4444 -35.4444 -35.4252 -35.4159 -35.4159 -35.4159
   -35.4069 -35.4069 -35.4069 -35.3981 -35.3981 -35.3981 -35.3952 -35.3952
   -35.3952 -35.3885 -35.3884 -35.3884 -35.3802 -35.3802 -35.3801 -35.2564
   -35.2539 -35.2539 -35.2539 -35.2515 -35.2515 -35.2515 -35.2514 -35.2514
    10.0613  13.6137  13.6137  13.6137  13.6332  13.6332  13.6332  13.6382
    13.6382  13.6382  13.6727  13.6727  14.0471  14.0471  14.0471  15.2163
    15.2302  15.2302  15.2302  15.2423  15.2423  15.2424  15.2996  15.2996
    15.3749  15.3750  15.3750  15.4399  15.4399  15.4938  15.7056  15.7056
    15.7056  16.3363  16.3363  16.3769  16.6571  16.6571  16.6572  16.7343
    16.7343  16.7343  16.8257  16.8257  16.8257  16.9047  16.9047  16.9047
    17.5191  17.5191  17.5239  17.5239  17.5239  17.5623  17.5623  17.5623
    17.6058  17.6058  17.6058  17.6119  17.6119  17.6119  17.7222  17.7222
    17.7222  17.7403  17.7403  17.7403  17.7593  17.7593  17.7610  17.7610
    18.6050  18.6050  18.6050  18.6852  18.6852  18.6852  18.7710  18.8355
    18.8355  18.8635  18.8635  18.8635  19.1686  19.1686  19.1686  19.3807
    19.3807  19.3808

          k = 0.0552 0.0552 0.1657 ( 12199 PWs)   bands (ev):

   -69.4684 -69.4125 -69.3993 -69.3993 -69.3901 -69.3901 -69.3885 -69.3873
   -69.3872 -69.3866 -69.3865 -69.3864 -69.3834 -69.3820 -69.3752 -69.3288
   -35.6772 -35.6772 -35.6759 -35.6740 -35.6705 -35.6705 -35.5647 -35.5574
   -35.5498 -35.5279 -35.5215 -35.5215 -35.5196 -35.5192 -35.4955 -35.4955
   -35.4698 -35.4489 -35.4431 -35.4398 -35.4335 -35.4157 -35.4157 -35.4074
   -35.4024 -35.4009 -35.4008 -35.3994 -35.3970 -35.3934 -35.3934 -35.3888
   -35.3888 -35.3849 -35.3849 -35.3617 -35.3588 -35.3588 -35.3539 -35.2671
   -35.2612 -35.2612 -35.2597 -35.2581 -35.2559 -35.2540 -35.2539 -35.2531
    10.1910  13.0894  13.6307  13.6307  13.6868  13.6868  13.6895  13.6895
    13.7049  13.7231  13.7280  13.7309  14.0838  14.0838  14.2747  15.0487
    15.1126  15.2079  15.2169  15.2281  15.2282  15.2735  15.2736  15.3103
    15.3103  15.3306  15.3579  15.3579  15.6321  15.6336  15.6574  15.6574
    16.0230  16.3156  16.3337  16.4324  16.4690  16.4690  16.5241  16.6151
    16.6271  16.6271  16.8485  16.8485  16.9699  16.9699  17.0318  17.1192
    17.1940  17.1941  17.3123  17.4504  17.4504  17.4612  17.5107  17.5436
    17.5649  17.5649  17.6183  17.6205  17.6396  17.6397  17.7217  17.7217
    17.7244  17.7554  17.7569  17.7581  17.7604  17.9318  17.9319  17.9551
    18.0702  18.2414  18.3037  18.6055  18.6055  18.6279  18.6279  18.6284
    18.7231  18.8288  18.9490  18.9490  19.2313  19.2313  19.2493  19.2493
    19.7066  19.7066

          k = 0.0552 0.0552 0.2762 ( 12229 PWs)   bands (ev):

   -69.4634 -69.4250 -69.3984 -69.3984 -69.3917 -69.3917 -69.3879 -69.3869
   -69.3869 -69.3862 -69.3862 -69.3860 -69.3841 -69.3825 -69.3640 -69.3325
   -35.6637 -35.6637 -35.6625 -35.6612 -35.6526 -35.6526 -35.5650 -35.5594
   -35.5551 -35.5533 -35.5533 -35.5476 -35.5386 -35.5371 -35.5295 -35.5295
   -35.4692 -35.4593 -35.4586 -35.4454 -35.4143 -35.4143 -35.4103 -35.4072
   -35.4065 -35.4038 -35.4038 -35.3920 -35.3920 -35.3892 -35.3892 -35.3724
   -35.3663 -35.3579 -35.3579 -35.3368 -35.3336 -35.3336 -35.3296 -35.2852
   -35.2726 -35.2726 -35.2716 -35.2708 -35.2643 -35.2612 -35.2611 -35.2602
    10.4466  12.4739  13.6768  13.6768  13.7551  13.7551  13.7795  13.7795
    13.8373  13.8395  13.8801  13.8958  14.1173  14.1173  14.3330  14.7385
    14.9659  15.0123  15.1575  15.1942  15.2035  15.2058  15.3707  15.3707
    15.3886  15.3887  15.4319  15.4319  15.6443  15.6443  15.8723  15.8837
    16.2155  16.2155  16.2770  16.3045  16.3316  16.3588  16.3588  16.4253
    16.5146  16.5825  16.7403  16.7404  16.9840  16.9841  17.0285  17.0286
    17.0790  17.0790  17.1110  17.2758  17.3199  17.3476  17.3722  17.4897
    17.5017  17.5018  17.5831  17.5832  17.5903  17.6416  17.6586  17.7285
    17.7452  17.7483  17.7526  17.7602  17.9367  17.9772  17.9772  18.0114
    18.1616  18.1808  18.1808  18.4115  18.5182  18.6003  18.6003  18.6746
    18.6746  18.7675  18.9183  18.9183  19.1169  19.1169  19.3469  19.3469
    19.7899  19.7899

          k = 0.0552 0.0552 0.3867 ( 12218 PWs)   bands (ev):

   -69.4562 -69.4367 -69.3970 -69.3970 -69.3935 -69.3935 -69.3870 -69.3866
   -69.3866 -69.3861 -69.3861 -69.3853 -69.3850 -69.3833 -69.3539 -69.3380
   -35.6431 -35.6431 -35.6430 -35.6423 -35.6280 -35.6279 -35.5904 -35.5883
   -35.5861 -35.5861 -35.5646 -35.5646 -35.5629 -35.5497 -35.5334 -35.5236
   -35.4936 -35.4834 -35.4463 -35.4372 -35.4212 -35.4161 -35.4123 -35.4123
   -35.4068 -35.4068 -35.3910 -35.3909 -35.3894 -35.3894 -35.3734 -35.3405
   -35.3371 -35.3316 -35.3316 -35.3138 -35.3099 -35.3097 -35.3095 -35.3071
   -35.2890 -35.2888 -35.2883 -35.2883 -35.2768 -35.2729 -35.2729 -35.2718
    10.8201  11.8604  13.7374  13.7374  13.7980  13.7980  13.8926  13.8927
    13.9835  13.9977  14.0949  14.0949  14.1250  14.1363  14.2697  14.4545
    14.7161  14.7259  15.1403  15.1560  15.1683  15.1759  15.5175  15.5175
    15.5432  15.5432  15.6012  15.6012  15.7420  15.7420  15.9770  15.9770
    16.0896  16.0896  16.1827  16.1911  16.2801  16.2801  16.3053  16.3331
    16.3497  16.3593  16.4809  16.4809  16.6250  16.7407  16.9262  16.9516
    16.9968  17.1821  17.2007  17.2007  17.2147  17.2147  17.4182  17.4182
    17.4992  17.4992  17.5519  17.6553  17.6577  17.6712  17.6755  17.7275
    17.7296  17.7342  17.7470  17.7623  17.8078  17.8575  18.1420  18.2229
    18.2229  18.2516  18.3530  18.4245  18.4245  18.5500  18.5500  18.6625
    18.7473  18.7473  18.8075  18.8075  18.9780  18.9780  19.4953  19.4953
    19.7594  19.7594

          k = 0.0552 0.0552-0.4972 ( 12216 PWs)   bands (ev):

   -69.4474 -69.4470 -69.3955 -69.3954 -69.3952 -69.3952 -69.3865 -69.3864
   -69.3861 -69.3861 -69.3860 -69.3859 -69.3846 -69.3840 -69.3454 -69.3451
   -35.6185 -35.6183 -35.6182 -35.6180 -35.6167 -35.6167 -35.6167 -35.6166
   -35.5980 -35.5980 -35.5980 -35.5980 -35.5582 -35.5579 -35.5154 -35.5151
   -35.5054 -35.5052 -35.4335 -35.4333 -35.4269 -35.4265 -35.4099 -35.4099
   -35.4096 -35.4096 -35.3902 -35.3902 -35.3899 -35.3899 -35.3403 -35.3401
   -35.3125 -35.3122 -35.3111 -35.3108 -35.3080 -35.3080 -35.3080 -35.3080
   -35.2937 -35.2934 -35.2892 -35.2891 -35.2891 -35.2891 -35.2878 -35.2876
    11.2983  11.2983  13.7878  13.7879  13.7879  13.7879  14.0087  14.0087
    14.0088  14.0088  14.1382  14.1383  14.2052  14.2053  14.4171  14.4172
    14.4211  14.4213  15.1471  15.1473  15.1551  15.1553  15.7016  15.7016
    15.7016  15.7017  15.7670  15.7670  15.7670  15.7671  15.9189  15.9190
    15.9190  15.9190  16.0661  16.0662  16.0662  16.0663  16.3214  16.3216
    16.3412  16.3414  16.5524  16.5526  16.5580  16.5583  16.7629  16.7631
    16.9728  16.9729  17.3167  17.3167  17.3167  17.3167  17.3760  17.3760
    17.3760  17.3761  17.7023  17.7024  17.7028  17.7031  17.7406  17.7407
    17.7445  17.7447  17.7723  17.7724  17.8469  17.8472  17.9548  17.9551
    18.4226  18.4226  18.4226  18.4226  18.5219  18.5221  18.6381  18.6382
    18.6382  18.6382  18.8492  18.8493  18.8493  18.8493  19.6462  19.6462
    19.6463  19.6463

          k = 0.0552 0.1657 0.1657 ( 12227 PWs)   bands (ev):

   -69.4659 -69.4117 -69.4116 -69.3988 -69.3936 -69.3897 -69.3897 -69.3870
   -69.3863 -69.3861 -69.3839 -69.3837 -69.3821 -69.3755 -69.3754 -69.3306
   -35.6756 -35.6706 -35.6706 -35.6647 -35.6647 -35.6560 -35.5697 -35.5544
   -35.5458 -35.5426 -35.5425 -35.5378 -35.5365 -35.5303 -35.5119 -35.4778
   -35.4656 -35.4656 -35.4424 -35.4424 -35.4407 -35.4198 -35.4112 -35.4112
   -35.4084 -35.4058 -35.4058 -35.3975 -35.3975 -35.3925 -35.3918 -35.3869
   -35.3759 -35.3681 -35.3628 -35.3628 -35.3442 -35.3343 -35.3343 -35.2822
   -35.2726 -35.2658 -35.2657 -35.2600 -35.2599 -35.2593 -35.2519 -35.2511
    10.3192  13.1572  13.1572  13.5971  13.7233  13.7233  13.7423  13.7780
    13.7788  13.7788  13.7815  13.7896  14.1306  14.3107  14.3107  15.0199
    15.0540  15.0540  15.1211  15.2577  15.2577  15.2784  15.2907  15.2907
    15.2917  15.3239  15.3920  15.4023  15.5934  15.6297  15.6431  15.9283
    15.9283  16.2636  16.3219  16.3463  16.3464  16.3972  16.5150  16.5233
    16.7743  16.7743  16.8202  16.8202  16.8381  16.8875  17.0126  17.1258
    17.1258  17.1357  17.1357  17.3858  17.3859  17.4532  17.4882  17.5015
    17.5129  17.5129  17.5271  17.5797  17.5797  17.6346  17.6346  17.7039
    17.7487  17.7555  17.7560  17.7656  17.8498  18.0310  18.0798  18.1247
    18.1247  18.1384  18.1384  18.2355  18.2355  18.4387  18.4881  18.4881
    18.6391  18.6880  18.8519  19.0159  19.0384  19.3296  19.9096  19.9096
    20.0698  20.0698

          k = 0.0552 0.1657 0.2762 ( 12231 PWs)   bands (ev):

   -69.4611 -69.4237 -69.4099 -69.3979 -69.3973 -69.3913 -69.3890 -69.3867
   -69.3859 -69.3857 -69.3847 -69.3827 -69.3813 -69.3759 -69.3646 -69.3342
   -35.6667 -35.6580 -35.6577 -35.6532 -35.6481 -35.6342 -35.5742 -35.5719
   -35.5685 -35.5604 -35.5580 -35.5579 -35.5450 -35.5383 -35.5229 -35.5004
   -35.4693 -35.4680 -35.4394 -35.4379 -35.4369 -35.4328 -35.4211 -35.4159
   -35.4149 -35.4097 -35.4043 -35.3961 -35.3934 -35.3834 -35.3807 -35.3647
   -35.3645 -35.3523 -35.3463 -35.3382 -35.3248 -35.3113 -35.3110 -35.3044
   -35.2879 -35.2754 -35.2751 -35.2716 -35.2676 -35.2657 -35.2542 -35.2538
    10.5718  12.5608  13.2729  13.5775  13.7711  13.8240  13.8686  13.8838
    13.8934  13.9014  13.9023  13.9496  14.1827  14.3316  14.3746  14.7615
    14.9125  14.9912  15.1214  15.2105  15.2304  15.2567  15.2930  15.3221
    15.3469  15.3638  15.3991  15.5468  15.5479  15.7817  15.8172  15.8650
    16.1146  16.1294  16.2174  16.2211  16.2620  16.3091  16.3183  16.4327
    16.5410  16.6397  16.6844  16.7784  16.8970  16.9616  16.9957  17.0314
    17.0498  17.1101  17.1155  17.1485  17.1595  17.3090  17.3506  17.3683
    17.4071  17.5196  17.5625  17.5812  17.6086  17.6313  17.6370  17.7346
    17.7445  17.7554  17.7726  17.7755  17.8605  17.9918  17.9921  18.0043
    18.1371  18.1741  18.1885  18.2121  18.2267  18.3343  18.3754  18.4400
    18.5565  18.8158  18.8207  18.8380  19.0224  19.5078  19.6972  20.2465
    20.3169  20.6285

          k = 0.0552 0.1657 0.3867 ( 12215 PWs)   bands (ev):

   -69.4541 -69.4351 -69.4075 -69.4010 -69.3965 -69.3931 -69.3880 -69.3864
   -69.3859 -69.3857 -69.3849 -69.3833 -69.3793 -69.3767 -69.3548 -69.3395
   -35.6507 -35.6391 -35.6389 -35.6368 -35.6253 -35.6061 -35.6016 -35.5926
   -35.5878 -35.5877 -35.5760 -35.5685 -35.5680 -35.5374 -35.5311 -35.5048
   -35.4918 -35.4613 -35.4561 -35.4349 -35.4318 -35.4271 -35.4228 -35.4197
   -35.4136 -35.4134 -35.3984 -35.3954 -35.3941 -35.3755 -35.3677 -35.3557
   -35.3360 -35.3321 -35.3285 -35.3246 -35.3158 -35.3071 -35.3056 -35.2911
   -35.2903 -35.2889 -35.2885 -35.2884 -35.2801 -35.2754 -35.2615 -35.2614
    10.9405  11.9624  13.3995  13.5525  13.8324  13.8817  13.9818  14.0270
    14.0281  14.0585  14.1497  14.1767  14.1856  14.2805  14.3159  14.4919
    14.7238  14.7460  15.1685  15.1989  15.2069  15.2194  15.3130  15.4310
    15.4731  15.4857  15.5346  15.5838  15.7345  15.8308  15.9771  16.0234
    16.0487  16.0504  16.0789  16.1076  16.1886  16.1950  16.2475  16.2546
    16.2599  16.2950  16.4212  16.5840  16.6965  16.7701  16.7777  16.8873
    17.1151  17.1996  17.2077  17.2144  17.2280  17.2286  17.3140  17.3278
    17.4396  17.4949  17.5416  17.6082  17.6308  17.6465  17.6561  17.7128
    17.7209  17.7564  17.7826  17.7958  17.8341  17.9023  17.9362  18.0096
    18.0536  18.1250  18.1793  18.2337  18.2389  18.3200  18.5111  18.5329
    18.6025  18.6089  18.7716  18.9374  19.0074  19.4712  19.7339  20.1782
    20.4587  20.7387

          k = 0.0552 0.1657-0.4972 ( 12228 PWs)   bands (ev):

   -69.4455 -69.4452 -69.4046 -69.4043 -69.3950 -69.3947 -69.3870 -69.3868
   -69.3862 -69.3859 -69.3843 -69.3838 -69.3780 -69.3776 -69.3466 -69.3463
   -35.6284 -35.6284 -35.6163 -35.6161 -35.6155 -35.6153 -35.6148 -35.6148
   -35.5980 -35.5980 -35.5744 -35.5742 -35.5732 -35.5732 -35.5133 -35.5130
   -35.4843 -35.4842 -35.4416 -35.4413 -35.4294 -35.4291 -35.4232 -35.4229
   -35.4172 -35.4169 -35.3949 -35.3946 -35.3713 -35.3710 -35.3647 -35.3645
   -35.3300 -35.3299 -35.3104 -35.3101 -35.3070 -35.3067 -35.3051 -35.3051
   -35.2965 -35.2962 -35.2888 -35.2888 -35.2742 -35.2742 -35.2736 -35.2735
    11.4112  11.4112  13.4978  13.4978  13.8805  13.8805  14.0969  14.0970
    14.1664  14.1665  14.1847  14.1848  14.2550  14.2551  14.4437  14.4438
    14.4590  14.4591  15.1734  15.1736  15.1940  15.1942  15.5911  15.5912
    15.5934  15.5935  15.6193  15.6194  15.6505  15.6505  15.9899  15.9899
    16.0065  16.0065  16.0804  16.0804  16.1808  16.1808  16.1811  16.1812
    16.2780  16.2782  16.3833  16.3834  16.3872  16.3874  16.9363  16.9364
    17.0578  17.0579  17.2568  17.2568  17.3412  17.3413  17.3687  17.3688
    17.4021  17.4022  17.6037  17.6038  17.6844  17.6846  17.6863  17.6865
    17.7194  17.7196  17.7618  17.7619  17.8400  17.8401  17.8920  17.8923
    18.0883  18.0885  18.2012  18.2013  18.3859  18.3859  18.4461  18.4461
    18.6596  18.6597  18.7943  18.7943  19.2356  19.2356  19.9703  19.9704
    20.6492  20.6493

          k = 0.0552 0.2762 0.2762 ( 12204 PWs)   bands (ev):

   -69.4565 -69.4213 -69.4213 -69.4029 -69.3969 -69.3905 -69.3905 -69.3865
   -69.3857 -69.3854 -69.3853 -69.3829 -69.3769 -69.3658 -69.3657 -69.3375
   -35.6620 -35.6469 -35.6468 -35.6391 -35.6391 -35.6087 -35.5845 -35.5845
   -35.5835 -35.5810 -35.5738 -35.5707 -35.5543 -35.5362 -35.5036 -35.4701
   -35.4678 -35.4677 -35.4635 -35.4634 -35.4342 -35.4275 -35.4274 -35.4198
   -35.4198 -35.4091 -35.4090 -35.4029 -35.4028 -35.3981 -35.3704 -35.3466
   -35.3417 -35.3417 -35.3347 -35.3310 -35.3307 -35.3123 -35.3069 -35.2912
   -35.2911 -35.2810 -35.2810 -35.2755 -35.2747 -35.2747 -35.2518 -35.2511
    10.8181  12.7210  12.7210  13.4666  13.9336  13.9517  13.9517  13.9723
    14.0179  14.0229  14.0381  14.0381  14.2756  14.3997  14.3998  14.8566
    14.8593  14.8593  14.9197  15.2506  15.2578  15.3056  15.3056  15.3183
    15.3437  15.3437  15.4094  15.4515  15.7129  15.7358  15.7939  16.0002
    16.0002  16.0819  16.0820  16.0841  16.1296  16.1506  16.2162  16.2794
    16.5605  16.5605  16.7011  16.7011  16.7611  16.7611  16.7955  16.9337
    17.0013  17.0013  17.1053  17.1852  17.2955  17.2956  17.3206  17.3709
    17.5425  17.5552  17.5552  17.5667  17.5667  17.5871  17.5871  17.6214
    17.6723  17.7128  17.7290  17.7660  17.7994  17.9100  17.9546  17.9547
    17.9737  17.9737  18.0316  18.1827  18.2412  18.2412  18.2498  18.5513
    18.5514  18.5993  18.8827  19.0456  19.0623  19.7757  20.3272  20.3272
    20.9656  20.9656

          k = 0.0552 0.2762 0.3867 ( 12210 PWs)   bands (ev):

   -69.4500 -69.4320 -69.4178 -69.4084 -69.3956 -69.3922 -69.3894 -69.3869
   -69.3861 -69.3854 -69.3848 -69.3834 -69.3731 -69.3676 -69.3567 -69.3424
   -35.6506 -35.6311 -35.6309 -35.6267 -35.6202 -35.6105 -35.5959 -35.5918
   -35.5914 -35.5904 -35.5903 -35.5779 -35.5753 -35.5231 -35.5054 -35.4860
   -35.4822 -35.4617 -35.4569 -35.4384 -35.4346 -35.4335 -35.4325 -35.4297
   -35.4292 -35.4247 -35.4121 -35.4024 -35.4009 -35.3809 -35.3626 -35.3613
   -35.3467 -35.3287 -35.3253 -35.3206 -35.3174 -35.3150 -35.2999 -35.2902
   -35.2896 -35.2881 -35.2873 -35.2806 -35.2744 -35.2740 -35.2542 -35.2538
    11.1760  12.1571  12.9269  13.3242  14.0127  14.0271  14.0945  14.1457
    14.1498  14.1893  14.2010  14.2686  14.3160  14.3506  14.3581  14.6134
    14.7405  14.7541  15.0715  15.2192  15.2564  15.2581  15.2826  15.2904
    15.3986  15.4284  15.4292  15.5043  15.7182  15.8187  15.8742  15.9269
    15.9282  16.0054  16.0430  16.0615  16.0647  16.0837  16.1527  16.1976
    16.2445  16.2905  16.3696  16.4223  16.4631  16.5208  16.9689  17.0174
    17.0689  17.2121  17.2386  17.2488  17.2593  17.2879  17.2976  17.3595
    17.4826  17.4938  17.5012  17.5247  17.5870  17.6030  17.6074  17.6086
    17.6812  17.6985  17.7227  17.7817  17.7888  17.8129  17.8378  17.8590
    17.9206  18.0022  18.0294  18.0308  18.0478  18.2123  18.2688  18.3670
    18.6991  18.7494  18.8728  19.0047  19.3653  20.0129  20.0947  20.7266
    20.9859  21.5903

          k = 0.0552 0.2762-0.4972 ( 12208 PWs)   bands (ev):

   -69.4419 -69.4416 -69.4136 -69.4133 -69.3941 -69.3938 -69.3883 -69.3880
   -69.3859 -69.3855 -69.3843 -69.3838 -69.3702 -69.3699 -69.3490 -69.3487
   -35.6331 -35.6331 -35.6118 -35.6117 -35.6117 -35.6116 -35.6116 -35.6113
   -35.5982 -35.5981 -35.5930 -35.5930 -35.5427 -35.5427 -35.5063 -35.5060
   -35.4590 -35.4590 -35.4486 -35.4485 -35.4483 -35.4483 -35.4286 -35.4284
   -35.4214 -35.4211 -35.4021 -35.4019 -35.3971 -35.3970 -35.3541 -35.3540
   -35.3535 -35.3532 -35.3054 -35.3052 -35.3027 -35.3025 -35.3024 -35.3023
   -35.3010 -35.3010 -35.2890 -35.2890 -35.2617 -35.2617 -35.2615 -35.2615
    11.6303  11.6303  13.1398  13.1398  14.0516  14.0517  14.2323  14.2323
    14.2590  14.2591  14.2650  14.2650  14.3889  14.3890  14.4875  14.4876
    14.5243  14.5244  15.2214  15.2216  15.2413  15.2414  15.3707  15.3708
    15.4113  15.4114  15.4509  15.4510  15.6438  15.6438  16.0189  16.0189
    16.0211  16.0211  16.0431  16.0432  16.1274  16.1276  16.1422  16.1423
    16.1803  16.1803  16.2057  16.2059  16.2103  16.2103  17.1539  17.1540
    17.1855  17.1856  17.2337  17.2338  17.3037  17.3038  17.3809  17.3809
    17.3914  17.3915  17.3919  17.3920  17.6434  17.6436  17.6540  17.6542
    17.6736  17.6738  17.7387  17.7389  17.8036  17.8038  17.8075  17.8076
    17.9057  17.9057  18.0502  18.0503  18.1192  18.1192  18.2494  18.2495
    18.8092  18.8092  18.9041  18.9041  19.6891  19.6891  20.4233  20.4233
    21.6604  21.6605

          k = 0.0552 0.3867 0.3867 ( 12231 PWs)   bands (ev):

   -69.4441 -69.4276 -69.4276 -69.4155 -69.3943 -69.3910 -69.3910 -69.3882
   -69.3857 -69.3849 -69.3848 -69.3837 -69.3677 -69.3595 -69.3594 -69.3468
   -35.6437 -35.6201 -35.6201 -35.6135 -35.6135 -35.6130 -35.6130 -35.6022
   -35.6004 -35.5987 -35.5976 -35.5860 -35.5446 -35.5111 -35.4774 -35.4773
   -35.4705 -35.4705 -35.4602 -35.4579 -35.4531 -35.4385 -35.4384 -35.4373
   -35.4256 -35.4114 -35.4113 -35.4067 -35.4066 -35.4065 -35.3971 -35.3533
   -35.3483 -35.3280 -35.3280 -35.3123 -35.3073 -35.3056 -35.2980 -35.2947
   -35.2930 -35.2930 -35.2887 -35.2887 -35.2618 -35.2618 -35.2516 -35.2512
    11.5158  12.4249  12.4249  13.0463  14.1810  14.1828  14.2411  14.2550
    14.2550  14.3456  14.3457  14.3713  14.3713  14.3721  14.4426  14.6958
    14.7228  14.8278  14.8278  15.2135  15.2392  15.2491  15.3163  15.3164
    15.3196  15.3196  15.3348  15.4089  15.5711  15.8081  15.8287  15.8288
    15.8723  15.9538  15.9774  16.0159  16.0861  16.0861  16.1047  16.1047
    16.1197  16.1198  16.1528  16.1951  16.3323  16.7109  16.7109  17.1756
    17.2376  17.2432  17.2432  17.2963  17.3222  17.3399  17.3694  17.3695
    17.3728  17.4795  17.5313  17.5313  17.5415  17.5415  17.5655  17.6151
    17.6152  17.6343  17.6351  17.6593  17.7283  17.7283  17.7789  17.8134
    17.8871  17.9173  17.9173  17.9980  18.0794  18.0794  18.1263  18.1439
    18.8571  18.8571  18.9236  19.0139  19.7616  20.5037  20.5816  20.5816
    21.3227  21.3227

          k = 0.0552 0.3867-0.4972 ( 12232 PWs)   bands (ev):

   -69.4366 -69.4363 -69.4222 -69.4219 -69.3928 -69.3926 -69.3898 -69.3895
   -69.3854 -69.3851 -69.3845 -69.3841 -69.3633 -69.3630 -69.3526 -69.3523
   -35.6310 -35.6310 -35.6100 -35.6099 -35.6086 -35.6085 -35.6084 -35.6082
   -35.6067 -35.6065 -35.5993 -35.5992 -35.5083 -35.5083 -35.4957 -35.4954
   -35.4664 -35.4661 -35.4516 -35.4515 -35.4404 -35.4403 -35.4339 -35.4339
   -35.4321 -35.4321 -35.4198 -35.4197 -35.4100 -35.4100 -35.3794 -35.3793
   -35.3373 -35.3370 -35.3117 -35.3114 -35.2995 -35.2994 -35.2991 -35.2989
   -35.2980 -35.2980 -35.2907 -35.2906 -35.2541 -35.2541 -35.2540 -35.2540
    11.9414  11.9414  12.7345  12.7345  14.2651  14.2651  14.2755  14.2756
    14.3085  14.3085  14.4553  14.4554  14.5115  14.5116  14.5904  14.5905
    14.5927  14.5928  15.1024  15.1026  15.2468  15.2468  15.2552  15.2552
    15.2643  15.2644  15.3260  15.3261  15.6812  15.6812  15.8745  15.8745
    15.9164  15.9165  15.9529  15.9530  15.9548  15.9549  15.9740  15.9741
    16.1554  16.1556  16.1770  16.1771  16.4179  16.4179  16.9921  16.9922
    17.2760  17.2762  17.3022  17.3022  17.3883  17.3884  17.3957  17.3957
    17.4300  17.4300  17.4626  17.4627  17.5552  17.5555  17.5808  17.5809
    17.6045  17.6047  17.6192  17.6194  17.6593  17.6595  17.8540  17.8542
    17.8765  17.8765  17.9595  17.9596  17.9598  17.9598  18.1080  18.1081
    18.9176  18.9176  18.9644  18.9644  20.1712  20.1712  20.9229  20.9229
    21.1634  21.1635

          k = 0.0552-0.4972-0.4972 ( 12260 PWs)   bands (ev):

   -69.4301 -69.4299 -69.4299 -69.4295 -69.3915 -69.3912 -69.3912 -69.3909
   -69.3851 -69.3847 -69.3847 -69.3843 -69.3576 -69.3573 -69.3573 -69.3569
   -35.6231 -35.6230 -35.6230 -35.6230 -35.6073 -35.6071 -35.6071 -35.6070
   -35.6023 -35.6022 -35.6022 -35.6020 -35.4825 -35.4822 -35.4822 -35.4819
   -35.4715 -35.4715 -35.4714 -35.4714 -35.4488 -35.4488 -35.4487 -35.4487
   -35.4162 -35.4161 -35.4161 -35.4161 -35.4058 -35.4057 -35.4057 -35.4057
   -35.3237 -35.3235 -35.3235 -35.3231 -35.2974 -35.2973 -35.2973 -35.2972
   -35.2943 -35.2942 -35.2942 -35.2941 -35.2516 -35.2515 -35.2515 -35.2515
    12.3209  12.3210  12.3210  12.3210  14.3065  14.3066  14.3066  14.3066
    14.4456  14.4456  14.4456  14.4456  14.5936  14.5936  14.5936  14.5936
    14.8352  14.8353  14.8353  14.8354  15.2098  15.2099  15.2099  15.2099
    15.2634  15.2635  15.2635  15.2635  15.7594  15.7594  15.7595  15.7595
    15.8739  15.8741  15.8741  15.8743  15.9189  15.9190  15.9190  15.9192
    16.1460  16.1461  16.1461  16.1462  16.6919  16.6919  16.6919  16.6919
    17.3819  17.3819  17.3819  17.3820  17.3892  17.3893  17.3893  17.3896
    17.5041  17.5042  17.5042  17.5043  17.5383  17.5384  17.5384  17.5385
    17.5966  17.5968  17.5968  17.5970  17.6351  17.6351  17.6351  17.6351
    17.9008  17.9008  17.9008  17.9010  18.0188  18.0188  18.0188  18.0189
    18.9698  18.9698  18.9699  18.9699  20.6656  20.6657  20.6657  20.6657
    21.4357  21.4357

          k = 0.1657 0.1657 0.1657 ( 12251 PWs)   bands (ev):

   -69.4635 -69.4108 -69.4108 -69.4107 -69.3932 -69.3932 -69.3931 -69.3849
   -69.3835 -69.3835 -69.3835 -69.3819 -69.3757 -69.3757 -69.3756 -69.3324
   -35.6688 -35.6688 -35.6688 -35.6513 -35.6513 -35.6513 -35.5646 -35.5646
   -35.5618 -35.5556 -35.5556 -35.5556 -35.5229 -35.5147 -35.5147 -35.4831
   -35.4831 -35.4831 -35.4478 -35.4478 -35.4478 -35.4146 -35.4146 -35.4146
   -35.4045 -35.4045 -35.3927 -35.3926 -35.3926 -35.3901 -35.3901 -35.3901
   -35.3643 -35.3643 -35.3643 -35.3573 -35.3219 -35.3219 -35.3218 -35.2982
   -35.2753 -35.2753 -35.2753 -35.2581 -35.2581 -35.2581 -35.2558 -35.2558
    10.4462  13.2293  13.2293  13.2293  13.6939  13.6939  13.6939  13.8411
    13.8411  13.8649  13.8649  13.8649  14.3604  14.3604  14.3604  14.9423
    15.0428  15.0428  15.0428  15.2066  15.2066  15.2761  15.2761  15.2761
    15.3736  15.3736  15.3736  15.5494  15.5494  15.5531  15.8283  15.8283
    15.8283  16.2532  16.2532  16.2879  16.2879  16.2880  16.6245  16.6500
    16.6501  16.6501  16.7805  16.7806  16.7806  16.8338  16.8338  16.8338
    17.1960  17.1960  17.1960  17.4126  17.4126  17.4126  17.4811  17.4811
    17.5156  17.5156  17.5156  17.6719  17.6719  17.6719  17.7066  17.7067
    17.7067  17.7230  17.7230  17.7230  17.7433  17.7433  17.7690  17.7690
    18.2095  18.2158  18.2158  18.2159  18.2538  18.2539  18.2539  18.6876
    18.6876  18.6876  18.7396  18.7396  19.5529  19.5529  19.5529  20.1953
    20.1953  20.1953

          k = 0.1657 0.1657 0.2762 ( 12240 PWs)   bands (ev):

   -69.4588 -69.4225 -69.4091 -69.4090 -69.3968 -69.3967 -69.3922 -69.3863
   -69.3832 -69.3819 -69.3813 -69.3811 -69.3761 -69.3760 -69.3651 -69.3358
   -35.6604 -35.6604 -35.6555 -35.6420 -35.6311 -35.6310 -35.5785 -35.5768
   -35.5768 -35.5731 -35.5689 -35.5547 -35.5499 -35.5108 -35.5108 -35.5052
   -35.4971 -35.4743 -35.4511 -35.4485 -35.4485 -35.4261 -35.4236 -35.4236
   -35.4171 -35.4107 -35.3952 -35.3836 -35.3836 -35.3704 -35.3693 -35.3693
   -35.3665 -35.3665 -35.3387 -35.3376 -35.3214 -35.3052 -35.3051 -35.3020
   -35.2884 -35.2884 -35.2812 -35.2705 -35.2645 -35.2598 -35.2598 -35.2559
    10.6961  12.6501  13.3536  13.3536  13.6783  13.6783  13.8805  13.9428
    13.9522  13.9791  13.9791  14.0304  14.4047  14.4047  14.4328  14.7679
    14.8682  15.0805  15.0805  15.0814  15.1723  15.2486  15.3247  15.3440
    15.3440  15.3927  15.4995  15.4995  15.6394  15.7387  15.7387  15.7489
    16.0024  16.1301  16.1301  16.1873  16.1984  16.2342  16.3930  16.3930
    16.4243  16.4243  16.6577  16.7599  16.8268  16.8639  16.9542  16.9542
    17.0019  17.0019  17.0398  17.2405  17.2405  17.3923  17.4272  17.4464
    17.4465  17.4841  17.5338  17.5643  17.6071  17.6071  17.6337  17.7119
    17.7263  17.7379  17.7585  17.7940  17.8225  17.8225  17.8530  17.8530
    17.9312  17.9824  18.3217  18.3217  18.3406  18.3484  18.3484  18.3928
    18.5357  18.7541  18.7541  18.7768  19.2607  19.2607  20.1948  20.4135
    20.4135  21.0529

          k = 0.1657 0.1657 0.3867 ( 12214 PWs)   bands (ev):

   -69.4520 -69.4336 -69.4067 -69.4066 -69.4003 -69.4003 -69.3909 -69.3878
   -69.3827 -69.3819 -69.3794 -69.3793 -69.3768 -69.3768 -69.3557 -69.3409
   -35.6454 -35.6454 -35.6365 -35.6289 -35.6050 -35.6050 -35.6013 -35.6013
   -35.5959 -35.5827 -35.5782 -35.5769 -35.5426 -35.5426 -35.5401 -35.4993
   -35.4857 -35.4786 -35.4452 -35.4452 -35.4416 -35.4412 -35.4320 -35.4320
   -35.4170 -35.4110 -35.4014 -35.3778 -35.3778 -35.3695 -35.3695 -35.3504
   -35.3459 -35.3459 -35.3389 -35.3191 -35.3151 -35.3046 -35.3046 -35.2905
   -35.2889 -35.2888 -35.2882 -35.2845 -35.2771 -35.2655 -35.2654 -35.2608
    11.0603  12.0655  13.4911  13.4911  13.6554  13.6554  14.0916  14.0986
    14.1143  14.1143  14.1424  14.2562  14.3668  14.3668  14.3809  14.5111
    14.7343  14.7875  15.1683  15.2160  15.2465  15.2466  15.2680  15.2719
    15.4547  15.4547  15.6334  15.6334  15.6897  15.6897  15.8909  15.9818
    16.0105  16.0105  16.0303  16.0304  16.1085  16.1418  16.1429  16.1876
    16.1876  16.2069  16.4642  16.4642  16.4677  16.6099  16.9172  16.9714
    17.0566  17.1981  17.1981  17.2675  17.2777  17.2777  17.2864  17.3802
    17.3802  17.5159  17.5159  17.6068  17.6234  17.6303  17.6465  17.6946
    17.7030  17.7186  17.7289  17.7321  17.8146  17.8420  17.9048  17.9049
    17.9457  17.9457  18.0881  18.2729  18.4895  18.4895  18.4993  18.4994
    18.5487  18.7271  18.7271  18.7513  18.9922  18.9922  20.6749  20.6749
    20.8721  21.0790

          k = 0.1657 0.1657-0.4972 ( 12196 PWs)   bands (ev):

   -69.4436 -69.4433 -69.4038 -69.4038 -69.4036 -69.4035 -69.3895 -69.3892
   -69.3825 -69.3821 -69.3780 -69.3780 -69.3777 -69.3776 -69.3478 -69.3474
   -35.6249 -35.6249 -35.6249 -35.6249 -35.6132 -35.6130 -35.6120 -35.6117
   -35.5799 -35.5798 -35.5750 -35.5749 -35.5749 -35.5749 -35.5216 -35.5213
   -35.4642 -35.4641 -35.4599 -35.4596 -35.4394 -35.4394 -35.4392 -35.4392
   -35.4073 -35.4070 -35.3827 -35.3826 -35.3733 -35.3733 -35.3731 -35.3731
   -35.3239 -35.3239 -35.3239 -35.3239 -35.3112 -35.3110 -35.3034 -35.3032
   -35.2944 -35.2942 -35.2754 -35.2754 -35.2754 -35.2754 -35.2705 -35.2704
    11.5243  11.5243  13.5979  13.5979  13.5979  13.5979  14.2537  14.2538
    14.2539  14.2539  14.2540  14.2540  14.2830  14.2831  14.4561  14.4563
    14.5099  14.5100  15.1861  15.1863  15.2391  15.2393  15.5175  15.5176
    15.5177  15.5177  15.5894  15.5894  15.5894  15.5894  15.9822  15.9822
    15.9822  15.9822  16.1179  16.1179  16.1179  16.1179  16.1250  16.1250
    16.1686  16.1688  16.2208  16.2210  16.2310  16.2311  17.0941  17.0942
    17.1190  17.1191  17.3229  17.3229  17.3230  17.3230  17.3309  17.3311
    17.3767  17.3768  17.3768  17.3768  17.6744  17.6747  17.6815  17.6817
    17.6980  17.6982  17.7255  17.7256  17.9311  17.9311  17.9496  17.9496
    17.9498  17.9498  17.9832  17.9835  18.6345  18.6345  18.6345  18.6345
    18.6719  18.6720  18.7304  18.7304  18.7304  18.7304  20.9217  20.9217
    20.9217  20.9217

          k = 0.1657 0.2762 0.2762 ( 12207 PWs)   bands (ev):

   -69.4543 -69.4201 -69.4201 -69.4075 -69.4022 -69.3956 -69.3956 -69.3882
   -69.3813 -69.3810 -69.3808 -69.3769 -69.3764 -69.3663 -69.3663 -69.3390
   -35.6554 -35.6478 -35.6478 -35.6250 -35.6250 -35.6075 -35.5878 -35.5873
   -35.5873 -35.5869 -35.5784 -35.5573 -35.5519 -35.5296 -35.5058 -35.4852
   -35.4795 -35.4795 -35.4750 -35.4750 -35.4562 -35.4372 -35.4371 -35.4371
   -35.3994 -35.3929 -35.3929 -35.3873 -35.3873 -35.3720 -35.3698 -35.3575
   -35.3506 -35.3468 -35.3414 -35.3414 -35.3232 -35.3044 -35.2964 -35.2898
   -35.2898 -35.2880 -35.2880 -35.2711 -35.2711 -35.2697 -35.2578 -35.2556
    10.9403  12.8153  12.8153  13.4956  13.5735  13.8728  13.8729  14.0357
    14.0669  14.1026  14.1420  14.1420  14.4828  14.4828  14.5062  14.8398
    14.8401  14.8401  15.0365  15.0476  15.2148  15.3092  15.3092  15.3897
    15.4156  15.4209  15.4209  15.5303  15.6180  15.6427  15.7114  15.8776
    15.8777  16.0562  16.0567  16.0638  16.0639  16.1100  16.1845  16.2584
    16.3086  16.3086  16.5656  16.5656  16.6465  16.6465  16.7147  16.9246
    17.0290  17.0290  17.0872  17.3266  17.3838  17.4013  17.4270  17.4270
    17.5139  17.5152  17.5152  17.5744  17.5904  17.5904  17.6311  17.6753
    17.7053  17.7076  17.7076  17.7333  17.7565  17.7566  17.7612  17.8228
    17.9030  17.9842  17.9842  18.3393  18.4321  18.4419  18.4419  18.5087
    18.5088  18.5349  18.7695  18.8352  18.9361  19.8186  19.8186  20.6946
    21.5098  21.5098

          k = 0.1657 0.2762 0.3867 ( 12207 PWs)   bands (ev):

   -69.4480 -69.4306 -69.4167 -69.4075 -69.4051 -69.3990 -69.3940 -69.3901
   -69.3810 -69.3807 -69.3793 -69.3771 -69.3733 -69.3680 -69.3575 -69.3437
   -35.6446 -35.6351 -35.6298 -35.6167 -35.6084 -35.6031 -35.6018 -35.5973
   -35.5919 -35.5862 -35.5814 -35.5787 -35.5530 -35.5391 -35.5126 -35.4993
   -35.4934 -35.4699 -35.4633 -35.4583 -35.4551 -35.4499 -35.4472 -35.4460
   -35.4167 -35.3979 -35.3921 -35.3812 -35.3776 -35.3729 -35.3685 -35.3617
   -35.3462 -35.3326 -35.3324 -35.3234 -35.3185 -35.3107 -35.3013 -35.2939
   -35.2874 -35.2872 -35.2819 -35.2751 -35.2742 -35.2739 -35.2596 -35.2578
    11.2948  12.2626  13.0279  13.4340  13.6577  13.8527  14.1458  14.1620
    14.2265  14.2313  14.2770  14.3610  14.4350  14.4475  14.5200  14.6154
    14.7708  14.8025  15.0443  15.1405  15.2081  15.2671  15.3122  15.3360
    15.4004  15.4795  15.4899  15.5477  15.6739  15.6804  15.7499  15.8378
    15.8537  15.9532  15.9608  15.9977  16.0048  16.0353  16.0511  16.0844
    16.1404  16.1778  16.2460  16.2924  16.3049  16.3519  16.7660  17.1090
    17.1109  17.2105  17.2294  17.3203  17.3283  17.3484  17.3843  17.3855
    17.4686  17.4996  17.5043  17.5258  17.5680  17.5961  17.6051  17.6619
    17.6738  17.7063  17.7313  17.7337  17.7397  17.7798  17.8054  17.8242
    17.8874  17.9043  18.1179  18.1843  18.1973  18.3716  18.4602  18.6402
    18.6455  18.6505  18.7735  18.8249  18.8315  19.4747  20.4160  21.0275
    21.6034  21.6600

          k = 0.1657 0.2762-0.4972 ( 12212 PWs)   bands (ev):

   -69.4401 -69.4398 -69.4126 -69.4122 -69.4024 -69.4021 -69.3923 -69.3920
   -69.3809 -69.3806 -69.3782 -69.3779 -69.3705 -69.3702 -69.3501 -69.3498
   -35.6284 -35.6284 -35.6188 -35.6188 -35.6073 -35.6071 -35.6071 -35.6068
   -35.5914 -35.5913 -35.5786 -35.5786 -35.5464 -35.5464 -35.5213 -35.5210
   -35.4748 -35.4746 -35.4612 -35.4610 -35.4549 -35.4548 -35.4404 -35.4403
   -35.4113 -35.4113 -35.3960 -35.3957 -35.3766 -35.3764 -35.3531 -35.3529
   -35.3451 -35.3451 -35.3158 -35.3158 -35.3084 -35.3082 -35.3010 -35.3008
   -35.2986 -35.2983 -35.2795 -35.2795 -35.2653 -35.2653 -35.2638 -35.2638
    11.7437  11.7437  13.2471  13.2472  13.7863  13.7864  14.3081  14.3082
    14.3527  14.3527  14.4116  14.4117  14.4173  14.4173  14.4710  14.4711
    14.5956  14.5957  15.2284  15.2286  15.2814  15.2815  15.3410  15.3411
    15.3629  15.3630  15.4920  15.4921  15.6060  15.6061  15.9482  15.9482
    15.9586  15.9588  15.9866  15.9867  15.9922  15.9923  16.0121  16.0122
    16.0610  16.0610  16.0920  16.0921  16.0925  16.0926  17.0237  17.0239
    17.2170  17.2170  17.3167  17.3167  17.3495  17.3496  17.3743  17.3743
    17.3785  17.3785  17.4271  17.4272  17.6375  17.6377  17.6579  17.6581
    17.6727  17.6729  17.7351  17.7352  17.7688  17.7690  17.8750  17.8752
    17.9270  17.9273  18.0025  18.0025  18.3747  18.3748  18.4250  18.4250
    18.7310  18.7311  18.7621  18.7622  19.1442  19.1443  21.0316  21.0317
    21.3537  21.3537

          k = 0.1657 0.3867 0.3867 ( 12214 PWs)   bands (ev):

   -69.4422 -69.4262 -69.4262 -69.4145 -69.4029 -69.3972 -69.3972 -69.3926
   -69.3802 -69.3794 -69.3793 -69.3775 -69.3681 -69.3602 -69.3601 -69.3479
   -35.6377 -35.6206 -35.6206 -35.6093 -35.6093 -35.6048 -35.6011 -35.6011
   -35.5984 -35.5965 -35.5891 -35.5674 -35.5480 -35.5289 -35.4943 -35.4928
   -35.4927 -35.4795 -35.4794 -35.4678 -35.4666 -35.4656 -35.4655 -35.4397
   -35.4099 -35.3921 -35.3918 -35.3918 -35.3852 -35.3852 -35.3764 -35.3474
   -35.3448 -35.3254 -35.3253 -35.3191 -35.3184 -35.3045 -35.2997 -35.2997
   -35.2925 -35.2863 -35.2863 -35.2858 -35.2649 -35.2649 -35.2575 -35.2561
    11.6327  12.5335  12.5335  13.1591  13.8601  14.1251  14.1251  14.2539
    14.3267  14.4051  14.4309  14.4310  14.4915  14.4916  14.6585  14.6954
    14.7936  14.8311  14.8311  15.0818  15.2483  15.2741  15.3362  15.3363
    15.3471  15.3471  15.4069  15.4452  15.5467  15.6054  15.7857  15.7915
    15.7915  15.8701  15.9279  15.9383  15.9384  15.9723  15.9866  15.9867
    16.0008  16.0091  16.0091  16.0863  16.1703  16.4815  16.4815  17.0087
    17.2579  17.2579  17.3166  17.3210  17.3667  17.3712  17.4734  17.4766
    17.5283  17.5283  17.5521  17.5541  17.5541  17.5680  17.5680  17.6280
    17.6357  17.6951  17.6952  17.7115  17.7471  17.7864  17.7864  17.8244
    17.8244  17.8692  17.9485  18.0014  18.2268  18.2268  18.2831  18.3594
    18.7492  18.7492  18.8072  18.8629  19.1995  19.9948  19.9948  21.0856
    21.4405  22.2123

          k = 0.1657 0.3867-0.4972 ( 12224 PWs)   bands (ev):

   -69.4350 -69.4347 -69.4209 -69.4206 -69.4004 -69.4001 -69.3951 -69.3949
   -69.3798 -69.3795 -69.3785 -69.3781 -69.3639 -69.3636 -69.3536 -69.3533
   -35.6254 -35.6254 -35.6115 -35.6114 -35.6050 -35.6050 -35.6042 -35.6040
   -35.5996 -35.5994 -35.5840 -35.5840 -35.5141 -35.5141 -35.5129 -35.5127
   -35.4829 -35.4827 -35.4815 -35.4813 -35.4705 -35.4704 -35.4445 -35.4445
   -35.4158 -35.4157 -35.3889 -35.3887 -35.3805 -35.3804 -35.3676 -35.3676
   -35.3352 -35.3350 -35.3082 -35.3081 -35.3075 -35.3072 -35.3018 -35.3016
   -35.3008 -35.3007 -35.2857 -35.2856 -35.2591 -35.2591 -35.2586 -35.2586
    12.0552  12.0552  12.8463  12.8463  14.0337  14.0337  14.3529  14.3529
    14.3940  14.3940  14.4335  14.4336  14.6132  14.6133  14.6220  14.6220
    14.7006  14.7007  15.1059  15.1060  15.2097  15.2099  15.2534  15.2535
    15.2804  15.2805  15.3918  15.3919  15.6526  15.6526  15.7478  15.7479
    15.8384  15.8386  15.8459  15.8459  15.8491  15.8492  15.8892  15.8893
    16.0403  16.0404  16.0435  16.0435  16.2224  16.2224  16.7213  16.7214
    17.3231  17.3232  17.3897  17.3898  17.4259  17.4260  17.4410  17.4412
    17.5336  17.5337  17.5604  17.5604  17.5752  17.5754  17.6121  17.6123
    17.6545  17.6547  17.6550  17.6552  17.7641  17.7642  17.7702  17.7704
    17.8309  17.8311  18.0560  18.0561  18.0836  18.0836  18.2453  18.2453
    18.8036  18.8036  18.8314  18.8315  19.5915  19.5916  20.5330  20.5331
    21.8570  21.8570

          k = 0.1657-0.4972-0.4972 ( 12236 PWs)   bands (ev):

   -69.4286 -69.4283 -69.4283 -69.4280 -69.3981 -69.3978 -69.3978 -69.3975
   -69.3791 -69.3789 -69.3789 -69.3784 -69.3584 -69.3581 -69.3581 -69.3577
   -35.6173 -35.6173 -35.6173 -35.6173 -35.6059 -35.6057 -35.6057 -35.6055
   -35.5915 -35.5913 -35.5913 -35.5912 -35.4993 -35.4991 -35.4991 -35.4988
   -35.4812 -35.4811 -35.4811 -35.4811 -35.4796 -35.4796 -35.4796 -35.4796
   -35.3914 -35.3913 -35.3913 -35.3913 -35.3844 -35.3844 -35.3843 -35.3843
   -35.3198 -35.3196 -35.3196 -35.3193 -35.3029 -35.3028 -35.3028 -35.3027
   -35.2940 -35.2938 -35.2938 -35.2937 -35.2566 -35.2566 -35.2565 -35.2565
    12.4344  12.4345  12.4345  12.4345  14.2790  14.2791  14.2791  14.2791
    14.3877  14.3877  14.3877  14.3878  14.7551  14.7551  14.7551  14.7551
    14.8531  14.8531  14.8531  14.8533  15.1574  15.1575  15.1575  15.1576
    15.3220  15.3220  15.3220  15.3220  15.7223  15.7224  15.7224  15.7226
    15.7327  15.7327  15.7327  15.7327  15.8322  15.8322  15.8322  15.8323
    16.0209  16.0210  16.0210  16.0211  16.4476  16.4477  16.4477  16.4477
    17.3933  17.3933  17.3933  17.3934  17.4991  17.4992  17.4992  17.4993
    17.5909  17.5910  17.5910  17.5912  17.5933  17.5935  17.5935  17.5937
    17.6129  17.6130  17.6130  17.6131  17.7963  17.7964  17.7964  17.7966
    17.8174  17.8175  17.8175  17.8175  18.1249  18.1249  18.1249  18.1250
    18.8435  18.8435  18.8435  18.8435  20.0556  20.0557  20.0557  20.0558
    22.3764  22.3764

          k = 0.2762 0.2762 0.2762 ( 12202 PWs)   bands (ev):

   -69.4502 -69.4178 -69.4178 -69.4178 -69.4008 -69.4008 -69.4008 -69.3908
   -69.3797 -69.3771 -69.3771 -69.3770 -69.3673 -69.3673 -69.3672 -69.3420
   -35.6429 -35.6429 -35.6429 -35.6051 -35.6051 -35.6051 -35.5941 -35.5941
   -35.5941 -35.5921 -35.5680 -35.5680 -35.5401 -35.5401 -35.5001 -35.5000
   -35.5000 -35.4841 -35.4841 -35.4841 -35.4636 -35.4537 -35.4537 -35.4537
   -35.3736 -35.3736 -35.3736 -35.3722 -35.3722 -35.3722 -35.3719 -35.3660
   -35.3660 -35.3425 -35.3424 -35.3424 -35.3134 -35.3014 -35.3014 -35.3014
   -35.2831 -35.2831 -35.2830 -35.2698 -35.2697 -35.2697 -35.2648 -35.2648
    11.1800  12.9907  12.9907  12.9907  13.7808  13.7808  13.7808  14.1535
    14.1535  14.2631  14.2631  14.2631  14.6101  14.6101  14.6101  14.8332
    14.8333  14.8333  14.8516  15.2088  15.2088  15.2104  15.3538  15.3538
    15.3538  15.5281  15.5281  15.5282  15.5363  15.5363  15.7539  15.7539
    15.7539  15.9684  15.9684  15.9684  15.9999  15.9999  15.9999  16.0717
    16.0717  16.3279  16.3279  16.3279  16.3847  16.3847  16.3848  17.1096
    17.1236  17.1236  17.1236  17.3138  17.4585  17.4585  17.4873  17.4873
    17.4873  17.5227  17.5227  17.5227  17.5682  17.5682  17.5682  17.6806
    17.6806  17.6806  17.7013  17.7013  17.7971  17.7971  17.7971  17.8199
    17.8199  18.1420  18.1420  18.1420  18.4786  18.4786  18.4786  18.5497
    18.5498  18.5498  18.5667  18.5667  19.4128  19.4128  19.4128  21.6603
    21.7987  21.7987

          k = 0.2762 0.2762 0.3867 ( 12223 PWs)   bands (ev):

   -69.4442 -69.4277 -69.4146 -69.4145 -69.4059 -69.4058 -69.3988 -69.3936
   -69.3786 -69.3774 -69.3738 -69.3737 -69.3689 -69.3689 -69.3591 -69.3463
   -35.6327 -35.6327 -35.6243 -35.6056 -35.6056 -35.6019 -35.5956 -35.5952
   -35.5811 -35.5807 -35.5807 -35.5719 -35.5526 -35.5261 -35.5261 -35.5199
   -35.5099 -35.4859 -35.4859 -35.4750 -35.4688 -35.4688 -35.4684 -35.4407
   -35.4019 -35.3946 -35.3748 -35.3719 -35.3619 -35.3619 -35.3519 -35.3518
   -35.3464 -35.3464 -35.3356 -35.3180 -35.3159 -35.3159 -35.3062 -35.3003
   -35.2868 -35.2785 -35.2774 -35.2774 -35.2730 -35.2702 -35.2702 -35.2636
    11.5269  12.4642  13.2181  13.2181  13.6464  13.6464  14.0751  14.2794
    14.3076  14.3940  14.3940  14.4784  14.5854  14.6175  14.6175  14.6270
    14.8271  14.8386  14.9887  14.9887  15.2277  15.3092  15.3614  15.4047
    15.4349  15.4349  15.4371  15.5607  15.5607  15.6472  15.6472  15.6692
    15.7714  15.7714  15.8611  15.8802  15.8802  15.9130  15.9208  15.9793
    16.0170  16.0380  16.0882  16.0882  16.0993  16.0993  16.4756  16.9964
    17.1978  17.2563  17.2564  17.3205  17.3810  17.4849  17.4849  17.5018
    17.5018  17.5356  17.5378  17.5378  17.5911  17.6018  17.6654  17.6872
    17.6978  17.6986  17.6988  17.6988  17.7631  17.7804  17.7875  17.7875
    17.8337  17.9182  18.2822  18.3099  18.4207  18.4208  18.5004  18.5004
    18.5778  18.5778  18.5827  18.6353  19.0620  19.0620  19.9413  21.0628
    22.1377  22.1377

          k = 0.2762 0.2762-0.4972 ( 12218 PWs)   bands (ev):

   -69.4367 -69.4364 -69.4107 -69.4106 -69.4104 -69.4103 -69.3965 -69.3962
   -69.3780 -69.3777 -69.3712 -69.3712 -69.3709 -69.3708 -69.3523 -69.3519
   -35.6195 -35.6195 -35.6195 -35.6194 -35.6004 -35.6001 -35.5987 -35.5986
   -35.5907 -35.5905 -35.5538 -35.5538 -35.5537 -35.5537 -35.5333 -35.5330
   -35.4978 -35.4976 -35.4803 -35.4803 -35.4801 -35.4801 -35.4348 -35.4348
   -35.4176 -35.4175 -35.3746 -35.3744 -35.3529 -35.3529 -35.3527 -35.3527
   -35.3328 -35.3328 -35.3327 -35.3327 -35.3090 -35.3088 -35.3017 -35.3015
   -35.2965 -35.2963 -35.2729 -35.2729 -35.2729 -35.2729 -35.2662 -35.2662
    11.9638  11.9638  13.4524  13.4524  13.4525  13.4525  14.4344  14.4345
    14.4395  14.4396  14.4666  14.4667  14.5201  14.5201  14.5201  14.5201
    14.7026  14.7027  15.2640  15.2642  15.2749  15.2749  15.2750  15.2751
    15.3209  15.3210  15.5400  15.5400  15.5401  15.5401  15.7161  15.7162
    15.7995  15.7996  15.8982  15.8982  15.8982  15.8982  15.9045  15.9045
    15.9046  15.9046  15.9256  15.9257  15.9471  15.9473  16.7069  16.7070
    17.2897  17.2898  17.3905  17.3905  17.3906  17.3906  17.5090  17.5090
    17.5091  17.5091  17.5464  17.5464  17.6269  17.6271  17.6309  17.6311
    17.6930  17.6932  17.7047  17.7049  17.7462  17.7462  17.7464  17.7464
    18.0322  18.0325  18.0696  18.0697  18.5495  18.5496  18.5496  18.5496
    18.6383  18.6384  18.7342  18.7342  18.7343  18.7343  20.4931  20.4932
    22.4362  22.4363

          k = 0.2762 0.3867 0.3867 ( 12198 PWs)   bands (ev):

   -69.4387 -69.4236 -69.4235 -69.4124 -69.4115 -69.4034 -69.4034 -69.3971
   -69.3768 -69.3744 -69.3744 -69.3702 -69.3689 -69.3616 -69.3615 -69.3502
   -35.6254 -35.6158 -35.6158 -35.6046 -35.6031 -35.6031 -35.5920 -35.5854
   -35.5837 -35.5837 -35.5756 -35.5541 -35.5496 -35.5437 -35.5271 -35.5112
   -35.5112 -35.4972 -35.4957 -35.4957 -35.4907 -35.4906 -35.4879 -35.4316
   -35.4173 -35.3725 -35.3724 -35.3614 -35.3614 -35.3605 -35.3480 -35.3451
   -35.3354 -35.3327 -35.3251 -35.3225 -35.3224 -35.3090 -35.3090 -35.3041
   -35.2859 -35.2854 -35.2854 -35.2801 -35.2708 -35.2708 -35.2686 -35.2659
    11.8604  12.7420  12.7420  13.3779  13.4697  13.9460  13.9460  14.3869
    14.4693  14.4910  14.5949  14.5949  14.6132  14.6132  14.6507  14.8122
    14.8336  14.8336  14.9089  14.9435  15.2774  15.3075  15.3764  15.3790
    15.3790  15.4013  15.4039  15.4039  15.5020  15.5468  15.5867  15.7033
    15.7033  15.7269  15.7269  15.7601  15.7765  15.8049  15.8049  15.8483
    15.8483  15.8787  15.9061  15.9268  15.9408  16.1989  16.1989  16.6801
    17.3101  17.3101  17.3430  17.4147  17.4905  17.5253  17.5337  17.5337
    17.5458  17.5593  17.6259  17.6260  17.6295  17.6348  17.6382  17.6857
    17.6857  17.6898  17.6953  17.6954  17.7403  17.7403  17.7610  17.8025
    17.9718  18.0970  18.0970  18.2051  18.3242  18.3242  18.3877  18.5839
    18.5839  18.6030  18.6249  18.7158  18.7695  19.5255  19.5255  20.5223
    22.5502  23.1735

          k = 0.2762 0.3867-0.4972 ( 12208 PWs)   bands (ev):

   -69.4319 -69.4316 -69.4185 -69.4182 -69.4079 -69.4076 -69.4006 -69.4003
   -69.3756 -69.3752 -69.3722 -69.3719 -69.3650 -69.3647 -69.3555 -69.3551
   -35.6146 -35.6146 -35.6082 -35.6081 -35.5957 -35.5956 -35.5954 -35.5951
   -35.5879 -35.5877 -35.5637 -35.5636 -35.5333 -35.5331 -35.5250 -35.5250
   -35.5122 -35.5120 -35.5030 -35.5029 -35.4990 -35.4989 -35.4636 -35.4636
   -35.3945 -35.3944 -35.3606 -35.3604 -35.3528 -35.3527 -35.3517 -35.3517
   -35.3317 -35.3315 -35.3209 -35.3208 -35.3050 -35.3049 -35.3048 -35.3047
   -35.3021 -35.3018 -35.2834 -35.2833 -35.2689 -35.2689 -35.2672 -35.2672
    12.2756  12.2756  13.0620  13.0620  13.7333  13.7333  14.3027  14.3027
    14.4988  14.4988  14.5586  14.5586  14.6574  14.6575  14.7474  14.7475
    14.8361  14.8362  15.1094  15.1095  15.1698  15.1700  15.2765  15.2766
    15.3227  15.3228  15.4615  15.4616  15.5497  15.5497  15.6006  15.6007
    15.6355  15.6355  15.7085  15.7086  15.7527  15.7527  15.7938  15.7938
    15.8442  15.8443  15.8794  15.8795  15.9592  15.9593  16.4023  16.4023
    17.3731  17.3731  17.4189  17.4189  17.4429  17.4430  17.5802  17.5804
    17.5923  17.5925  17.6435  17.6436  17.6483  17.6484  17.6521  17.6521
    17.6921  17.6922  17.7277  17.7279  17.7410  17.7412  17.8162  17.8162
    17.9753  17.9756  18.1138  18.1139  18.3408  18.3409  18.3986  18.3987
    18.6148  18.6149  18.6164  18.6164  19.1391  19.1392  20.0136  20.0137
    22.9447  22.9447

          k = 0.2762-0.4972-0.4972 ( 12200 PWs)   bands (ev):

   -69.4258 -69.4256 -69.4256 -69.4252 -69.4046 -69.4043 -69.4043 -69.4040
   -69.3738 -69.3735 -69.3735 -69.3731 -69.3599 -69.3596 -69.3596 -69.3592
   -35.6055 -35.6055 -35.6054 -35.6054 -35.5980 -35.5979 -35.5979 -35.5977
   -35.5757 -35.5756 -35.5756 -35.5755 -35.5219 -35.5217 -35.5217 -35.5215
   -35.5122 -35.5121 -35.5121 -35.5121 -35.4947 -35.4947 -35.4947 -35.4947
   -35.3723 -35.3723 -35.3723 -35.3722 -35.3543 -35.3542 -35.3542 -35.3542
   -35.3146 -35.3144 -35.3144 -35.3141 -35.3113 -35.3112 -35.3112 -35.3111
   -35.2951 -35.2950 -35.2950 -35.2949 -35.2672 -35.2672 -35.2672 -35.2672
    12.6541  12.6541  12.6541  12.6541  14.0440  14.0440  14.0440  14.0440
    14.5432  14.5433  14.5433  14.5433  14.8869  14.8870  14.8870  14.8871
    14.9373  14.9373  14.9374  14.9374  15.1032  15.1032  15.1032  15.1033
    15.3879  15.3880  15.3880  15.3880  15.5635  15.5637  15.5637  15.5639
    15.6507  15.6508  15.6508  15.6508  15.6820  15.6820  15.6821  15.6821
    15.8399  15.8400  15.8400  15.8401  16.1407  16.1407  16.1407  16.1408
    17.4297  17.4297  17.4297  17.4298  17.5120  17.5121  17.5121  17.5123
    17.5856  17.5857  17.5857  17.5860  17.7089  17.7090  17.7090  17.7092
    17.7362  17.7363  17.7363  17.7363  17.8144  17.8145  17.8145  17.8147
    18.0981  18.0982  18.0982  18.0982  18.1889  18.1889  18.1889  18.1890
    18.6298  18.6298  18.6298  18.6298  19.5667  19.5668  19.5668  19.5669
    23.4652  23.4652

          k = 0.3867 0.3867 0.3867 ( 12214 PWs)   bands (ev):

   -69.4336 -69.4197 -69.4197 -69.4197 -69.4095 -69.4095 -69.4094 -69.4016
   -69.3741 -69.3702 -69.3702 -69.3701 -69.3637 -69.3637 -69.3636 -69.3535
   -35.6076 -35.6076 -35.6076 -35.5981 -35.5981 -35.5980 -35.5830 -35.5691
   -35.5691 -35.5628 -35.5628 -35.5628 -35.5576 -35.5576 -35.5244 -35.5244
   -35.5244 -35.5167 -35.5166 -35.5166 -35.5120 -35.5120 -35.5119 -35.4585
   -35.3947 -35.3534 -35.3534 -35.3534 -35.3418 -35.3418 -35.3418 -35.3313
   -35.3313 -35.3222 -35.3222 -35.3221 -35.3214 -35.3213 -35.3213 -35.3067
   -35.2850 -35.2849 -35.2849 -35.2807 -35.2807 -35.2775 -35.2775 -35.2775
    12.1861  13.0304  13.0304  13.0304  13.6869  13.6869  13.6869  14.4218
    14.5612  14.5612  14.7185  14.7185  14.7185  14.8054  14.8054  14.8054
    14.8449  14.8449  14.8449  15.0491  15.3239  15.3239  15.3414  15.3414
    15.3896  15.3896  15.3896  15.4443  15.4443  15.4443  15.5382  15.5382
    15.5382  15.6415  15.6415  15.6415  15.6731  15.6731  15.6732  15.7062
    15.7062  15.7063  15.8107  15.8107  15.9266  15.9266  15.9266  16.3628
    17.3877  17.3878  17.3878  17.4864  17.4864  17.5285  17.5285  17.5285
    17.6343  17.6343  17.6393  17.6393  17.6393  17.6635  17.6636  17.6636
    17.7177  17.7177  17.7177  17.8244  17.8426  17.8426  17.8426  17.9414
    17.9414  18.3509  18.3509  18.3666  18.3666  18.3666  18.4188  18.4189
    18.4189  18.4400  18.4400  18.4400  19.1264  19.1264  19.1264  20.0250
    23.7921  23.7921

          k = 0.3867 0.3867-0.4972 ( 12218 PWs)   bands (ev):

   -69.4273 -69.4270 -69.4151 -69.4151 -69.4148 -69.4148 -69.4059 -69.4056
   -69.3720 -69.3717 -69.3667 -69.3667 -69.3664 -69.3664 -69.3583 -69.3579
   -35.5996 -35.5995 -35.5995 -35.5995 -35.5859 -35.5858 -35.5848 -35.5845
   -35.5728 -35.5727 -35.5488 -35.5485 -35.5399 -35.5399 -35.5398 -35.5398
   -35.5358 -35.5357 -35.5249 -35.5249 -35.5248 -35.5248 -35.4877 -35.4877
   -35.3733 -35.3732 -35.3372 -35.3370 -35.3364 -35.3364 -35.3364 -35.3364
   -35.3282 -35.3281 -35.3280 -35.3280 -35.3125 -35.3124 -35.3064 -35.3061
   -35.2995 -35.2992 -35.2828 -35.2827 -35.2827 -35.2827 -35.2777 -35.2776
    12.5874  12.5874  13.3633  13.3633  13.3633  13.3633  14.0560  14.0560
    14.6753  14.6754  14.7371  14.7372  14.7884  14.7884  14.7884  14.7884
    14.9756  14.9758  15.1048  15.1048  15.1049  15.1049  15.3262  15.3264
    15.3698  15.3698  15.3818  15.3819  15.4554  15.4554  15.5342  15.5342
    15.5342  15.5342  15.6444  15.6444  15.6446  15.6446  15.6960  15.6960
    15.6961  15.6961  15.7263  15.7263  15.7302  15.7304  16.0936  16.0937
    17.4387  17.4388  17.4709  17.4709  17.4710  17.4710  17.5710  17.5712
    17.5790  17.5792  17.6378  17.6379  17.6394  17.6394  17.6396  17.6396
    17.8162  17.8162  17.8163  17.8163  17.8545  17.8547  18.0878  18.0880
    18.1100  18.1100  18.1316  18.1318  18.3814  18.3815  18.3815  18.3815
    18.4292  18.4293  18.7627  18.7627  18.7628  18.7628  19.5641  19.5642
    24.1141  24.1141

          k = 0.3867-0.4972-0.4972 ( 12216 PWs)   bands (ev):

   -69.4219 -69.4216 -69.4216 -69.4212 -69.4110 -69.4107 -69.4107 -69.4103
   -69.3691 -69.3689 -69.3689 -69.3685 -69.3621 -69.3619 -69.3619 -69.3615
   -35.5884 -35.5884 -35.5884 -35.5884 -35.5849 -35.5847 -35.5847 -35.5845
   -35.5563 -35.5562 -35.5562 -35.5562 -35.5451 -35.5449 -35.5449 -35.5447
   -35.5411 -35.5410 -35.5410 -35.5410 -35.5140 -35.5139 -35.5139 -35.5139
   -35.3537 -35.3536 -35.3536 -35.3536 -35.3268 -35.3268 -35.3268 -35.3268
   -35.3230 -35.3228 -35.3228 -35.3228 -35.3088 -35.3086 -35.3086 -35.3084
   -35.2984 -35.2983 -35.2983 -35.2981 -35.2828 -35.2828 -35.2828 -35.2828
    12.9637  12.9637  12.9637  12.9637  13.7154  13.7154  13.7154  13.7155
    14.7557  14.7558  14.7558  14.7558  14.9335  14.9336  14.9336  14.9337
    15.0461  15.0461  15.0461  15.0462  15.0891  15.0892  15.0892  15.0892
    15.4611  15.4611  15.4611  15.4611  15.4745  15.4746  15.4746  15.4747
    15.4953  15.4954  15.4954  15.4956  15.6146  15.6146  15.6147  15.6147
    15.6652  15.6653  15.6653  15.6654  15.8344  15.8345  15.8345  15.8345
    17.4858  17.4859  17.4859  17.4860  17.5329  17.5331  17.5331  17.5333
    17.5726  17.5728  17.5728  17.5730  17.6299  17.6300  17.6300  17.6302
    17.9102  17.9102  17.9102  17.9103  18.0003  18.0005  18.0005  18.0006
    18.1923  18.1924  18.1924  18.1925  18.3781  18.3782  18.3782  18.3782
    18.4254  18.4255  18.4255  18.4255  19.1523  19.1524  19.1524  19.1525
    24.6477  24.6477

          k =-0.4972-0.4972-0.4972 ( 12160 PWs)   bands (ev):

   -69.4168 -69.4166 -69.4166 -69.4166 -69.4163 -69.4163 -69.4163 -69.4159
   -69.3654 -69.3652 -69.3652 -69.3652 -69.3649 -69.3649 -69.3649 -69.3644
   -35.5670 -35.5670 -35.5670 -35.5670 -35.5670 -35.5670 -35.5669 -35.5669
   -35.5667 -35.5667 -35.5666 -35.5666 -35.5666 -35.5665 -35.5665 -35.5665
   -35.5350 -35.5349 -35.5349 -35.5349 -35.5348 -35.5348 -35.5348 -35.5347
   -35.3374 -35.3373 -35.3373 -35.3373 -35.3372 -35.3372 -35.3372 -35.3372
   -35.3026 -35.3026 -35.3026 -35.3025 -35.3025 -35.3025 -35.3025 -35.3025
   -35.3023 -35.3023 -35.3022 -35.3022 -35.3022 -35.3021 -35.3021 -35.3021
    13.3338  13.3338  13.3338  13.3338  13.3338  13.3338  13.3338  13.3338
    14.9881  14.9881  14.9881  14.9881  14.9881  14.9881  14.9881  14.9881
    14.9881  14.9881  14.9881  14.9882  14.9882  14.9882  14.9883  14.9883
    15.5388  15.5388  15.5388  15.5388  15.5388  15.5388  15.5389  15.5389
    15.5390  15.5390  15.5390  15.5390  15.5390  15.5391  15.5391  15.5391
    15.5666  15.5667  15.5667  15.5667  15.5668  15.5668  15.5668  15.5668
    17.5549  17.5549  17.5549  17.5549  17.5549  17.5551  17.5551  17.5551
    17.5551  17.5551  17.5551  17.5552  17.5552  17.5552  17.5553  17.5553
    18.1290  18.1290  18.1290  18.1290  18.1290  18.1290  18.1291  18.1291
    18.1293  18.1293  18.1293  18.1293  18.1293  18.1294  18.1294  18.1294
    18.7777  18.7778  18.7778  18.7778  18.7779  18.7779  18.7779  18.7780
    25.7917  25.7917

 ------ SPIN DOWN ----------


          k = 0.0552 0.0552 0.0552 ( 12209 PWs)   bands (ev):

   -66.9558 -66.8786 -66.8786 -66.8786 -66.8663 -66.8663 -66.8663 -66.8651
   -66.8651 -66.8651 -66.8649 -66.8649 -66.8648 -66.8600 -66.8593 -66.7997
   -33.2544 -33.2544 -33.2544 -33.2523 -33.2523 -33.2523 -33.1190 -33.1190
   -33.1136 -33.0523 -33.0503 -33.0503 -33.0503 -33.0322 -33.0322 -33.0207
   -33.0207 -33.0207 -32.9910 -32.9910 -32.9698 -32.9580 -32.9580 -32.9580
   -32.9483 -32.9483 -32.9483 -32.9377 -32.9377 -32.9377 -32.9349 -32.9349
   -32.9349 -32.9279 -32.9279 -32.9279 -32.9189 -32.9189 -32.9189 -32.7832
   -32.7808 -32.7808 -32.7808 -32.7782 -32.7782 -32.7782 -32.7776 -32.7776
    10.2016  14.1027  14.1027  14.1027  14.7420  14.7420  14.7420  14.7938
    14.7938  14.7938  14.8346  14.8346  14.8346  15.4842  15.4842  16.5074
    16.5809  16.5809  16.6763  16.6763  16.6901  16.7803  16.7803  16.7803
    16.7927  16.7927  16.7927  17.5254  17.5254  17.5254  17.8991  17.8991
    17.8991  18.0741  18.0741  18.1195  18.3323  18.3324  18.3324  18.4785
    18.4785  18.4785  18.5113  18.5113  18.5113  18.6156  18.6156  18.6156
    18.9902  18.9902  18.9902  19.0302  19.0302  19.0302  19.3779  19.3779
    19.3779  19.6180  19.6180  19.6180  20.0891  20.0891  20.0891  20.1131
    20.1131  20.1131  20.2822  20.2822  20.5519  20.5519  20.5519  20.5959
    20.5959  20.5966  20.5966  20.6869  20.6869  20.6869  20.7589  20.8389
    20.8389  21.0955  21.0955  21.0955  21.1945  21.1945  21.1945  21.2393
    21.2393  21.2393

          k = 0.0552 0.0552 0.1657 ( 12199 PWs)   bands (ev):

   -66.9529 -66.8924 -66.8780 -66.8780 -66.8678 -66.8678 -66.8660 -66.8649
   -66.8648 -66.8646 -66.8643 -66.8643 -66.8603 -66.8597 -66.8519 -66.8017
   -33.2482 -33.2482 -33.2467 -33.2447 -33.2408 -33.2408 -33.1216 -33.1135
   -33.1051 -33.0830 -33.0764 -33.0764 -33.0743 -33.0735 -33.0478 -33.0478
   -33.0189 -32.9959 -32.9878 -32.9868 -32.9774 -32.9577 -32.9577 -32.9501
   -32.9427 -32.9409 -32.9409 -32.9397 -32.9386 -32.9329 -32.9329 -32.9283
   -32.9283 -32.9243 -32.9243 -32.8985 -32.8957 -32.8957 -32.8902 -32.7951
   -32.7888 -32.7888 -32.7873 -32.7855 -32.7825 -32.7809 -32.7809 -32.7796
    10.3321  13.4028  14.1728  14.1728  14.7646  14.7646  14.7990  14.7990
    14.8897  14.8897  14.8897  14.9289  15.2542  15.5307  15.5496  16.4150
    16.4902  16.5342  16.6047  16.7562  16.7677  16.7974  16.8249  16.8287
    16.8287  16.8662  16.8662  17.1336  17.4278  17.4278  17.7198  17.7198
    18.0480  18.0672  18.1092  18.1330  18.1330  18.1793  18.1972  18.3009
    18.3009  18.5529  18.6480  18.6480  18.7139  18.7139  18.7220  18.7220
    18.7317  18.7339  18.7450  18.7724  18.7724  18.8329  19.1436  19.5936
    19.5936  19.8288  19.8288  19.8563  20.0114  20.0114  20.0783  20.0783
    20.1147  20.1354  20.2060  20.3128  20.5548  20.5572  20.5599  20.5802
    20.5922  20.5947  20.6156  20.6371  20.6371  20.6941  20.8325  20.9067
    20.9170  20.9170  21.0946  21.0946  21.1095  21.1095  21.2806  21.2806
    21.4114  21.4115

          k = 0.0552 0.0552 0.2762 ( 12229 PWs)   bands (ev):

   -66.9475 -66.9060 -66.8770 -66.8770 -66.8697 -66.8697 -66.8653 -66.8645
   -66.8645 -66.8639 -66.8639 -66.8639 -66.8611 -66.8603 -66.8398 -66.8058
   -33.2332 -33.2332 -33.2319 -33.2305 -33.2211 -33.2211 -33.1222 -33.1179
   -33.1131 -33.1113 -33.1113 -33.1027 -33.0932 -33.0928 -33.0852 -33.0852
   -33.0165 -33.0063 -33.0058 -32.9919 -32.9562 -32.9562 -32.9517 -32.9508
   -32.9477 -32.9442 -32.9442 -32.9314 -32.9314 -32.9286 -32.9286 -32.9116
   -32.9047 -32.8948 -32.8948 -32.8712 -32.8681 -32.8681 -32.8635 -32.8152
   -32.8014 -32.8014 -32.8003 -32.7994 -32.7918 -32.7888 -32.7888 -32.7874
    10.5899  12.7013  14.2975  14.2975  14.7332  14.7332  14.8915  14.8915
    14.9530  14.9530  15.0738  15.1099  15.5908  15.6119  15.6791  16.2397
    16.2594  16.5283  16.5535  16.7128  16.7222  16.7588  16.9359  16.9360
    16.9985  16.9986  16.9990  17.0296  17.3333  17.3333  17.5652  17.5652
    17.8592  17.8592  18.0092  18.0092  18.0285  18.0574  18.1003  18.1037
    18.2088  18.2088  18.2683  18.2736  18.2736  18.3500  18.3577  18.8748
    18.9215  18.9993  19.0107  19.0107  19.0259  19.0259  19.1048  19.8852
    19.8852  19.8856  19.8856  19.9806  19.9806  20.0562  20.0856  20.1111
    20.1111  20.1644  20.1813  20.3115  20.3701  20.4365  20.4894  20.4939
    20.5600  20.5831  20.5867  20.5900  20.7486  20.7486  20.7629  20.7675
    20.9582  20.9582  21.0064  21.0064  21.0899  21.0899  21.4021  21.4021
    21.4568  21.4568

          k = 0.0552 0.0552 0.3867 ( 12218 PWs)   bands (ev):

   -66.9397 -66.9186 -66.8755 -66.8755 -66.8717 -66.8717 -66.8644 -66.8642
   -66.8641 -66.8638 -66.8638 -66.8631 -66.8620 -66.8611 -66.8289 -66.8117
   -33.2104 -33.2104 -33.2104 -33.2096 -33.1938 -33.1938 -33.1521 -33.1499
   -33.1474 -33.1474 -33.1238 -33.1238 -33.1203 -33.1066 -33.0871 -33.0764
   -33.0433 -33.0323 -32.9924 -32.9825 -32.9640 -32.9586 -32.9538 -32.9538
   -32.9476 -32.9476 -32.9303 -32.9303 -32.9288 -32.9288 -32.9133 -32.8763
   -32.8725 -32.8661 -32.8660 -32.8460 -32.8427 -32.8419 -32.8419 -32.8388
   -32.8195 -32.8193 -32.8186 -32.8186 -32.8055 -32.8016 -32.8016 -32.8001
    10.9687  12.0427  14.4468  14.4468  14.6789  14.6789  14.9792  14.9792
    15.0059  15.0059  15.3309  15.3616  15.7035  15.7480  15.8699  15.9599
    15.9676  16.4166  16.5540  16.5641  16.6578  16.6651  17.0981  17.0981
    17.1842  17.1842  17.2618  17.2911  17.3293  17.3293  17.4884  17.4885
    17.6083  17.6083  17.7145  17.7145  17.8001  17.8001  17.8847  17.8847
    17.9488  17.9682  18.0183  18.0477  18.0496  18.0671  18.3884  18.7182
    19.2310  19.2654  19.2654  19.3048  19.3263  19.3263  19.4194  19.7152
[...]
   -32.8126 -32.8126 -32.8126 -32.7982 -32.7982 -32.7982 -32.7923 -32.7923
    11.3341  13.2824  13.2824  13.2824  14.5243  14.5243  14.5243  15.6029
    15.6029  15.6029  15.8970  15.8970  15.8970  15.9247  15.9502  15.9502
    16.2087  16.6455  16.6455  16.6968  16.6968  16.6968  16.8809  16.8809
    16.9060  16.9060  16.9060  17.0908  17.0908  17.0908  17.4854  17.4854
    17.4854  17.5134  17.5134  17.5134  17.5351  17.5351  17.5351  17.5499
    17.5499  17.5499  17.7658  17.7658  17.9890  17.9890  17.9890  18.9011
    19.0092  19.4348  19.4348  19.4348  19.5248  19.5248  19.5248  19.7886
    19.7886  19.7886  19.8576  19.8576  19.8576  20.0971  20.0971  20.0971
    20.1745  20.1745  20.3824  20.3824  20.4568  20.4568  20.4825  20.4825
    20.4825  20.5060  20.5060  20.5060  20.5136  20.5136  20.6618  20.6618
    20.6618  20.7176  20.7176  20.7176  21.1520  21.1520  21.1520  23.1021
    23.2237  23.2237

          k = 0.2762 0.2762 0.3867 ( 12223 PWs)   bands (ev):

   -66.9265 -66.9088 -66.8946 -66.8946 -66.8851 -66.8851 -66.8774 -66.8718
   -66.8555 -66.8542 -66.8503 -66.8503 -66.8451 -66.8451 -66.8345 -66.8208
   -33.1985 -33.1985 -33.1894 -33.1684 -33.1684 -33.1650 -33.1577 -33.1565
   -33.1417 -33.1417 -33.1404 -33.1315 -33.1087 -33.0814 -33.0814 -33.0738
   -33.0617 -33.0353 -33.0353 -33.0237 -33.0177 -33.0165 -33.0165 -32.9853
   -32.9442 -32.9349 -32.9133 -32.9106 -32.8989 -32.8989 -32.8879 -32.8879
   -32.8820 -32.8820 -32.8708 -32.8508 -32.8485 -32.8485 -32.8379 -32.8313
   -32.8170 -32.8074 -32.8064 -32.8064 -32.8014 -32.7986 -32.7986 -32.7911
    11.6902  12.6852  13.5529  13.5529  14.2096  14.2096  14.8224  15.5750
    15.7810  15.7810  15.8185  15.9700  15.9700  16.0597  16.0910  16.0926
    16.1893  16.4778  16.6964  16.7338  16.7338  16.7705  16.7934  16.8378
    16.9423  17.0051  17.0051  17.0306  17.1396  17.1396  17.2505  17.3112
    17.3112  17.3451  17.3451  17.3646  17.4205  17.4205  17.4405  17.4405
    17.5365  17.5672  17.6525  17.7087  17.7358  17.7358  18.1172  18.6477
    19.1227  19.5321  19.5321  19.6104  19.6530  19.6898  19.6898  19.7039
    19.7039  19.7067  19.9451  20.0259  20.0259  20.0466  20.1518  20.1518
    20.1729  20.2226  20.2551  20.2751  20.3649  20.4041  20.4664  20.4664
    20.4704  20.4824  20.5162  20.5603  20.5603  20.5621  20.5826  20.6051
    20.6333  20.6333  20.6982  20.6982  20.8585  20.8585  21.6075  22.5916
    23.5169  23.5169

          k = 0.2762 0.2762-0.4972 ( 12218 PWs)   bands (ev):

   -66.9184 -66.9183 -66.8902 -66.8902 -66.8901 -66.8901 -66.8748 -66.8746
   -66.8548 -66.8546 -66.8475 -66.8475 -66.8474 -66.8473 -66.8270 -66.8269
   -33.1838 -33.1838 -33.1837 -33.1837 -33.1629 -33.1627 -33.1613 -33.1611
   -33.1512 -33.1512 -33.1119 -33.1119 -33.1119 -33.1118 -33.0873 -33.0871
   -33.0490 -33.0490 -33.0292 -33.0291 -33.0290 -33.0290 -32.9806 -32.9805
   -32.9600 -32.9600 -32.9133 -32.9132 -32.8890 -32.8890 -32.8889 -32.8889
   -32.8670 -32.8670 -32.8670 -32.8669 -32.8414 -32.8412 -32.8328 -32.8327
   -32.8271 -32.8269 -32.8015 -32.8015 -32.8015 -32.8015 -32.7940 -32.7940
    12.1464  12.1465  13.8736  13.8737  13.8737  13.8737  15.1851  15.1852
    15.9220  15.9220  15.9221  15.9221  16.0416  16.0417  16.1289  16.1290
    16.2719  16.2720  16.7641  16.7643  16.8212  16.8213  16.9072  16.9073
    16.9073  16.9073  16.9856  16.9856  17.1429  17.1429  17.1430  17.1430
    17.1972  17.1973  17.3913  17.3913  17.3915  17.3915  17.5069  17.5070
    17.5070  17.5070  17.5727  17.5727  17.6413  17.6415  18.3381  18.3381
    19.3614  19.3614  19.6072  19.6072  19.6072  19.6072  19.8821  19.8821
    19.8822  19.8822  19.8867  19.8868  19.9239  19.9241  20.1058  20.1059
    20.2657  20.2658  20.3908  20.3909  20.4001  20.4002  20.4002  20.4002
    20.4601  20.4601  20.4787  20.4788  20.6229  20.6230  20.6376  20.6376
    20.6376  20.6376  20.6522  20.6522  20.6522  20.6522  22.0938  22.0939
    23.7488  23.7488

          k = 0.2762 0.3867 0.3867 ( 12198 PWs)   bands (ev):

   -66.9206 -66.9043 -66.9043 -66.8922 -66.8912 -66.8824 -66.8824 -66.8756
   -66.8536 -66.8510 -66.8510 -66.8465 -66.8451 -66.8372 -66.8372 -66.8249
   -33.1903 -33.1799 -33.1799 -33.1672 -33.1653 -33.1653 -33.1538 -33.1453
   -33.1448 -33.1448 -33.1355 -33.1124 -33.1055 -33.1007 -33.0817 -33.0632
   -33.0632 -33.0480 -33.0478 -33.0478 -33.0410 -33.0410 -33.0376 -32.9770
   -32.9596 -32.9105 -32.9105 -32.8986 -32.8986 -32.8980 -32.8838 -32.8805
   -32.8698 -32.8669 -32.8591 -32.8557 -32.8557 -32.8409 -32.8409 -32.8355
   -32.8156 -32.8154 -32.8154 -32.8094 -32.7991 -32.7991 -32.7968 -32.7936
    12.0352  12.9894  12.9894  13.7830  13.8318  14.5071  14.5071  15.2436
    15.9824  15.9932  15.9932  16.1172  16.1701  16.1752  16.1753  16.2220
    16.2681  16.5611  16.5611  16.6868  16.7734  16.7864  16.8031  16.9292
    16.9292  16.9590  16.9590  17.0128  17.0195  17.0855  17.1759  17.1759
    17.1946  17.2299  17.2299  17.2789  17.3648  17.3648  17.3671  17.3875
    17.4718  17.4718  17.5178  17.5386  17.6164  17.8131  17.8131  18.2884
    19.3703  19.6579  19.6878  19.6878  19.6894  19.8422  19.8462  19.8462
    19.8742  19.8742  19.9065  19.9065  20.0462  20.0734  20.1116  20.1116
    20.1251  20.1887  20.2570  20.3120  20.3699  20.3927  20.4164  20.4487
    20.4647  20.4647  20.4683  20.4683  20.5012  20.5274  20.5333  20.5333
    20.5787  20.6037  20.6037  20.6939  20.6994  21.2596  21.2596  22.1341
    23.8903  24.3766

          k = 0.2762 0.3867-0.4972 ( 12208 PWs)   bands (ev):

   -66.9132 -66.9131 -66.8987 -66.8986 -66.8872 -66.8871 -66.8793 -66.8792
   -66.8521 -66.8520 -66.8485 -66.8484 -66.8408 -66.8407 -66.8305 -66.8303
   -33.1781 -33.1781 -33.1712 -33.1712 -33.1572 -33.1570 -33.1568 -33.1568
   -33.1493 -33.1492 -33.1228 -33.1227 -33.0875 -33.0874 -33.0802 -33.0802
   -33.0649 -33.0649 -33.0542 -33.0541 -33.0501 -33.0500 -33.0124 -33.0123
   -32.9346 -32.9346 -32.8978 -32.8978 -32.8892 -32.8891 -32.8877 -32.8876
   -32.8658 -32.8656 -32.8538 -32.8538 -32.8368 -32.8367 -32.8363 -32.8362
   -32.8333 -32.8331 -32.8130 -32.8129 -32.7971 -32.7970 -32.7951 -32.7951
    12.4747  12.4748  13.3647  13.3648  14.1627  14.1627  14.8658  14.8659
    16.1255  16.1255  16.1265  16.1265  16.1972  16.1973  16.2271  16.2271
    16.3879  16.3880  16.7688  16.7689  16.7819  16.7821  16.8088  16.8088
    16.8482  16.8483  16.9576  16.9577  17.0539  17.0540  17.1110  17.1110
    17.1879  17.1881  17.2064  17.2064  17.3318  17.3318  17.4091  17.4092
    17.4344  17.4344  17.5392  17.5393  17.5570  17.5570  17.9956  17.9956
    19.6337  19.6338  19.6664  19.6664  19.7971  19.7971  19.8996  19.8997
    19.9786  19.9787  19.9842  19.9844  19.9884  19.9885  20.0491  20.0492
    20.2091  20.2091  20.2129  20.2130  20.3435  20.3436  20.4202  20.4203
    20.4258  20.4259  20.4562  20.4563  20.4638  20.4639  20.5011  20.5011
    20.6101  20.6102  20.6603  20.6603  20.9356  20.9357  21.6910  21.6911
    24.2244  24.2244

          k = 0.2762-0.4972-0.4972 ( 12200 PWs)   bands (ev):

   -66.9066 -66.9065 -66.9065 -66.9063 -66.8836 -66.8834 -66.8834 -66.8833
   -66.8501 -66.8499 -66.8499 -66.8498 -66.8352 -66.8350 -66.8350 -66.8349
   -33.1679 -33.1678 -33.1678 -33.1678 -33.1600 -33.1599 -33.1599 -33.1598
   -33.1359 -33.1358 -33.1358 -33.1357 -33.0750 -33.0748 -33.0748 -33.0747
   -33.0649 -33.0649 -33.0649 -33.0648 -33.0468 -33.0467 -33.0467 -33.0467
   -32.9103 -32.9103 -32.9103 -32.9102 -32.8910 -32.8910 -32.8910 -32.8909
   -32.8469 -32.8467 -32.8467 -32.8466 -32.8433 -32.8432 -32.8432 -32.8431
   -32.8260 -32.8258 -32.8258 -32.8257 -32.7952 -32.7951 -32.7951 -32.7951
    12.8883  12.8884  12.8884  12.8885  14.5074  14.5074  14.5074  14.5075
    16.2252  16.2252  16.2252  16.2253  16.2653  16.2654  16.2654  16.2654
    16.5812  16.5813  16.5813  16.5814  16.7166  16.7166  16.7166  16.7167
    16.9556  16.9557  16.9557  16.9557  17.0269  17.0270  17.0270  17.0272
    17.1869  17.1870  17.1870  17.1870  17.3029  17.3029  17.3029  17.3030
    17.4627  17.4629  17.4629  17.4630  17.7212  17.7212  17.7212  17.7212
    19.7786  19.7787  19.7787  19.7788  19.9211  19.9211  19.9211  19.9212
    19.9506  19.9507  19.9507  19.9507  20.0303  20.0303  20.0303  20.0304
    20.1072  20.1073  20.1073  20.1074  20.3393  20.3394  20.3394  20.3395
    20.4257  20.4257  20.4257  20.4257  20.4617  20.4618  20.4618  20.4619
    20.6458  20.6458  20.6458  20.6458  21.3042  21.3043  21.3043  21.3044
    24.6942  24.6942

          k = 0.3867 0.3867 0.3867 ( 12214 PWs)   bands (ev):

   -66.9152 -66.9001 -66.9001 -66.9001 -66.8890 -66.8890 -66.8890 -66.8804
   -66.8507 -66.8464 -66.8464 -66.8464 -66.8394 -66.8394 -66.8394 -66.8284
   -33.1706 -33.1706 -33.1706 -33.1598 -33.1598 -33.1598 -33.1439 -33.1272
   -33.1272 -33.1218 -33.1218 -33.1218 -33.1153 -33.1153 -33.0780 -33.0780
   -33.0780 -33.0709 -33.0709 -33.0709 -33.0644 -33.0644 -33.0644 -33.0067
   -32.9348 -32.8895 -32.8895 -32.8895 -32.8771 -32.8771 -32.8771 -32.8659
   -32.8659 -32.8554 -32.8554 -32.8554 -32.8544 -32.8544 -32.8544 -32.8384
   -32.8148 -32.8148 -32.8148 -32.8099 -32.8099 -32.8065 -32.8065 -32.8065
    12.3722  13.2951  13.2951  13.2951  14.0880  14.0880  14.0880  14.8627
    16.2017  16.2017  16.2017  16.3175  16.3175  16.3569  16.3569  16.3569
    16.4441  16.5595  16.5595  16.5595  16.8427  16.8427  16.8489  16.8489
    16.9730  16.9730  16.9730  17.0090  17.0090  17.0090  17.0970  17.0970
    17.0970  17.1646  17.1646  17.1646  17.2831  17.2831  17.2831  17.2860
    17.2860  17.2860  17.4638  17.4638  17.5071  17.5071  17.5071  17.9202
    19.6399  19.8444  19.8444  19.8444  19.8782  19.8782  19.8782  19.9643
    19.9643  19.9643  20.1342  20.1342  20.1342  20.1794  20.1794  20.2089
    20.2089  20.2090  20.2420  20.2420  20.3154  20.3154  20.3501  20.3501
    20.4023  20.4023  20.4023  20.4428  20.4428  20.4428  20.4897  20.4897
    20.4897  20.5019  20.5019  20.5019  20.8997  20.8997  20.8997  21.7065
    24.9701  24.9701

          k = 0.3867 0.3867-0.4972 ( 12218 PWs)   bands (ev):

   -66.9083 -66.9082 -66.8951 -66.8950 -66.8949 -66.8949 -66.8851 -66.8849
   -66.8483 -66.8482 -66.8426 -66.8426 -66.8425 -66.8424 -66.8335 -66.8333
   -33.1615 -33.1615 -33.1615 -33.1615 -33.1461 -33.1461 -33.1453 -33.1451
   -33.1328 -33.1327 -33.1048 -33.1046 -33.0966 -33.0965 -33.0965 -33.0964
   -33.0911 -33.0910 -33.0787 -33.0787 -33.0786 -33.0786 -33.0390 -33.0389
   -32.9113 -32.9112 -32.8721 -32.8720 -32.8709 -32.8708 -32.8708 -32.8708
   -32.8621 -32.8621 -32.8620 -32.8620 -32.8446 -32.8445 -32.8383 -32.8382
   -32.8305 -32.8303 -32.8123 -32.8123 -32.8122 -32.8122 -32.8066 -32.8066
    12.7991  12.7992  13.6713  13.6713  13.6714  13.6714  14.4601  14.4602
    16.3520  16.3520  16.3521  16.3521  16.4157  16.4157  16.4233  16.4234
    16.4330  16.4331  16.7303  16.7303  16.7304  16.7304  16.8632  16.8633
    16.9141  16.9141  16.9243  16.9245  16.9725  16.9726  17.1264  17.1265
    17.1265  17.1265  17.2094  17.2094  17.2096  17.2096  17.2571  17.2572
    17.2572  17.2572  17.3476  17.3477  17.3773  17.3775  17.6340  17.6340
    19.8908  19.8908  19.8908  19.8908  19.9263  19.9263  20.0598  20.0600
    20.0765  20.0765  20.0766  20.0766  20.0773  20.0774  20.0798  20.0799
    20.2397  20.2398  20.3010  20.3011  20.3458  20.3458  20.3803  20.3804
    20.3810  20.3810  20.3811  20.3811  20.4341  20.4342  20.4680  20.4680
    20.4680  20.4681  20.5708  20.5708  20.5709  20.5709  21.2973  21.2974
    25.2571  25.2571

          k = 0.3867-0.4972-0.4972 ( 12216 PWs)   bands (ev):

   -66.9023 -66.9022 -66.9022 -66.9020 -66.8905 -66.8903 -66.8903 -66.8902
   -66.8452 -66.8450 -66.8450 -66.8449 -66.8376 -66.8374 -66.8374 -66.8373
   -33.1490 -33.1490 -33.1490 -33.1490 -33.1453 -33.1451 -33.1451 -33.1450
   -33.1146 -33.1145 -33.1145 -33.1144 -33.1009 -33.1007 -33.1007 -33.1006
   -33.0968 -33.0967 -33.0967 -33.0967 -33.0680 -33.0679 -33.0679 -33.0678
   -32.8898 -32.8897 -32.8897 -32.8897 -32.8607 -32.8607 -32.8607 -32.8607
   -32.8560 -32.8559 -32.8559 -32.8559 -32.8407 -32.8406 -32.8406 -32.8405
   -32.8295 -32.8294 -32.8294 -32.8293 -32.8123 -32.8123 -32.8123 -32.8123
    13.2061  13.2062  13.2062  13.2062  14.0473  14.0474  14.0474  14.0475
    16.4387  16.4387  16.4387  16.4388  16.5617  16.5618  16.5618  16.5619
    16.6146  16.6146  16.6146  16.6147  16.6850  16.6850  16.6850  16.6851
    17.0164  17.0164  17.0164  17.0165  17.0403  17.0403  17.0403  17.0403
    17.0429  17.0430  17.0430  17.0432  17.2227  17.2227  17.2227  17.2227
    17.2796  17.2798  17.2798  17.2799  17.3512  17.3512  17.3512  17.3512
    20.0193  20.0193  20.0193  20.0194  20.0491  20.0491  20.0491  20.0491
    20.1301  20.1302  20.1302  20.1303  20.1815  20.1816  20.1816  20.1817
    20.2378  20.2378  20.2378  20.2379  20.3001  20.3002  20.3002  20.3003
    20.3390  20.3391  20.3391  20.3391  20.3646  20.3647  20.3647  20.3648
    20.4141  20.4141  20.4141  20.4142  20.9255  20.9255  20.9255  20.9256
    25.7640  25.7641

          k =-0.4972-0.4972-0.4972 ( 12160 PWs)   bands (ev):

   -66.8967 -66.8965 -66.8965 -66.8965 -66.8964 -66.8964 -66.8964 -66.8962
   -66.8411 -66.8409 -66.8409 -66.8409 -66.8408 -66.8408 -66.8408 -66.8406
   -33.1253 -33.1253 -33.1253 -33.1252 -33.1252 -33.1252 -33.1252 -33.1252
   -33.1251 -33.1251 -33.1251 -33.1250 -33.1250 -33.1250 -33.1250 -33.1250
   -33.0910 -33.0909 -33.0909 -33.0909 -33.0908 -33.0908 -33.0908 -33.0908
   -32.8718 -32.8718 -32.8718 -32.8718 -32.8717 -32.8717 -32.8717 -32.8716
   -32.8340 -32.8340 -32.8340 -32.8339 -32.8339 -32.8339 -32.8339 -32.8339
   -32.8338 -32.8338 -32.8338 -32.8337 -32.8337 -32.8337 -32.8337 -32.8337
    13.6015  13.6016  13.6016  13.6016  13.6017  13.6017  13.6017  13.6017
    16.6503  16.6503  16.6504  16.6504  16.6504  16.6504  16.6504  16.6504
    16.6505  16.6505  16.6505  16.6505  16.6505  16.6505  16.6506  16.6506
    17.0255  17.0255  17.0255  17.0255  17.0255  17.0255  17.0255  17.0255
    17.1322  17.1322  17.1322  17.1323  17.1323  17.1323  17.1323  17.1323
    17.1324  17.1324  17.1325  17.1325  17.1325  17.1326  17.1326  17.1326
    20.2068  20.2068  20.2068  20.2068  20.2068  20.2068  20.2069  20.2069
    20.2069  20.2069  20.2070  20.2070  20.2070  20.2070  20.2070  20.2070
    20.2474  20.2474  20.2475  20.2475  20.2475  20.2475  20.2475  20.2475
    20.2476  20.2476  20.2476  20.2476  20.2476  20.2476  20.2477  20.2477
    20.5748  20.5748  20.5748  20.5748  20.5750  20.5750  20.5750  20.5750
    26.8309  26.8309

     the Fermi energy is    18.5678 ev

!    total energy              =   -5268.19306863 Ry
     Harris-Foulkes estimate   =   -5268.19306731 Ry
     estimated scf accuracy    <       0.00000055 Ry

     total all-electron energy =    -40728.937598 Ry

     The total energy is the sum of the following terms:

     one-electron contribution =   -1732.76070048 Ry
     hartree contribution      =    1031.42598608 Ry
     xc contribution           =    -444.08306244 Ry
     ewald contribution        =   -2798.24003966 Ry
     one-center paw contrib.   =   -1324.66705037 Ry
     smearing contrib. (-TS)   =       0.13179825 Ry

     total magnetization       =    33.23 Bohr mag/cell
     absolute magnetization    =    35.08 Bohr mag/cell

     convergence has been achieved in  18 iterations

     negative rho (up, down):  0.000E+00 2.575E-03

     Forces acting on atoms (cartesian axes, Ry/au):

     atom    1 type  1   force =     0.00000000    0.00000000    0.00000000
     atom    2 type  2   force =    -0.00000235   -0.00000235   -0.00000235
     atom    3 type  1   force =     0.00000000    0.00000000    0.00000000
     atom    4 type  2   force =    -0.00000235   -0.00000235    0.00000235
     atom    5 type  1   force =     0.00000000    0.00000000    0.00000000
     atom    6 type  2   force =    -0.00000235    0.00000235   -0.00000235
     atom    7 type  1   force =     0.00000000    0.00000000    0.00000000
     atom    8 type  2   force =    -0.00000235    0.00000235    0.00000235
     atom    9 type  1   force =     0.00000000    0.00000000    0.00000000
     atom   10 type  2   force =     0.00000235   -0.00000235   -0.00000235
     atom   11 type  1   force =     0.00000000    0.00000000   -0.00000000
     atom   12 type  2   force =     0.00000235   -0.00000235    0.00000235
     atom   13 type  1   force =     0.00000000    0.00000000    0.00000000
     atom   14 type  2   force =     0.00000235    0.00000235   -0.00000235
     atom   15 type  1   force =     0.00000000    0.00000000    0.00000000
     atom   16 type  2   force =     0.00000235    0.00000235    0.00000235

     Total force =     0.000011     Total SCF correction =     0.002719
     SCF correction compared to forces is large: reduce conv_thr to get better values


     Computing stress (Cartesian axis) and pressure


     negative rho (up, down):  0.000E+00 2.575E-03
          total   stress  (Ry/bohr**3)                   (kbar)     P=  -39.16
  -0.00026623   0.00000000   0.00000000        -39.16      0.00      0.00
   0.00000000  -0.00026623   0.00000000          0.00    -39.16      0.00
   0.00000000   0.00000000  -0.00026623          0.00      0.00    -39.16


     Writing output data file jNKjMBzyVsgaqwYf.save/
 
     init_run     :      7.51s CPU      7.81s WALL (       1 calls)
     electrons    :    457.96s CPU    469.19s WALL (       1 calls)
     forces       :      2.39s CPU      2.54s WALL (       1 calls)
     stress       :      9.74s CPU      9.81s WALL (       1 calls)

     Called by init_run:
     wfcinit      :      6.78s CPU      7.02s WALL (       1 calls)
     potinit      :      0.30s CPU      0.31s WALL (       1 calls)
     hinit0       :      0.24s CPU      0.25s WALL (       1 calls)

     Called by electrons:
     c_bands      :    407.16s CPU    416.02s WALL (      19 calls)
     sum_band     :     44.76s CPU     46.64s WALL (      19 calls)
     v_of_rho     :      0.47s CPU      0.50s WALL (      19 calls)
     newd         :      1.00s CPU      1.20s WALL (      19 calls)
     PAW_pot      :      4.68s CPU      4.92s WALL (      19 calls)
     mix_rho      :      0.12s CPU      0.13s WALL (      19 calls)

     Called by c_bands:
     init_us_2    :      2.84s CPU      2.88s WALL (    2870 calls)
     cegterg      :    391.33s CPU    400.03s WALL (    1330 calls)

     Called by sum_band:
     sum_band:bec :      0.45s CPU      0.46s WALL (    1330 calls)
     addusdens    :      1.98s CPU      2.21s WALL (      19 calls)

     Called by *egterg:
     h_psi        :    176.35s CPU    181.99s WALL (    4479 calls)
     s_psi        :     12.61s CPU     12.66s WALL (    4479 calls)
     g_psi        :      0.61s CPU      0.62s WALL (    3079 calls)
     cdiaghg      :    160.32s CPU    160.74s WALL (    4339 calls)

     Called by h_psi:
     h_psi:pot    :    175.11s CPU    180.73s WALL (    4479 calls)
     h_psi:calbec :     14.35s CPU     15.94s WALL (    4479 calls)
     vloc_psi     :    147.77s CPU    151.73s WALL (    4479 calls)
     add_vuspsi   :     12.96s CPU     13.03s WALL (    4479 calls)

     General routines
     calbec       :     22.26s CPU     24.70s WALL (    6159 calls)
     fft          :      0.41s CPU      0.46s WALL (     517 calls)
     ffts         :      0.03s CPU      0.04s WALL (      76 calls)
     fftw         :    169.17s CPU    173.71s WALL ( 1134042 calls)
     interpolate  :      0.05s CPU      0.05s WALL (      38 calls)
 
     Parallel routines
     fft_scatt_xy :     14.00s CPU     14.39s WALL ( 1134635 calls)
     fft_scatt_yz :     97.82s CPU    100.50s WALL ( 1134635 calls)
 
     PWSCF        :  8m 1.44s CPU     8m21.41s WALL

 
   This run was terminated on:   1: 5:41  14Jun2020            

=------------------------------------------------------------------------------=
   JOB DONE.
=------------------------------------------------------------------------------=
